 #written on 31Jul2024 at 00:00:14 
 #----------------- MONTECARLO -------------------#
 #        M                      P(M)             #
 #------------------------------------------------#
 #T=     1.0000
  -0.20000000E+01           0.00000000E+00
  -0.19900000E+01           0.00000000E+00
  -0.19800000E+01           0.00000000E+00
  -0.19700000E+01           0.00000000E+00
  -0.19600000E+01           0.00000000E+00
  -0.19500000E+01           0.00000000E+00
  -0.19400000E+01           0.00000000E+00
  -0.19300000E+01           0.00000000E+00
  -0.19200000E+01           0.00000000E+00
  -0.19100000E+01           0.00000000E+00
  -0.19000000E+01           0.00000000E+00
  -0.18900000E+01           0.00000000E+00
  -0.18800000E+01           0.00000000E+00
  -0.18700000E+01           0.00000000E+00
  -0.18600000E+01           0.00000000E+00
  -0.18500000E+01           0.00000000E+00
  -0.18400000E+01           0.00000000E+00
  -0.18300000E+01           0.00000000E+00
  -0.18200000E+01           0.00000000E+00
  -0.18100000E+01           0.00000000E+00
  -0.18000000E+01           0.00000000E+00
  -0.17900000E+01           0.00000000E+00
  -0.17800000E+01           0.00000000E+00
  -0.17700000E+01           0.00000000E+00
  -0.17600000E+01           0.00000000E+00
  -0.17500000E+01           0.00000000E+00
  -0.17400000E+01           0.00000000E+00
  -0.17300000E+01           0.00000000E+00
  -0.17200000E+01           0.00000000E+00
  -0.17100000E+01           0.00000000E+00
  -0.17000000E+01           0.00000000E+00
  -0.16900000E+01           0.00000000E+00
  -0.16800000E+01           0.00000000E+00
  -0.16700000E+01           0.00000000E+00
  -0.16600000E+01           0.00000000E+00
  -0.16500000E+01           0.00000000E+00
  -0.16400000E+01           0.00000000E+00
  -0.16300000E+01           0.00000000E+00
  -0.16200000E+01           0.00000000E+00
  -0.16100000E+01           0.00000000E+00
  -0.16000000E+01           0.00000000E+00
  -0.15900000E+01           0.00000000E+00
  -0.15800000E+01           0.00000000E+00
  -0.15700000E+01           0.00000000E+00
  -0.15600000E+01           0.00000000E+00
  -0.15500000E+01           0.00000000E+00
  -0.15400000E+01           0.00000000E+00
  -0.15300000E+01           0.00000000E+00
  -0.15200000E+01           0.00000000E+00
  -0.15100000E+01           0.00000000E+00
  -0.15000000E+01           0.00000000E+00
  -0.14900000E+01           0.00000000E+00
  -0.14800000E+01           0.00000000E+00
  -0.14700000E+01           0.00000000E+00
  -0.14600000E+01           0.00000000E+00
  -0.14500000E+01           0.00000000E+00
  -0.14400000E+01           0.00000000E+00
  -0.14300000E+01           0.00000000E+00
  -0.14200000E+01           0.00000000E+00
  -0.14100000E+01           0.00000000E+00
  -0.14000000E+01           0.00000000E+00
  -0.13900000E+01           0.00000000E+00
  -0.13800000E+01           0.00000000E+00
  -0.13700000E+01           0.00000000E+00
  -0.13600000E+01           0.00000000E+00
  -0.13500000E+01           0.00000000E+00
  -0.13400000E+01           0.00000000E+00
  -0.13300000E+01           0.00000000E+00
  -0.13200000E+01           0.00000000E+00
  -0.13100000E+01           0.00000000E+00
  -0.13000000E+01           0.00000000E+00
  -0.12900000E+01           0.00000000E+00
  -0.12800000E+01           0.00000000E+00
  -0.12700000E+01           0.00000000E+00
  -0.12600000E+01           0.00000000E+00
  -0.12500000E+01           0.00000000E+00
  -0.12400000E+01           0.00000000E+00
  -0.12300000E+01           0.00000000E+00
  -0.12200000E+01           0.00000000E+00
  -0.12100000E+01           0.00000000E+00
  -0.12000000E+01           0.00000000E+00
  -0.11900000E+01           0.00000000E+00
  -0.11800000E+01           0.00000000E+00
  -0.11700000E+01           0.00000000E+00
  -0.11600000E+01           0.00000000E+00
  -0.11500000E+01           0.00000000E+00
  -0.11400000E+01           0.00000000E+00
  -0.11300000E+01           0.00000000E+00
  -0.11200000E+01           0.00000000E+00
  -0.11100000E+01           0.00000000E+00
  -0.11000000E+01           0.00000000E+00
  -0.10900000E+01           0.00000000E+00
  -0.10800000E+01           0.00000000E+00
  -0.10700000E+01           0.00000000E+00
  -0.10600000E+01           0.00000000E+00
  -0.10500000E+01           0.00000000E+00
  -0.10400000E+01           0.00000000E+00
  -0.10300000E+01           0.00000000E+00
  -0.10200000E+01           0.00000000E+00
  -0.10100000E+01           0.00000000E+00
  -0.10000000E+01           0.00000000E+00
  -0.99000000E+00           0.00000000E+00
  -0.98000000E+00           0.00000000E+00
  -0.97000000E+00           0.00000000E+00
  -0.96000000E+00           0.00000000E+00
  -0.95000000E+00           0.00000000E+00
  -0.94000000E+00           0.00000000E+00
  -0.93000000E+00           0.00000000E+00
  -0.92000000E+00           0.00000000E+00
  -0.91000000E+00           0.00000000E+00
  -0.90000000E+00           0.00000000E+00
  -0.89000000E+00           0.00000000E+00
  -0.88000000E+00           0.00000000E+00
  -0.87000000E+00           0.00000000E+00
  -0.86000000E+00           0.00000000E+00
  -0.85000000E+00           0.00000000E+00
  -0.84000000E+00           0.00000000E+00
  -0.83000000E+00           0.00000000E+00
  -0.82000000E+00           0.00000000E+00
  -0.81000000E+00           0.00000000E+00
  -0.80000000E+00           0.00000000E+00
  -0.79000000E+00           0.00000000E+00
  -0.78000000E+00           0.00000000E+00
  -0.77000000E+00           0.00000000E+00
  -0.76000000E+00           0.00000000E+00
  -0.75000000E+00           0.00000000E+00
  -0.74000000E+00           0.00000000E+00
  -0.73000000E+00           0.00000000E+00
  -0.72000000E+00           0.00000000E+00
  -0.71000000E+00           0.00000000E+00
  -0.70000000E+00           0.00000000E+00
  -0.69000000E+00           0.00000000E+00
  -0.68000000E+00           0.00000000E+00
  -0.67000000E+00           0.00000000E+00
  -0.66000000E+00           0.00000000E+00
  -0.65000000E+00           0.00000000E+00
  -0.64000000E+00           0.00000000E+00
  -0.63000000E+00           0.00000000E+00
  -0.62000000E+00           0.00000000E+00
  -0.61000000E+00           0.00000000E+00
  -0.60000000E+00           0.00000000E+00
  -0.59000000E+00           0.00000000E+00
  -0.58000000E+00           0.00000000E+00
  -0.57000000E+00           0.00000000E+00
  -0.56000000E+00           0.00000000E+00
  -0.55000000E+00           0.00000000E+00
  -0.54000000E+00           0.00000000E+00
  -0.53000000E+00           0.00000000E+00
  -0.52000000E+00           0.00000000E+00
  -0.51000000E+00           0.00000000E+00
  -0.50000000E+00           0.00000000E+00
  -0.49000000E+00           0.00000000E+00
  -0.48000000E+00           0.00000000E+00
  -0.47000000E+00           0.00000000E+00
  -0.46000000E+00           0.00000000E+00
  -0.45000000E+00           0.00000000E+00
  -0.44000000E+00           0.00000000E+00
  -0.43000000E+00           0.00000000E+00
  -0.42000000E+00           0.00000000E+00
  -0.41000000E+00           0.00000000E+00
  -0.40000000E+00           0.00000000E+00
  -0.39000000E+00           0.00000000E+00
  -0.38000000E+00           0.00000000E+00
  -0.37000000E+00           0.00000000E+00
  -0.36000000E+00           0.00000000E+00
  -0.35000000E+00           0.00000000E+00
  -0.34000000E+00           0.00000000E+00
  -0.33000000E+00           0.00000000E+00
  -0.32000000E+00           0.00000000E+00
  -0.31000000E+00           0.00000000E+00
  -0.30000000E+00           0.00000000E+00
  -0.29000000E+00           0.00000000E+00
  -0.28000000E+00           0.00000000E+00
  -0.27000000E+00           0.00000000E+00
  -0.26000000E+00           0.00000000E+00
  -0.25000000E+00           0.00000000E+00
  -0.24000000E+00           0.00000000E+00
  -0.23000000E+00           0.00000000E+00
  -0.22000000E+00           0.00000000E+00
  -0.21000000E+00           0.00000000E+00
  -0.20000000E+00           0.00000000E+00
  -0.19000000E+00           0.00000000E+00
  -0.18000000E+00           0.00000000E+00
  -0.17000000E+00           0.00000000E+00
  -0.16000000E+00           0.00000000E+00
  -0.15000000E+00           0.00000000E+00
  -0.14000000E+00           0.00000000E+00
  -0.13000000E+00           0.00000000E+00
  -0.12000000E+00           0.00000000E+00
  -0.11000000E+00           0.00000000E+00
  -0.10000000E+00           0.00000000E+00
  -0.90000000E-01           0.00000000E+00
  -0.80000000E-01           0.00000000E+00
  -0.70000000E-01           0.00000000E+00
  -0.60000000E-01           0.00000000E+00
  -0.50000000E-01           0.00000000E+00
  -0.40000000E-01           0.00000000E+00
  -0.30000000E-01           0.00000000E+00
  -0.20000000E-01           0.00000000E+00
  -0.10000000E-01           0.00000000E+00
   0.00000000E+00           0.10230313E+00
   0.10000000E-01           0.81857616E+00
   0.20000000E-01           0.16172406E+01
   0.30000000E-01           0.23702826E+01
   0.40000000E-01           0.30759144E+01
   0.50000000E-01           0.37075741E+01
   0.60000000E-01           0.42492306E+01
   0.70000000E-01           0.46981818E+01
   0.80000000E-01           0.50565196E+01
   0.90000000E-01           0.52981201E+01
   0.10000000E+00           0.54522077E+01
   0.11000000E+00           0.55001672E+01
   0.12000000E+00           0.54611119E+01
   0.13000000E+00           0.53423924E+01
   0.14000000E+00           0.51480040E+01
   0.15000000E+00           0.48909604E+01
   0.16000000E+00           0.45918895E+01
   0.17000000E+00           0.42664982E+01
   0.18000000E+00           0.39124694E+01
   0.19000000E+00           0.35470410E+01
   0.20000000E+00           0.31810817E+01
   0.21000000E+00           0.28174771E+01
   0.22000000E+00           0.24743292E+01
   0.23000000E+00           0.21527632E+01
   0.24000000E+00           0.18472295E+01
   0.25000000E+00           0.15759173E+01
   0.26000000E+00           0.13264394E+01
   0.27000000E+00           0.11038302E+01
   0.28000000E+00           0.91362384E+00
   0.29000000E+00           0.74728110E+00
   0.30000000E+00           0.60588547E+00
   0.31000000E+00           0.48670731E+00
   0.32000000E+00           0.38801491E+00
   0.33000000E+00           0.30542118E+00
   0.34000000E+00           0.23873989E+00
   0.35000000E+00           0.18437683E+00
   0.36000000E+00           0.14102830E+00
   0.37000000E+00           0.10777635E+00
   0.38000000E+00           0.80256600E-01
   0.39000000E+00           0.59862108E-01
   0.40000000E+00           0.44315005E-01
   0.41000000E+00           0.32232858E-01
   0.42000000E+00           0.23369516E-01
   0.43000000E+00           0.17038841E-01
   0.44000000E+00           0.11831434E-01
   0.45000000E+00           0.82916429E-02
   0.46000000E+00           0.57109212E-02
   0.47000000E+00           0.40400760E-02
   0.48000000E+00           0.28375119E-02
   0.49000000E+00           0.18617284E-02
   0.50000000E+00           0.13237417E-02
   0.51000000E+00           0.86790123E-03
   0.52000000E+00           0.52421652E-03
   0.53000000E+00           0.35546059E-03
   0.54000000E+00           0.23029440E-03
   0.55000000E+00           0.17198481E-03
   0.56000000E+00           0.97625831E-04
   0.57000000E+00           0.61633428E-04
   0.58000000E+00           0.50522317E-04
   0.59000000E+00           0.24786325E-04
   0.60000000E+00           0.12915480E-04
   0.61000000E+00           0.88319088E-05
   0.62000000E+00           0.53181387E-05
   0.63000000E+00           0.50332384E-05
   0.64000000E+00           0.10446344E-05
   0.65000000E+00           0.94966762E-07
   0.66000000E+00           0.85470085E-06
   0.67000000E+00           0.12345679E-05
   0.68000000E+00           0.00000000E+00
   0.69000000E+00           0.37986705E-06
   0.70000000E+00           0.37986705E-06
   0.71000000E+00           0.00000000E+00
   0.72000000E+00           0.94966762E-07
   0.73000000E+00           0.00000000E+00
   0.74000000E+00           0.00000000E+00
   0.75000000E+00           0.00000000E+00
   0.76000000E+00           0.00000000E+00
   0.77000000E+00           0.00000000E+00
   0.78000000E+00           0.00000000E+00
   0.79000000E+00           0.00000000E+00
   0.80000000E+00           0.00000000E+00
   0.81000000E+00           0.00000000E+00
   0.82000000E+00           0.00000000E+00
   0.83000000E+00           0.00000000E+00
   0.84000000E+00           0.00000000E+00
   0.85000000E+00           0.00000000E+00
   0.86000000E+00           0.00000000E+00
   0.87000000E+00           0.00000000E+00
   0.88000000E+00           0.00000000E+00
   0.89000000E+00           0.00000000E+00
   0.90000000E+00           0.00000000E+00
   0.91000000E+00           0.00000000E+00
   0.92000000E+00           0.00000000E+00
   0.93000000E+00           0.00000000E+00
   0.94000000E+00           0.00000000E+00
   0.95000000E+00           0.00000000E+00
   0.96000000E+00           0.00000000E+00
   0.97000000E+00           0.00000000E+00
   0.98000000E+00           0.00000000E+00
   0.99000000E+00           0.00000000E+00
   0.10000000E+01           0.00000000E+00
   0.10100000E+01           0.00000000E+00
   0.10200000E+01           0.00000000E+00
   0.10300000E+01           0.00000000E+00
   0.10400000E+01           0.00000000E+00
   0.10500000E+01           0.00000000E+00
   0.10600000E+01           0.00000000E+00
   0.10700000E+01           0.00000000E+00
   0.10800000E+01           0.00000000E+00
   0.10900000E+01           0.00000000E+00
   0.11000000E+01           0.00000000E+00
   0.11100000E+01           0.00000000E+00
   0.11200000E+01           0.00000000E+00
   0.11300000E+01           0.00000000E+00
   0.11400000E+01           0.00000000E+00
   0.11500000E+01           0.00000000E+00
   0.11600000E+01           0.00000000E+00
   0.11700000E+01           0.00000000E+00
   0.11800000E+01           0.00000000E+00
   0.11900000E+01           0.00000000E+00
   0.12000000E+01           0.00000000E+00
   0.12100000E+01           0.00000000E+00
   0.12200000E+01           0.00000000E+00
   0.12300000E+01           0.00000000E+00
   0.12400000E+01           0.00000000E+00
   0.12500000E+01           0.00000000E+00
   0.12600000E+01           0.00000000E+00
   0.12700000E+01           0.00000000E+00
   0.12800000E+01           0.00000000E+00
   0.12900000E+01           0.00000000E+00
   0.13000000E+01           0.00000000E+00
   0.13100000E+01           0.00000000E+00
   0.13200000E+01           0.00000000E+00
   0.13300000E+01           0.00000000E+00
   0.13400000E+01           0.00000000E+00
   0.13500000E+01           0.00000000E+00
   0.13600000E+01           0.00000000E+00
   0.13700000E+01           0.00000000E+00
   0.13800000E+01           0.00000000E+00
   0.13900000E+01           0.00000000E+00
   0.14000000E+01           0.00000000E+00
   0.14100000E+01           0.00000000E+00
   0.14200000E+01           0.00000000E+00
   0.14300000E+01           0.00000000E+00
   0.14400000E+01           0.00000000E+00
   0.14500000E+01           0.00000000E+00
   0.14600000E+01           0.00000000E+00
   0.14700000E+01           0.00000000E+00
   0.14800000E+01           0.00000000E+00
   0.14900000E+01           0.00000000E+00
   0.15000000E+01           0.00000000E+00
   0.15100000E+01           0.00000000E+00
   0.15200000E+01           0.00000000E+00
   0.15300000E+01           0.00000000E+00
   0.15400000E+01           0.00000000E+00
   0.15500000E+01           0.00000000E+00
   0.15600000E+01           0.00000000E+00
   0.15700000E+01           0.00000000E+00
   0.15800000E+01           0.00000000E+00
   0.15900000E+01           0.00000000E+00
   0.16000000E+01           0.00000000E+00
   0.16100000E+01           0.00000000E+00
   0.16200000E+01           0.00000000E+00
   0.16300000E+01           0.00000000E+00
   0.16400000E+01           0.00000000E+00
   0.16500000E+01           0.00000000E+00
   0.16600000E+01           0.00000000E+00
   0.16700000E+01           0.00000000E+00
   0.16800000E+01           0.00000000E+00
   0.16900000E+01           0.00000000E+00
   0.17000000E+01           0.00000000E+00
   0.17100000E+01           0.00000000E+00
   0.17200000E+01           0.00000000E+00
   0.17300000E+01           0.00000000E+00
   0.17400000E+01           0.00000000E+00
   0.17500000E+01           0.00000000E+00
   0.17600000E+01           0.00000000E+00
   0.17700000E+01           0.00000000E+00
   0.17800000E+01           0.00000000E+00
   0.17900000E+01           0.00000000E+00
   0.18000000E+01           0.00000000E+00
   0.18100000E+01           0.00000000E+00
   0.18200000E+01           0.00000000E+00
   0.18300000E+01           0.00000000E+00
   0.18400000E+01           0.00000000E+00
   0.18500000E+01           0.00000000E+00
   0.18600000E+01           0.00000000E+00
   0.18700000E+01           0.00000000E+00
   0.18800000E+01           0.00000000E+00
   0.18900000E+01           0.00000000E+00
   0.19000000E+01           0.00000000E+00
   0.19100000E+01           0.00000000E+00
   0.19200000E+01           0.00000000E+00
   0.19300000E+01           0.00000000E+00
   0.19400000E+01           0.00000000E+00
   0.19500000E+01           0.00000000E+00
   0.19600000E+01           0.00000000E+00
   0.19700000E+01           0.00000000E+00
   0.19800000E+01           0.00000000E+00
   0.19900000E+01           0.00000000E+00
   0.20000000E+01           0.00000000E+00
 #T=     2.0000
  -0.20000000E+01           0.00000000E+00
  -0.19900000E+01           0.00000000E+00
  -0.19800000E+01           0.00000000E+00
  -0.19700000E+01           0.00000000E+00
  -0.19600000E+01           0.00000000E+00
  -0.19500000E+01           0.00000000E+00
  -0.19400000E+01           0.00000000E+00
  -0.19300000E+01           0.00000000E+00
  -0.19200000E+01           0.00000000E+00
  -0.19100000E+01           0.00000000E+00
  -0.19000000E+01           0.00000000E+00
  -0.18900000E+01           0.00000000E+00
  -0.18800000E+01           0.00000000E+00
  -0.18700000E+01           0.00000000E+00
  -0.18600000E+01           0.00000000E+00
  -0.18500000E+01           0.00000000E+00
  -0.18400000E+01           0.00000000E+00
  -0.18300000E+01           0.00000000E+00
  -0.18200000E+01           0.00000000E+00
  -0.18100000E+01           0.00000000E+00
  -0.18000000E+01           0.00000000E+00
  -0.17900000E+01           0.00000000E+00
  -0.17800000E+01           0.00000000E+00
  -0.17700000E+01           0.00000000E+00
  -0.17600000E+01           0.00000000E+00
  -0.17500000E+01           0.00000000E+00
  -0.17400000E+01           0.00000000E+00
  -0.17300000E+01           0.00000000E+00
  -0.17200000E+01           0.00000000E+00
  -0.17100000E+01           0.00000000E+00
  -0.17000000E+01           0.00000000E+00
  -0.16900000E+01           0.00000000E+00
  -0.16800000E+01           0.00000000E+00
  -0.16700000E+01           0.00000000E+00
  -0.16600000E+01           0.00000000E+00
  -0.16500000E+01           0.00000000E+00
  -0.16400000E+01           0.00000000E+00
  -0.16300000E+01           0.00000000E+00
  -0.16200000E+01           0.00000000E+00
  -0.16100000E+01           0.00000000E+00
  -0.16000000E+01           0.00000000E+00
  -0.15900000E+01           0.00000000E+00
  -0.15800000E+01           0.00000000E+00
  -0.15700000E+01           0.00000000E+00
  -0.15600000E+01           0.00000000E+00
  -0.15500000E+01           0.00000000E+00
  -0.15400000E+01           0.00000000E+00
  -0.15300000E+01           0.00000000E+00
  -0.15200000E+01           0.00000000E+00
  -0.15100000E+01           0.00000000E+00
  -0.15000000E+01           0.00000000E+00
  -0.14900000E+01           0.00000000E+00
  -0.14800000E+01           0.00000000E+00
  -0.14700000E+01           0.00000000E+00
  -0.14600000E+01           0.00000000E+00
  -0.14500000E+01           0.00000000E+00
  -0.14400000E+01           0.00000000E+00
  -0.14300000E+01           0.00000000E+00
  -0.14200000E+01           0.00000000E+00
  -0.14100000E+01           0.00000000E+00
  -0.14000000E+01           0.00000000E+00
  -0.13900000E+01           0.00000000E+00
  -0.13800000E+01           0.00000000E+00
  -0.13700000E+01           0.00000000E+00
  -0.13600000E+01           0.00000000E+00
  -0.13500000E+01           0.00000000E+00
  -0.13400000E+01           0.00000000E+00
  -0.13300000E+01           0.00000000E+00
  -0.13200000E+01           0.00000000E+00
  -0.13100000E+01           0.00000000E+00
  -0.13000000E+01           0.00000000E+00
  -0.12900000E+01           0.00000000E+00
  -0.12800000E+01           0.00000000E+00
  -0.12700000E+01           0.00000000E+00
  -0.12600000E+01           0.00000000E+00
  -0.12500000E+01           0.00000000E+00
  -0.12400000E+01           0.00000000E+00
  -0.12300000E+01           0.00000000E+00
  -0.12200000E+01           0.00000000E+00
  -0.12100000E+01           0.00000000E+00
  -0.12000000E+01           0.00000000E+00
  -0.11900000E+01           0.00000000E+00
  -0.11800000E+01           0.00000000E+00
  -0.11700000E+01           0.00000000E+00
  -0.11600000E+01           0.00000000E+00
  -0.11500000E+01           0.00000000E+00
  -0.11400000E+01           0.00000000E+00
  -0.11300000E+01           0.00000000E+00
  -0.11200000E+01           0.00000000E+00
  -0.11100000E+01           0.00000000E+00
  -0.11000000E+01           0.00000000E+00
  -0.10900000E+01           0.00000000E+00
  -0.10800000E+01           0.00000000E+00
  -0.10700000E+01           0.00000000E+00
  -0.10600000E+01           0.00000000E+00
  -0.10500000E+01           0.00000000E+00
  -0.10400000E+01           0.00000000E+00
  -0.10300000E+01           0.00000000E+00
  -0.10200000E+01           0.00000000E+00
  -0.10100000E+01           0.00000000E+00
  -0.10000000E+01           0.00000000E+00
  -0.99000000E+00           0.00000000E+00
  -0.98000000E+00           0.00000000E+00
  -0.97000000E+00           0.00000000E+00
  -0.96000000E+00           0.00000000E+00
  -0.95000000E+00           0.00000000E+00
  -0.94000000E+00           0.00000000E+00
  -0.93000000E+00           0.00000000E+00
  -0.92000000E+00           0.00000000E+00
  -0.91000000E+00           0.00000000E+00
  -0.90000000E+00           0.00000000E+00
  -0.89000000E+00           0.00000000E+00
  -0.88000000E+00           0.00000000E+00
  -0.87000000E+00           0.00000000E+00
  -0.86000000E+00           0.00000000E+00
  -0.85000000E+00           0.00000000E+00
  -0.84000000E+00           0.00000000E+00
  -0.83000000E+00           0.00000000E+00
  -0.82000000E+00           0.00000000E+00
  -0.81000000E+00           0.00000000E+00
  -0.80000000E+00           0.00000000E+00
  -0.79000000E+00           0.00000000E+00
  -0.78000000E+00           0.00000000E+00
  -0.77000000E+00           0.00000000E+00
  -0.76000000E+00           0.00000000E+00
  -0.75000000E+00           0.00000000E+00
  -0.74000000E+00           0.00000000E+00
  -0.73000000E+00           0.00000000E+00
  -0.72000000E+00           0.00000000E+00
  -0.71000000E+00           0.00000000E+00
  -0.70000000E+00           0.00000000E+00
  -0.69000000E+00           0.00000000E+00
  -0.68000000E+00           0.00000000E+00
  -0.67000000E+00           0.00000000E+00
  -0.66000000E+00           0.00000000E+00
  -0.65000000E+00           0.00000000E+00
  -0.64000000E+00           0.00000000E+00
  -0.63000000E+00           0.00000000E+00
  -0.62000000E+00           0.00000000E+00
  -0.61000000E+00           0.00000000E+00
  -0.60000000E+00           0.00000000E+00
  -0.59000000E+00           0.00000000E+00
  -0.58000000E+00           0.00000000E+00
  -0.57000000E+00           0.00000000E+00
  -0.56000000E+00           0.00000000E+00
  -0.55000000E+00           0.00000000E+00
  -0.54000000E+00           0.00000000E+00
  -0.53000000E+00           0.00000000E+00
  -0.52000000E+00           0.00000000E+00
  -0.51000000E+00           0.00000000E+00
  -0.50000000E+00           0.00000000E+00
  -0.49000000E+00           0.00000000E+00
  -0.48000000E+00           0.00000000E+00
  -0.47000000E+00           0.00000000E+00
  -0.46000000E+00           0.00000000E+00
  -0.45000000E+00           0.00000000E+00
  -0.44000000E+00           0.00000000E+00
  -0.43000000E+00           0.00000000E+00
  -0.42000000E+00           0.00000000E+00
  -0.41000000E+00           0.00000000E+00
  -0.40000000E+00           0.00000000E+00
  -0.39000000E+00           0.00000000E+00
  -0.38000000E+00           0.00000000E+00
  -0.37000000E+00           0.00000000E+00
  -0.36000000E+00           0.00000000E+00
  -0.35000000E+00           0.00000000E+00
  -0.34000000E+00           0.00000000E+00
  -0.33000000E+00           0.00000000E+00
  -0.32000000E+00           0.00000000E+00
  -0.31000000E+00           0.00000000E+00
  -0.30000000E+00           0.00000000E+00
  -0.29000000E+00           0.00000000E+00
  -0.28000000E+00           0.00000000E+00
  -0.27000000E+00           0.00000000E+00
  -0.26000000E+00           0.00000000E+00
  -0.25000000E+00           0.00000000E+00
  -0.24000000E+00           0.00000000E+00
  -0.23000000E+00           0.00000000E+00
  -0.22000000E+00           0.00000000E+00
  -0.21000000E+00           0.00000000E+00
  -0.20000000E+00           0.00000000E+00
  -0.19000000E+00           0.00000000E+00
  -0.18000000E+00           0.00000000E+00
  -0.17000000E+00           0.00000000E+00
  -0.16000000E+00           0.00000000E+00
  -0.15000000E+00           0.00000000E+00
  -0.14000000E+00           0.00000000E+00
  -0.13000000E+00           0.00000000E+00
  -0.12000000E+00           0.00000000E+00
  -0.11000000E+00           0.00000000E+00
  -0.10000000E+00           0.00000000E+00
  -0.90000000E-01           0.00000000E+00
  -0.80000000E-01           0.00000000E+00
  -0.70000000E-01           0.00000000E+00
  -0.60000000E-01           0.00000000E+00
  -0.50000000E-01           0.00000000E+00
  -0.40000000E-01           0.00000000E+00
  -0.30000000E-01           0.00000000E+00
  -0.20000000E-01           0.00000000E+00
  -0.10000000E-01           0.00000000E+00
   0.00000000E+00           0.51073789E-01
   0.10000000E-01           0.40666401E+00
   0.20000000E-01           0.81043989E+00
   0.30000000E-01           0.12026107E+01
   0.40000000E-01           0.15796819E+01
   0.50000000E-01           0.19394211E+01
   0.60000000E-01           0.22743347E+01
   0.70000000E-01           0.25856149E+01
   0.80000000E-01           0.28656205E+01
   0.90000000E-01           0.31139780E+01
   0.10000000E+00           0.33344945E+01
   0.11000000E+00           0.35175597E+01
   0.12000000E+00           0.36550444E+01
   0.13000000E+00           0.37680968E+01
   0.14000000E+00           0.38416935E+01
   0.15000000E+00           0.38732198E+01
   0.16000000E+00           0.38804844E+01
   0.17000000E+00           0.38566098E+01
   0.18000000E+00           0.38024308E+01
   0.19000000E+00           0.37190376E+01
   0.20000000E+00           0.36202040E+01
   0.21000000E+00           0.34950367E+01
   0.22000000E+00           0.33555287E+01
   0.23000000E+00           0.31973646E+01
   0.24000000E+00           0.30339383E+01
   0.25000000E+00           0.28567867E+01
   0.26000000E+00           0.26752663E+01
   0.27000000E+00           0.24922213E+01
   0.28000000E+00           0.23072889E+01
   0.29000000E+00           0.21312309E+01
   0.30000000E+00           0.19533505E+01
   0.31000000E+00           0.17775338E+01
   0.32000000E+00           0.16157859E+01
   0.33000000E+00           0.14565946E+01
   0.34000000E+00           0.13068302E+01
   0.35000000E+00           0.11674153E+01
   0.36000000E+00           0.10372617E+01
   0.37000000E+00           0.91524264E+00
   0.38000000E+00           0.80757911E+00
   0.39000000E+00           0.70781842E+00
   0.40000000E+00           0.61353989E+00
   0.41000000E+00           0.53358699E+00
   0.42000000E+00           0.45998822E+00
   0.43000000E+00           0.39496800E+00
   0.44000000E+00           0.33747417E+00
   0.45000000E+00           0.28670912E+00
   0.46000000E+00           0.24221880E+00
   0.47000000E+00           0.20457104E+00
   0.48000000E+00           0.17083580E+00
   0.49000000E+00           0.14232213E+00
   0.50000000E+00           0.11852944E+00
   0.51000000E+00           0.97565622E-01
   0.52000000E+00           0.80444065E-01
   0.53000000E+00           0.65663153E-01
   0.54000000E+00           0.53472745E-01
   0.55000000E+00           0.43439981E-01
   0.56000000E+00           0.34959639E-01
   0.57000000E+00           0.28203039E-01
   0.58000000E+00           0.22478443E-01
   0.59000000E+00           0.17784710E-01
   0.60000000E+00           0.14059259E-01
   0.61000000E+00           0.11241311E-01
   0.62000000E+00           0.85377968E-02
   0.63000000E+00           0.68919278E-02
   0.64000000E+00           0.53088319E-02
   0.65000000E+00           0.40382716E-02
   0.66000000E+00           0.31437797E-02
   0.67000000E+00           0.24113010E-02
   0.68000000E+00           0.18081671E-02
   0.69000000E+00           0.14185185E-02
   0.70000000E+00           0.10397911E-02
   0.71000000E+00           0.77682811E-03
   0.72000000E+00           0.57768281E-03
   0.73000000E+00           0.41405508E-03
   0.74000000E+00           0.31471985E-03
   0.75000000E+00           0.24966762E-03
   0.76000000E+00           0.16761633E-03
   0.77000000E+00           0.13931624E-03
   0.78000000E+00           0.10066477E-03
   0.79000000E+00           0.63247863E-04
   0.80000000E+00           0.48622982E-04
   0.81000000E+00           0.33143400E-04
   0.82000000E+00           0.23646724E-04
   0.83000000E+00           0.16524217E-04
   0.84000000E+00           0.10731244E-04
   0.85000000E+00           0.77872745E-05
   0.86000000E+00           0.30389364E-05
   0.87000000E+00           0.43684710E-05
   0.88000000E+00           0.21842355E-05
   0.89000000E+00           0.66476733E-06
   0.90000000E+00           0.66476733E-06
   0.91000000E+00           0.85470085E-06
   0.92000000E+00           0.56980057E-06
   0.93000000E+00           0.18993352E-06
   0.94000000E+00           0.00000000E+00
   0.95000000E+00           0.94966762E-07
   0.96000000E+00           0.00000000E+00
   0.97000000E+00           0.00000000E+00
   0.98000000E+00           0.00000000E+00
   0.99000000E+00           0.00000000E+00
   0.10000000E+01           0.00000000E+00
   0.10100000E+01           0.00000000E+00
   0.10200000E+01           0.00000000E+00
   0.10300000E+01           0.00000000E+00
   0.10400000E+01           0.00000000E+00
   0.10500000E+01           0.00000000E+00
   0.10600000E+01           0.00000000E+00
   0.10700000E+01           0.00000000E+00
   0.10800000E+01           0.00000000E+00
   0.10900000E+01           0.00000000E+00
   0.11000000E+01           0.00000000E+00
   0.11100000E+01           0.00000000E+00
   0.11200000E+01           0.00000000E+00
   0.11300000E+01           0.00000000E+00
   0.11400000E+01           0.00000000E+00
   0.11500000E+01           0.00000000E+00
   0.11600000E+01           0.00000000E+00
   0.11700000E+01           0.00000000E+00
   0.11800000E+01           0.00000000E+00
   0.11900000E+01           0.00000000E+00
   0.12000000E+01           0.00000000E+00
   0.12100000E+01           0.00000000E+00
   0.12200000E+01           0.00000000E+00
   0.12300000E+01           0.00000000E+00
   0.12400000E+01           0.00000000E+00
   0.12500000E+01           0.00000000E+00
   0.12600000E+01           0.00000000E+00
   0.12700000E+01           0.00000000E+00
   0.12800000E+01           0.00000000E+00
   0.12900000E+01           0.00000000E+00
   0.13000000E+01           0.00000000E+00
   0.13100000E+01           0.00000000E+00
   0.13200000E+01           0.00000000E+00
   0.13300000E+01           0.00000000E+00
   0.13400000E+01           0.00000000E+00
   0.13500000E+01           0.00000000E+00
   0.13600000E+01           0.00000000E+00
   0.13700000E+01           0.00000000E+00
   0.13800000E+01           0.00000000E+00
   0.13900000E+01           0.00000000E+00
   0.14000000E+01           0.00000000E+00
   0.14100000E+01           0.00000000E+00
   0.14200000E+01           0.00000000E+00
   0.14300000E+01           0.00000000E+00
   0.14400000E+01           0.00000000E+00
   0.14500000E+01           0.00000000E+00
   0.14600000E+01           0.00000000E+00
   0.14700000E+01           0.00000000E+00
   0.14800000E+01           0.00000000E+00
   0.14900000E+01           0.00000000E+00
   0.15000000E+01           0.00000000E+00
   0.15100000E+01           0.00000000E+00
   0.15200000E+01           0.00000000E+00
   0.15300000E+01           0.00000000E+00
   0.15400000E+01           0.00000000E+00
   0.15500000E+01           0.00000000E+00
   0.15600000E+01           0.00000000E+00
   0.15700000E+01           0.00000000E+00
   0.15800000E+01           0.00000000E+00
   0.15900000E+01           0.00000000E+00
   0.16000000E+01           0.00000000E+00
   0.16100000E+01           0.00000000E+00
   0.16200000E+01           0.00000000E+00
   0.16300000E+01           0.00000000E+00
   0.16400000E+01           0.00000000E+00
   0.16500000E+01           0.00000000E+00
   0.16600000E+01           0.00000000E+00
   0.16700000E+01           0.00000000E+00
   0.16800000E+01           0.00000000E+00
   0.16900000E+01           0.00000000E+00
   0.17000000E+01           0.00000000E+00
   0.17100000E+01           0.00000000E+00
   0.17200000E+01           0.00000000E+00
   0.17300000E+01           0.00000000E+00
   0.17400000E+01           0.00000000E+00
   0.17500000E+01           0.00000000E+00
   0.17600000E+01           0.00000000E+00
   0.17700000E+01           0.00000000E+00
   0.17800000E+01           0.00000000E+00
   0.17900000E+01           0.00000000E+00
   0.18000000E+01           0.00000000E+00
   0.18100000E+01           0.00000000E+00
   0.18200000E+01           0.00000000E+00
   0.18300000E+01           0.00000000E+00
   0.18400000E+01           0.00000000E+00
   0.18500000E+01           0.00000000E+00
   0.18600000E+01           0.00000000E+00
   0.18700000E+01           0.00000000E+00
   0.18800000E+01           0.00000000E+00
   0.18900000E+01           0.00000000E+00
   0.19000000E+01           0.00000000E+00
   0.19100000E+01           0.00000000E+00
   0.19200000E+01           0.00000000E+00
   0.19300000E+01           0.00000000E+00
   0.19400000E+01           0.00000000E+00
   0.19500000E+01           0.00000000E+00
   0.19600000E+01           0.00000000E+00
   0.19700000E+01           0.00000000E+00
   0.19800000E+01           0.00000000E+00
   0.19900000E+01           0.00000000E+00
   0.20000000E+01           0.00000000E+00
 #T=     3.0000
  -0.20000000E+01           0.00000000E+00
  -0.19900000E+01           0.00000000E+00
  -0.19800000E+01           0.00000000E+00
  -0.19700000E+01           0.00000000E+00
  -0.19600000E+01           0.00000000E+00
  -0.19500000E+01           0.00000000E+00
  -0.19400000E+01           0.00000000E+00
  -0.19300000E+01           0.00000000E+00
  -0.19200000E+01           0.00000000E+00
  -0.19100000E+01           0.00000000E+00
  -0.19000000E+01           0.00000000E+00
  -0.18900000E+01           0.00000000E+00
  -0.18800000E+01           0.00000000E+00
  -0.18700000E+01           0.00000000E+00
  -0.18600000E+01           0.00000000E+00
  -0.18500000E+01           0.00000000E+00
  -0.18400000E+01           0.00000000E+00
  -0.18300000E+01           0.00000000E+00
  -0.18200000E+01           0.00000000E+00
  -0.18100000E+01           0.00000000E+00
  -0.18000000E+01           0.00000000E+00
  -0.17900000E+01           0.00000000E+00
  -0.17800000E+01           0.00000000E+00
  -0.17700000E+01           0.00000000E+00
  -0.17600000E+01           0.00000000E+00
  -0.17500000E+01           0.00000000E+00
  -0.17400000E+01           0.00000000E+00
  -0.17300000E+01           0.00000000E+00
  -0.17200000E+01           0.00000000E+00
  -0.17100000E+01           0.00000000E+00
  -0.17000000E+01           0.00000000E+00
  -0.16900000E+01           0.00000000E+00
  -0.16800000E+01           0.00000000E+00
  -0.16700000E+01           0.00000000E+00
  -0.16600000E+01           0.00000000E+00
  -0.16500000E+01           0.00000000E+00
  -0.16400000E+01           0.00000000E+00
  -0.16300000E+01           0.00000000E+00
  -0.16200000E+01           0.00000000E+00
  -0.16100000E+01           0.00000000E+00
  -0.16000000E+01           0.00000000E+00
  -0.15900000E+01           0.00000000E+00
  -0.15800000E+01           0.00000000E+00
  -0.15700000E+01           0.00000000E+00
  -0.15600000E+01           0.00000000E+00
  -0.15500000E+01           0.00000000E+00
  -0.15400000E+01           0.00000000E+00
  -0.15300000E+01           0.00000000E+00
  -0.15200000E+01           0.00000000E+00
  -0.15100000E+01           0.00000000E+00
  -0.15000000E+01           0.00000000E+00
  -0.14900000E+01           0.00000000E+00
  -0.14800000E+01           0.00000000E+00
  -0.14700000E+01           0.00000000E+00
  -0.14600000E+01           0.00000000E+00
  -0.14500000E+01           0.00000000E+00
  -0.14400000E+01           0.00000000E+00
  -0.14300000E+01           0.00000000E+00
  -0.14200000E+01           0.00000000E+00
  -0.14100000E+01           0.00000000E+00
  -0.14000000E+01           0.00000000E+00
  -0.13900000E+01           0.00000000E+00
  -0.13800000E+01           0.00000000E+00
  -0.13700000E+01           0.00000000E+00
  -0.13600000E+01           0.00000000E+00
  -0.13500000E+01           0.00000000E+00
  -0.13400000E+01           0.00000000E+00
  -0.13300000E+01           0.00000000E+00
  -0.13200000E+01           0.00000000E+00
  -0.13100000E+01           0.00000000E+00
  -0.13000000E+01           0.00000000E+00
  -0.12900000E+01           0.00000000E+00
  -0.12800000E+01           0.00000000E+00
  -0.12700000E+01           0.00000000E+00
  -0.12600000E+01           0.00000000E+00
  -0.12500000E+01           0.00000000E+00
  -0.12400000E+01           0.00000000E+00
  -0.12300000E+01           0.00000000E+00
  -0.12200000E+01           0.00000000E+00
  -0.12100000E+01           0.00000000E+00
  -0.12000000E+01           0.00000000E+00
  -0.11900000E+01           0.00000000E+00
  -0.11800000E+01           0.00000000E+00
  -0.11700000E+01           0.00000000E+00
  -0.11600000E+01           0.00000000E+00
  -0.11500000E+01           0.00000000E+00
  -0.11400000E+01           0.00000000E+00
  -0.11300000E+01           0.00000000E+00
  -0.11200000E+01           0.00000000E+00
  -0.11100000E+01           0.00000000E+00
  -0.11000000E+01           0.00000000E+00
  -0.10900000E+01           0.00000000E+00
  -0.10800000E+01           0.00000000E+00
  -0.10700000E+01           0.00000000E+00
  -0.10600000E+01           0.00000000E+00
  -0.10500000E+01           0.00000000E+00
  -0.10400000E+01           0.00000000E+00
  -0.10300000E+01           0.00000000E+00
  -0.10200000E+01           0.00000000E+00
  -0.10100000E+01           0.00000000E+00
  -0.10000000E+01           0.00000000E+00
  -0.99000000E+00           0.00000000E+00
  -0.98000000E+00           0.00000000E+00
  -0.97000000E+00           0.00000000E+00
  -0.96000000E+00           0.00000000E+00
  -0.95000000E+00           0.00000000E+00
  -0.94000000E+00           0.00000000E+00
  -0.93000000E+00           0.00000000E+00
  -0.92000000E+00           0.00000000E+00
  -0.91000000E+00           0.00000000E+00
  -0.90000000E+00           0.00000000E+00
  -0.89000000E+00           0.00000000E+00
  -0.88000000E+00           0.00000000E+00
  -0.87000000E+00           0.00000000E+00
  -0.86000000E+00           0.00000000E+00
  -0.85000000E+00           0.00000000E+00
  -0.84000000E+00           0.00000000E+00
  -0.83000000E+00           0.00000000E+00
  -0.82000000E+00           0.00000000E+00
  -0.81000000E+00           0.00000000E+00
  -0.80000000E+00           0.00000000E+00
  -0.79000000E+00           0.00000000E+00
  -0.78000000E+00           0.00000000E+00
  -0.77000000E+00           0.00000000E+00
  -0.76000000E+00           0.00000000E+00
  -0.75000000E+00           0.00000000E+00
  -0.74000000E+00           0.00000000E+00
  -0.73000000E+00           0.00000000E+00
  -0.72000000E+00           0.00000000E+00
  -0.71000000E+00           0.00000000E+00
  -0.70000000E+00           0.00000000E+00
  -0.69000000E+00           0.00000000E+00
  -0.68000000E+00           0.00000000E+00
  -0.67000000E+00           0.00000000E+00
  -0.66000000E+00           0.00000000E+00
  -0.65000000E+00           0.00000000E+00
  -0.64000000E+00           0.00000000E+00
  -0.63000000E+00           0.00000000E+00
  -0.62000000E+00           0.00000000E+00
  -0.61000000E+00           0.00000000E+00
  -0.60000000E+00           0.00000000E+00
  -0.59000000E+00           0.00000000E+00
  -0.58000000E+00           0.00000000E+00
  -0.57000000E+00           0.00000000E+00
  -0.56000000E+00           0.00000000E+00
  -0.55000000E+00           0.00000000E+00
  -0.54000000E+00           0.00000000E+00
  -0.53000000E+00           0.00000000E+00
  -0.52000000E+00           0.00000000E+00
  -0.51000000E+00           0.00000000E+00
  -0.50000000E+00           0.00000000E+00
  -0.49000000E+00           0.00000000E+00
  -0.48000000E+00           0.00000000E+00
  -0.47000000E+00           0.00000000E+00
  -0.46000000E+00           0.00000000E+00
  -0.45000000E+00           0.00000000E+00
  -0.44000000E+00           0.00000000E+00
  -0.43000000E+00           0.00000000E+00
  -0.42000000E+00           0.00000000E+00
  -0.41000000E+00           0.00000000E+00
  -0.40000000E+00           0.00000000E+00
  -0.39000000E+00           0.00000000E+00
  -0.38000000E+00           0.00000000E+00
  -0.37000000E+00           0.00000000E+00
  -0.36000000E+00           0.00000000E+00
  -0.35000000E+00           0.00000000E+00
  -0.34000000E+00           0.00000000E+00
  -0.33000000E+00           0.00000000E+00
  -0.32000000E+00           0.00000000E+00
  -0.31000000E+00           0.00000000E+00
  -0.30000000E+00           0.00000000E+00
  -0.29000000E+00           0.00000000E+00
  -0.28000000E+00           0.00000000E+00
  -0.27000000E+00           0.00000000E+00
  -0.26000000E+00           0.00000000E+00
  -0.25000000E+00           0.00000000E+00
  -0.24000000E+00           0.00000000E+00
  -0.23000000E+00           0.00000000E+00
  -0.22000000E+00           0.00000000E+00
  -0.21000000E+00           0.00000000E+00
  -0.20000000E+00           0.00000000E+00
  -0.19000000E+00           0.00000000E+00
  -0.18000000E+00           0.00000000E+00
  -0.17000000E+00           0.00000000E+00
  -0.16000000E+00           0.00000000E+00
  -0.15000000E+00           0.00000000E+00
  -0.14000000E+00           0.00000000E+00
  -0.13000000E+00           0.00000000E+00
  -0.12000000E+00           0.00000000E+00
  -0.11000000E+00           0.00000000E+00
  -0.10000000E+00           0.00000000E+00
  -0.90000000E-01           0.00000000E+00
  -0.80000000E-01           0.00000000E+00
  -0.70000000E-01           0.00000000E+00
  -0.60000000E-01           0.00000000E+00
  -0.50000000E-01           0.00000000E+00
  -0.40000000E-01           0.00000000E+00
  -0.30000000E-01           0.00000000E+00
  -0.20000000E-01           0.00000000E+00
  -0.10000000E-01           0.00000000E+00
   0.00000000E+00           0.33986230E-01
   0.10000000E-01           0.26982336E+00
   0.20000000E-01           0.53814198E+00
   0.30000000E-01           0.80517607E+00
   0.40000000E-01           0.10604892E+01
   0.50000000E-01           0.13088181E+01
   0.60000000E-01           0.15466219E+01
   0.70000000E-01           0.17771258E+01
   0.80000000E-01           0.19891111E+01
   0.90000000E-01           0.21845619E+01
   0.10000000E+00           0.23670630E+01
   0.11000000E+00           0.25307104E+01
   0.12000000E+00           0.26764007E+01
   0.13000000E+00           0.28064683E+01
   0.14000000E+00           0.29088589E+01
   0.15000000E+00           0.30008938E+01
   0.16000000E+00           0.30687028E+01
   0.17000000E+00           0.31201606E+01
   0.18000000E+00           0.31501198E+01
   0.19000000E+00           0.31679596E+01
   0.20000000E+00           0.31646696E+01
   0.21000000E+00           0.31404586E+01
   0.22000000E+00           0.31029034E+01
   0.23000000E+00           0.30545391E+01
   0.24000000E+00           0.29924014E+01
   0.25000000E+00           0.29178618E+01
   0.26000000E+00           0.28292245E+01
   0.27000000E+00           0.27345701E+01
   0.28000000E+00           0.26309481E+01
   0.29000000E+00           0.25234662E+01
   0.30000000E+00           0.24100182E+01
   0.31000000E+00           0.22941109E+01
   0.32000000E+00           0.21728459E+01
   0.33000000E+00           0.20511374E+01
   0.34000000E+00           0.19283384E+01
   0.35000000E+00           0.18090097E+01
   0.36000000E+00           0.16878377E+01
   0.37000000E+00           0.15704429E+01
   0.38000000E+00           0.14569735E+01
   0.39000000E+00           0.13452714E+01
   0.40000000E+00           0.12393649E+01
   0.41000000E+00           0.11374224E+01
   0.42000000E+00           0.10388349E+01
   0.43000000E+00           0.94625926E+00
   0.44000000E+00           0.85987085E+00
   0.45000000E+00           0.77826610E+00
   0.46000000E+00           0.70387350E+00
   0.47000000E+00           0.63158139E+00
   0.48000000E+00           0.56559430E+00
   0.49000000E+00           0.50633789E+00
   0.50000000E+00           0.44991254E+00
   0.51000000E+00           0.39926448E+00
   0.52000000E+00           0.35375223E+00
   0.53000000E+00           0.31103561E+00
   0.54000000E+00           0.27324900E+00
   0.55000000E+00           0.23921121E+00
   0.56000000E+00           0.20884036E+00
   0.57000000E+00           0.18150123E+00
   0.58000000E+00           0.15758604E+00
   0.59000000E+00           0.13632963E+00
   0.60000000E+00           0.11709791E+00
   0.61000000E+00           0.10046933E+00
   0.62000000E+00           0.86086990E-01
   0.63000000E+00           0.73662678E-01
   0.64000000E+00           0.62558689E-01
   0.65000000E+00           0.52972934E-01
   0.66000000E+00           0.44620988E-01
   0.67000000E+00           0.37513580E-01
   0.68000000E+00           0.31397531E-01
   0.69000000E+00           0.26249858E-01
   0.70000000E+00           0.21992498E-01
   0.71000000E+00           0.18335802E-01
   0.72000000E+00           0.15054036E-01
   0.73000000E+00           0.12387559E-01
   0.74000000E+00           0.10301519E-01
   0.75000000E+00           0.83737892E-02
   0.76000000E+00           0.68490028E-02
   0.77000000E+00           0.55582146E-02
   0.78000000E+00           0.45301994E-02
   0.79000000E+00           0.36469136E-02
   0.80000000E+00           0.29091168E-02
   0.81000000E+00           0.23703704E-02
   0.82000000E+00           0.18675214E-02
   0.83000000E+00           0.14786325E-02
   0.84000000E+00           0.11702754E-02
   0.85000000E+00           0.93048433E-03
   0.86000000E+00           0.74710351E-03
   0.87000000E+00           0.58727445E-03
   0.88000000E+00           0.45792972E-03
   0.89000000E+00           0.35897436E-03
   0.90000000E+00           0.25878443E-03
   0.91000000E+00           0.21433998E-03
   0.92000000E+00           0.15954416E-03
   0.93000000E+00           0.11937322E-03
   0.94000000E+00           0.10446344E-03
   0.95000000E+00           0.71320038E-04
   0.96000000E+00           0.56315290E-04
   0.97000000E+00           0.45963913E-04
   0.98000000E+00           0.33238367E-04
   0.99000000E+00           0.20607787E-04
   0.10000000E+01           0.20227920E-04
   0.10100000E+01           0.12345679E-04
   0.10200000E+01           0.88319088E-05
   0.10300000E+01           0.82621083E-05
   0.10400000E+01           0.52231719E-05
   0.10500000E+01           0.38936372E-05
   0.10600000E+01           0.29439696E-05
   0.10700000E+01           0.22792023E-05
   0.10800000E+01           0.85470085E-06
   0.10900000E+01           0.10446344E-05
   0.11000000E+01           0.28490028E-06
   0.11100000E+01           0.66476733E-06
   0.11200000E+01           0.94966762E-07
   0.11300000E+01           0.37986705E-06
   0.11400000E+01           0.94966762E-07
   0.11500000E+01           0.94966762E-07
   0.11600000E+01           0.94966762E-07
   0.11700000E+01           0.00000000E+00
   0.11800000E+01           0.00000000E+00
   0.11900000E+01           0.00000000E+00
   0.12000000E+01           0.18993352E-06
   0.12100000E+01           0.00000000E+00
   0.12200000E+01           0.94966762E-07
   0.12300000E+01           0.00000000E+00
   0.12400000E+01           0.00000000E+00
   0.12500000E+01           0.00000000E+00
   0.12600000E+01           0.00000000E+00
   0.12700000E+01           0.00000000E+00
   0.12800000E+01           0.00000000E+00
   0.12900000E+01           0.00000000E+00
   0.13000000E+01           0.00000000E+00
   0.13100000E+01           0.94966762E-07
   0.13200000E+01           0.00000000E+00
   0.13300000E+01           0.00000000E+00
   0.13400000E+01           0.00000000E+00
   0.13500000E+01           0.00000000E+00
   0.13600000E+01           0.00000000E+00
   0.13700000E+01           0.00000000E+00
   0.13800000E+01           0.00000000E+00
   0.13900000E+01           0.00000000E+00
   0.14000000E+01           0.00000000E+00
   0.14100000E+01           0.00000000E+00
   0.14200000E+01           0.00000000E+00
   0.14300000E+01           0.00000000E+00
   0.14400000E+01           0.00000000E+00
   0.14500000E+01           0.00000000E+00
   0.14600000E+01           0.00000000E+00
   0.14700000E+01           0.00000000E+00
   0.14800000E+01           0.00000000E+00
   0.14900000E+01           0.00000000E+00
   0.15000000E+01           0.00000000E+00
   0.15100000E+01           0.00000000E+00
   0.15200000E+01           0.00000000E+00
   0.15300000E+01           0.00000000E+00
   0.15400000E+01           0.00000000E+00
   0.15500000E+01           0.00000000E+00
   0.15600000E+01           0.00000000E+00
   0.15700000E+01           0.00000000E+00
   0.15800000E+01           0.00000000E+00
   0.15900000E+01           0.00000000E+00
   0.16000000E+01           0.00000000E+00
   0.16100000E+01           0.00000000E+00
   0.16200000E+01           0.00000000E+00
   0.16300000E+01           0.00000000E+00
   0.16400000E+01           0.00000000E+00
   0.16500000E+01           0.00000000E+00
   0.16600000E+01           0.00000000E+00
   0.16700000E+01           0.00000000E+00
   0.16800000E+01           0.00000000E+00
   0.16900000E+01           0.00000000E+00
   0.17000000E+01           0.00000000E+00
   0.17100000E+01           0.00000000E+00
   0.17200000E+01           0.00000000E+00
   0.17300000E+01           0.00000000E+00
   0.17400000E+01           0.94966762E-07
   0.17500000E+01           0.00000000E+00
   0.17600000E+01           0.00000000E+00
   0.17700000E+01           0.00000000E+00
   0.17800000E+01           0.00000000E+00
   0.17900000E+01           0.00000000E+00
   0.18000000E+01           0.00000000E+00
   0.18100000E+01           0.00000000E+00
   0.18200000E+01           0.00000000E+00
   0.18300000E+01           0.00000000E+00
   0.18400000E+01           0.00000000E+00
   0.18500000E+01           0.00000000E+00
   0.18600000E+01           0.00000000E+00
   0.18700000E+01           0.00000000E+00
   0.18800000E+01           0.00000000E+00
   0.18900000E+01           0.00000000E+00
   0.19000000E+01           0.00000000E+00
   0.19100000E+01           0.00000000E+00
   0.19200000E+01           0.00000000E+00
   0.19300000E+01           0.00000000E+00
   0.19400000E+01           0.00000000E+00
   0.19500000E+01           0.00000000E+00
   0.19600000E+01           0.00000000E+00
   0.19700000E+01           0.00000000E+00
   0.19800000E+01           0.00000000E+00
   0.19900000E+01           0.00000000E+00
   0.20000000E+01           0.00000000E+00
 #T=     4.0000
  -0.20000000E+01           0.00000000E+00
  -0.19900000E+01           0.00000000E+00
  -0.19800000E+01           0.00000000E+00
  -0.19700000E+01           0.00000000E+00
  -0.19600000E+01           0.00000000E+00
  -0.19500000E+01           0.00000000E+00
  -0.19400000E+01           0.00000000E+00
  -0.19300000E+01           0.00000000E+00
  -0.19200000E+01           0.00000000E+00
  -0.19100000E+01           0.00000000E+00
  -0.19000000E+01           0.00000000E+00
  -0.18900000E+01           0.00000000E+00
  -0.18800000E+01           0.00000000E+00
  -0.18700000E+01           0.00000000E+00
  -0.18600000E+01           0.00000000E+00
  -0.18500000E+01           0.00000000E+00
  -0.18400000E+01           0.00000000E+00
  -0.18300000E+01           0.00000000E+00
  -0.18200000E+01           0.00000000E+00
  -0.18100000E+01           0.00000000E+00
  -0.18000000E+01           0.00000000E+00
  -0.17900000E+01           0.00000000E+00
  -0.17800000E+01           0.00000000E+00
  -0.17700000E+01           0.00000000E+00
  -0.17600000E+01           0.00000000E+00
  -0.17500000E+01           0.00000000E+00
  -0.17400000E+01           0.00000000E+00
  -0.17300000E+01           0.00000000E+00
  -0.17200000E+01           0.00000000E+00
  -0.17100000E+01           0.00000000E+00
  -0.17000000E+01           0.00000000E+00
  -0.16900000E+01           0.00000000E+00
  -0.16800000E+01           0.00000000E+00
  -0.16700000E+01           0.00000000E+00
  -0.16600000E+01           0.00000000E+00
  -0.16500000E+01           0.00000000E+00
  -0.16400000E+01           0.00000000E+00
  -0.16300000E+01           0.00000000E+00
  -0.16200000E+01           0.00000000E+00
  -0.16100000E+01           0.00000000E+00
  -0.16000000E+01           0.00000000E+00
  -0.15900000E+01           0.00000000E+00
  -0.15800000E+01           0.00000000E+00
  -0.15700000E+01           0.00000000E+00
  -0.15600000E+01           0.00000000E+00
  -0.15500000E+01           0.00000000E+00
  -0.15400000E+01           0.00000000E+00
  -0.15300000E+01           0.00000000E+00
  -0.15200000E+01           0.00000000E+00
  -0.15100000E+01           0.00000000E+00
  -0.15000000E+01           0.00000000E+00
  -0.14900000E+01           0.00000000E+00
  -0.14800000E+01           0.00000000E+00
  -0.14700000E+01           0.00000000E+00
  -0.14600000E+01           0.00000000E+00
  -0.14500000E+01           0.00000000E+00
  -0.14400000E+01           0.00000000E+00
  -0.14300000E+01           0.00000000E+00
  -0.14200000E+01           0.00000000E+00
  -0.14100000E+01           0.00000000E+00
  -0.14000000E+01           0.00000000E+00
  -0.13900000E+01           0.00000000E+00
  -0.13800000E+01           0.00000000E+00
  -0.13700000E+01           0.00000000E+00
  -0.13600000E+01           0.00000000E+00
  -0.13500000E+01           0.00000000E+00
  -0.13400000E+01           0.00000000E+00
  -0.13300000E+01           0.00000000E+00
  -0.13200000E+01           0.00000000E+00
  -0.13100000E+01           0.00000000E+00
  -0.13000000E+01           0.00000000E+00
  -0.12900000E+01           0.00000000E+00
  -0.12800000E+01           0.00000000E+00
  -0.12700000E+01           0.00000000E+00
  -0.12600000E+01           0.00000000E+00
  -0.12500000E+01           0.00000000E+00
  -0.12400000E+01           0.00000000E+00
  -0.12300000E+01           0.00000000E+00
  -0.12200000E+01           0.00000000E+00
  -0.12100000E+01           0.00000000E+00
  -0.12000000E+01           0.00000000E+00
  -0.11900000E+01           0.00000000E+00
  -0.11800000E+01           0.00000000E+00
  -0.11700000E+01           0.00000000E+00
  -0.11600000E+01           0.00000000E+00
  -0.11500000E+01           0.00000000E+00
  -0.11400000E+01           0.00000000E+00
  -0.11300000E+01           0.00000000E+00
  -0.11200000E+01           0.00000000E+00
  -0.11100000E+01           0.00000000E+00
  -0.11000000E+01           0.00000000E+00
  -0.10900000E+01           0.00000000E+00
  -0.10800000E+01           0.00000000E+00
  -0.10700000E+01           0.00000000E+00
  -0.10600000E+01           0.00000000E+00
  -0.10500000E+01           0.00000000E+00
  -0.10400000E+01           0.00000000E+00
  -0.10300000E+01           0.00000000E+00
  -0.10200000E+01           0.00000000E+00
  -0.10100000E+01           0.00000000E+00
  -0.10000000E+01           0.00000000E+00
  -0.99000000E+00           0.00000000E+00
  -0.98000000E+00           0.00000000E+00
  -0.97000000E+00           0.00000000E+00
  -0.96000000E+00           0.00000000E+00
  -0.95000000E+00           0.00000000E+00
  -0.94000000E+00           0.00000000E+00
  -0.93000000E+00           0.00000000E+00
  -0.92000000E+00           0.00000000E+00
  -0.91000000E+00           0.00000000E+00
  -0.90000000E+00           0.00000000E+00
  -0.89000000E+00           0.00000000E+00
  -0.88000000E+00           0.00000000E+00
  -0.87000000E+00           0.00000000E+00
  -0.86000000E+00           0.00000000E+00
  -0.85000000E+00           0.00000000E+00
  -0.84000000E+00           0.00000000E+00
  -0.83000000E+00           0.00000000E+00
  -0.82000000E+00           0.00000000E+00
  -0.81000000E+00           0.00000000E+00
  -0.80000000E+00           0.00000000E+00
  -0.79000000E+00           0.00000000E+00
  -0.78000000E+00           0.00000000E+00
  -0.77000000E+00           0.00000000E+00
  -0.76000000E+00           0.00000000E+00
  -0.75000000E+00           0.00000000E+00
  -0.74000000E+00           0.00000000E+00
  -0.73000000E+00           0.00000000E+00
  -0.72000000E+00           0.00000000E+00
  -0.71000000E+00           0.00000000E+00
  -0.70000000E+00           0.00000000E+00
  -0.69000000E+00           0.00000000E+00
  -0.68000000E+00           0.00000000E+00
  -0.67000000E+00           0.00000000E+00
  -0.66000000E+00           0.00000000E+00
  -0.65000000E+00           0.00000000E+00
  -0.64000000E+00           0.00000000E+00
  -0.63000000E+00           0.00000000E+00
  -0.62000000E+00           0.00000000E+00
  -0.61000000E+00           0.00000000E+00
  -0.60000000E+00           0.00000000E+00
  -0.59000000E+00           0.00000000E+00
  -0.58000000E+00           0.00000000E+00
  -0.57000000E+00           0.00000000E+00
  -0.56000000E+00           0.00000000E+00
  -0.55000000E+00           0.00000000E+00
  -0.54000000E+00           0.00000000E+00
  -0.53000000E+00           0.00000000E+00
  -0.52000000E+00           0.00000000E+00
  -0.51000000E+00           0.00000000E+00
  -0.50000000E+00           0.00000000E+00
  -0.49000000E+00           0.00000000E+00
  -0.48000000E+00           0.00000000E+00
  -0.47000000E+00           0.00000000E+00
  -0.46000000E+00           0.00000000E+00
  -0.45000000E+00           0.00000000E+00
  -0.44000000E+00           0.00000000E+00
  -0.43000000E+00           0.00000000E+00
  -0.42000000E+00           0.00000000E+00
  -0.41000000E+00           0.00000000E+00
  -0.40000000E+00           0.00000000E+00
  -0.39000000E+00           0.00000000E+00
  -0.38000000E+00           0.00000000E+00
  -0.37000000E+00           0.00000000E+00
  -0.36000000E+00           0.00000000E+00
  -0.35000000E+00           0.00000000E+00
  -0.34000000E+00           0.00000000E+00
  -0.33000000E+00           0.00000000E+00
  -0.32000000E+00           0.00000000E+00
  -0.31000000E+00           0.00000000E+00
  -0.30000000E+00           0.00000000E+00
  -0.29000000E+00           0.00000000E+00
  -0.28000000E+00           0.00000000E+00
  -0.27000000E+00           0.00000000E+00
  -0.26000000E+00           0.00000000E+00
  -0.25000000E+00           0.00000000E+00
  -0.24000000E+00           0.00000000E+00
  -0.23000000E+00           0.00000000E+00
  -0.22000000E+00           0.00000000E+00
  -0.21000000E+00           0.00000000E+00
  -0.20000000E+00           0.00000000E+00
  -0.19000000E+00           0.00000000E+00
  -0.18000000E+00           0.00000000E+00
  -0.17000000E+00           0.00000000E+00
  -0.16000000E+00           0.00000000E+00
  -0.15000000E+00           0.00000000E+00
  -0.14000000E+00           0.00000000E+00
  -0.13000000E+00           0.00000000E+00
  -0.12000000E+00           0.00000000E+00
  -0.11000000E+00           0.00000000E+00
  -0.10000000E+00           0.00000000E+00
  -0.90000000E-01           0.00000000E+00
  -0.80000000E-01           0.00000000E+00
  -0.70000000E-01           0.00000000E+00
  -0.60000000E-01           0.00000000E+00
  -0.50000000E-01           0.00000000E+00
  -0.40000000E-01           0.00000000E+00
  -0.30000000E-01           0.00000000E+00
  -0.20000000E-01           0.00000000E+00
  -0.10000000E-01           0.00000000E+00
   0.00000000E+00           0.25236752E-01
   0.10000000E-01           0.20102735E+00
   0.20000000E-01           0.40117797E+00
   0.30000000E-01           0.60061576E+00
   0.40000000E-01           0.79565717E+00
   0.50000000E-01           0.98398253E+00
   0.60000000E-01           0.11674396E+01
   0.70000000E-01           0.13464173E+01
   0.80000000E-01           0.15150628E+01
   0.90000000E-01           0.16741182E+01
   0.10000000E+00           0.18239236E+01
   0.11000000E+00           0.19658323E+01
   0.12000000E+00           0.20975009E+01
   0.13000000E+00           0.22157111E+01
   0.14000000E+00           0.23248420E+01
   0.15000000E+00           0.24192186E+01
   0.16000000E+00           0.25002844E+01
   0.17000000E+00           0.25695944E+01
   0.18000000E+00           0.26265023E+01
   0.19000000E+00           0.26732656E+01
   0.20000000E+00           0.27045370E+01
   0.21000000E+00           0.27231892E+01
   0.22000000E+00           0.27338554E+01
   0.23000000E+00           0.27350459E+01
   0.24000000E+00           0.27181502E+01
   0.25000000E+00           0.26972929E+01
   0.26000000E+00           0.26651211E+01
   0.27000000E+00           0.26267180E+01
   0.28000000E+00           0.25742421E+01
   0.29000000E+00           0.25177682E+01
   0.30000000E+00           0.24503272E+01
   0.31000000E+00           0.23855172E+01
   0.32000000E+00           0.23095070E+01
   0.33000000E+00           0.22305117E+01
   0.34000000E+00           0.21479156E+01
   0.35000000E+00           0.20625883E+01
   0.36000000E+00           0.19732554E+01
   0.37000000E+00           0.18849639E+01
   0.38000000E+00           0.17959039E+01
   0.39000000E+00           0.17037134E+01
   0.40000000E+00           0.16131807E+01
   0.41000000E+00           0.15207363E+01
   0.42000000E+00           0.14330603E+01
   0.43000000E+00           0.13448104E+01
   0.44000000E+00           0.12576241E+01
   0.45000000E+00           0.11751584E+01
   0.46000000E+00           0.10967342E+01
   0.47000000E+00           0.10178355E+01
   0.48000000E+00           0.94357255E+00
   0.49000000E+00           0.87119753E+00
   0.50000000E+00           0.80380608E+00
   0.51000000E+00           0.73917749E+00
   0.52000000E+00           0.67823324E+00
   0.53000000E+00           0.61997312E+00
   0.54000000E+00           0.56581766E+00
   0.55000000E+00           0.51469753E+00
   0.56000000E+00           0.46813713E+00
   0.57000000E+00           0.42352450E+00
   0.58000000E+00           0.38242773E+00
   0.59000000E+00           0.34466059E+00
   0.60000000E+00           0.31047227E+00
   0.61000000E+00           0.27775745E+00
   0.62000000E+00           0.24919231E+00
   0.63000000E+00           0.22153542E+00
   0.64000000E+00           0.19760741E+00
   0.65000000E+00           0.17519611E+00
   0.66000000E+00           0.15506448E+00
   0.67000000E+00           0.13704103E+00
   0.68000000E+00           0.12044387E+00
   0.69000000E+00           0.10557388E+00
   0.70000000E+00           0.92635708E-01
   0.71000000E+00           0.80991548E-01
   0.72000000E+00           0.70870655E-01
   0.73000000E+00           0.61386705E-01
   0.74000000E+00           0.53308357E-01
   0.75000000E+00           0.46110921E-01
   0.76000000E+00           0.39645679E-01
   0.77000000E+00           0.34262963E-01
   0.78000000E+00           0.29551757E-01
   0.79000000E+00           0.25128395E-01
   0.80000000E+00           0.21472934E-01
   0.81000000E+00           0.18248148E-01
   0.82000000E+00           0.15500855E-01
   0.83000000E+00           0.13095726E-01
   0.84000000E+00           0.11088414E-01
   0.85000000E+00           0.92697056E-02
   0.86000000E+00           0.78853751E-02
   0.87000000E+00           0.65599240E-02
   0.88000000E+00           0.54852802E-02
   0.89000000E+00           0.46335233E-02
   0.90000000E+00           0.37556505E-02
   0.91000000E+00           0.32187085E-02
   0.92000000E+00           0.26608737E-02
   0.93000000E+00           0.21382716E-02
   0.94000000E+00           0.17721747E-02
   0.95000000E+00           0.14734093E-02
   0.96000000E+00           0.11829060E-02
   0.97000000E+00           0.96676163E-03
   0.98000000E+00           0.79002849E-03
   0.99000000E+00           0.63390313E-03
   0.10000000E+01           0.48983856E-03
   0.10100000E+01           0.41206078E-03
   0.10200000E+01           0.32117759E-03
   0.10300000E+01           0.26030389E-03
   0.10400000E+01           0.21975309E-03
   0.10500000E+01           0.16875594E-03
   0.10600000E+01           0.13143400E-03
   0.10700000E+01           0.10892688E-03
   0.10800000E+01           0.86514720E-04
   0.10900000E+01           0.68186135E-04
   0.11000000E+01           0.48528015E-04
   0.11100000E+01           0.42070275E-04
   0.11200000E+01           0.32858500E-04
   0.11300000E+01           0.21842355E-04
   0.11400000E+01           0.19848053E-04
   0.11500000E+01           0.15574549E-04
   0.11600000E+01           0.11965812E-04
   0.11700000E+01           0.67426401E-05
   0.11800000E+01           0.43684710E-05
   0.11900000E+01           0.44634378E-05
   0.12000000E+01           0.40835708E-05
   0.12100000E+01           0.30389364E-05
   0.12200000E+01           0.17094017E-05
   0.12300000E+01           0.12345679E-05
   0.12400000E+01           0.29439696E-05
   0.12500000E+01           0.85470085E-06
   0.12600000E+01           0.28490028E-06
   0.12700000E+01           0.47483381E-06
   0.12800000E+01           0.18993352E-06
   0.12900000E+01           0.94966762E-07
   0.13000000E+01           0.47483381E-06
   0.13100000E+01           0.28490028E-06
   0.13200000E+01           0.94966762E-07
   0.13300000E+01           0.94966762E-07
   0.13400000E+01           0.94966762E-07
   0.13500000E+01           0.00000000E+00
   0.13600000E+01           0.94966762E-07
   0.13700000E+01           0.00000000E+00
   0.13800000E+01           0.00000000E+00
   0.13900000E+01           0.00000000E+00
   0.14000000E+01           0.00000000E+00
   0.14100000E+01           0.00000000E+00
   0.14200000E+01           0.00000000E+00
   0.14300000E+01           0.00000000E+00
   0.14400000E+01           0.00000000E+00
   0.14500000E+01           0.00000000E+00
   0.14600000E+01           0.00000000E+00
   0.14700000E+01           0.00000000E+00
   0.14800000E+01           0.00000000E+00
   0.14900000E+01           0.00000000E+00
   0.15000000E+01           0.00000000E+00
   0.15100000E+01           0.00000000E+00
   0.15200000E+01           0.00000000E+00
   0.15300000E+01           0.00000000E+00
   0.15400000E+01           0.00000000E+00
   0.15500000E+01           0.00000000E+00
   0.15600000E+01           0.00000000E+00
   0.15700000E+01           0.00000000E+00
   0.15800000E+01           0.00000000E+00
   0.15900000E+01           0.00000000E+00
   0.16000000E+01           0.00000000E+00
   0.16100000E+01           0.00000000E+00
   0.16200000E+01           0.00000000E+00
   0.16300000E+01           0.00000000E+00
   0.16400000E+01           0.00000000E+00
   0.16500000E+01           0.00000000E+00
   0.16600000E+01           0.00000000E+00
   0.16700000E+01           0.00000000E+00
   0.16800000E+01           0.00000000E+00
   0.16900000E+01           0.00000000E+00
   0.17000000E+01           0.00000000E+00
   0.17100000E+01           0.00000000E+00
   0.17200000E+01           0.00000000E+00
   0.17300000E+01           0.00000000E+00
   0.17400000E+01           0.00000000E+00
   0.17500000E+01           0.00000000E+00
   0.17600000E+01           0.00000000E+00
   0.17700000E+01           0.00000000E+00
   0.17800000E+01           0.00000000E+00
   0.17900000E+01           0.00000000E+00
   0.18000000E+01           0.00000000E+00
   0.18100000E+01           0.00000000E+00
   0.18200000E+01           0.00000000E+00
   0.18300000E+01           0.00000000E+00
   0.18400000E+01           0.00000000E+00
   0.18500000E+01           0.00000000E+00
   0.18600000E+01           0.00000000E+00
   0.18700000E+01           0.00000000E+00
   0.18800000E+01           0.00000000E+00
   0.18900000E+01           0.00000000E+00
   0.19000000E+01           0.00000000E+00
   0.19100000E+01           0.00000000E+00
   0.19200000E+01           0.00000000E+00
   0.19300000E+01           0.00000000E+00
   0.19400000E+01           0.00000000E+00
   0.19500000E+01           0.00000000E+00
   0.19600000E+01           0.00000000E+00
   0.19700000E+01           0.00000000E+00
   0.19800000E+01           0.00000000E+00
   0.19900000E+01           0.00000000E+00
   0.20000000E+01           0.00000000E+00
 #T=     5.0000
  -0.20000000E+01           0.00000000E+00
  -0.19900000E+01           0.00000000E+00
  -0.19800000E+01           0.00000000E+00
  -0.19700000E+01           0.00000000E+00
  -0.19600000E+01           0.00000000E+00
  -0.19500000E+01           0.00000000E+00
  -0.19400000E+01           0.00000000E+00
  -0.19300000E+01           0.00000000E+00
  -0.19200000E+01           0.00000000E+00
  -0.19100000E+01           0.00000000E+00
  -0.19000000E+01           0.00000000E+00
  -0.18900000E+01           0.00000000E+00
  -0.18800000E+01           0.00000000E+00
  -0.18700000E+01           0.00000000E+00
  -0.18600000E+01           0.00000000E+00
  -0.18500000E+01           0.00000000E+00
  -0.18400000E+01           0.00000000E+00
  -0.18300000E+01           0.00000000E+00
  -0.18200000E+01           0.00000000E+00
  -0.18100000E+01           0.00000000E+00
  -0.18000000E+01           0.00000000E+00
  -0.17900000E+01           0.00000000E+00
  -0.17800000E+01           0.00000000E+00
  -0.17700000E+01           0.00000000E+00
  -0.17600000E+01           0.00000000E+00
  -0.17500000E+01           0.00000000E+00
  -0.17400000E+01           0.00000000E+00
  -0.17300000E+01           0.00000000E+00
  -0.17200000E+01           0.00000000E+00
  -0.17100000E+01           0.00000000E+00
  -0.17000000E+01           0.00000000E+00
  -0.16900000E+01           0.00000000E+00
  -0.16800000E+01           0.00000000E+00
  -0.16700000E+01           0.00000000E+00
  -0.16600000E+01           0.00000000E+00
  -0.16500000E+01           0.00000000E+00
  -0.16400000E+01           0.00000000E+00
  -0.16300000E+01           0.00000000E+00
  -0.16200000E+01           0.00000000E+00
  -0.16100000E+01           0.00000000E+00
  -0.16000000E+01           0.00000000E+00
  -0.15900000E+01           0.00000000E+00
  -0.15800000E+01           0.00000000E+00
  -0.15700000E+01           0.00000000E+00
  -0.15600000E+01           0.00000000E+00
  -0.15500000E+01           0.00000000E+00
  -0.15400000E+01           0.00000000E+00
  -0.15300000E+01           0.00000000E+00
  -0.15200000E+01           0.00000000E+00
  -0.15100000E+01           0.00000000E+00
  -0.15000000E+01           0.00000000E+00
  -0.14900000E+01           0.00000000E+00
  -0.14800000E+01           0.00000000E+00
  -0.14700000E+01           0.00000000E+00
  -0.14600000E+01           0.00000000E+00
  -0.14500000E+01           0.00000000E+00
  -0.14400000E+01           0.00000000E+00
  -0.14300000E+01           0.00000000E+00
  -0.14200000E+01           0.00000000E+00
  -0.14100000E+01           0.00000000E+00
  -0.14000000E+01           0.00000000E+00
  -0.13900000E+01           0.00000000E+00
  -0.13800000E+01           0.00000000E+00
  -0.13700000E+01           0.00000000E+00
  -0.13600000E+01           0.00000000E+00
  -0.13500000E+01           0.00000000E+00
  -0.13400000E+01           0.00000000E+00
  -0.13300000E+01           0.00000000E+00
  -0.13200000E+01           0.00000000E+00
  -0.13100000E+01           0.00000000E+00
  -0.13000000E+01           0.00000000E+00
  -0.12900000E+01           0.00000000E+00
  -0.12800000E+01           0.00000000E+00
  -0.12700000E+01           0.00000000E+00
  -0.12600000E+01           0.00000000E+00
  -0.12500000E+01           0.00000000E+00
  -0.12400000E+01           0.00000000E+00
  -0.12300000E+01           0.00000000E+00
  -0.12200000E+01           0.00000000E+00
  -0.12100000E+01           0.00000000E+00
  -0.12000000E+01           0.00000000E+00
  -0.11900000E+01           0.00000000E+00
  -0.11800000E+01           0.00000000E+00
  -0.11700000E+01           0.00000000E+00
  -0.11600000E+01           0.00000000E+00
  -0.11500000E+01           0.00000000E+00
  -0.11400000E+01           0.00000000E+00
  -0.11300000E+01           0.00000000E+00
  -0.11200000E+01           0.00000000E+00
  -0.11100000E+01           0.00000000E+00
  -0.11000000E+01           0.00000000E+00
  -0.10900000E+01           0.00000000E+00
  -0.10800000E+01           0.00000000E+00
  -0.10700000E+01           0.00000000E+00
  -0.10600000E+01           0.00000000E+00
  -0.10500000E+01           0.00000000E+00
  -0.10400000E+01           0.00000000E+00
  -0.10300000E+01           0.00000000E+00
  -0.10200000E+01           0.00000000E+00
  -0.10100000E+01           0.00000000E+00
  -0.10000000E+01           0.00000000E+00
  -0.99000000E+00           0.00000000E+00
  -0.98000000E+00           0.00000000E+00
  -0.97000000E+00           0.00000000E+00
  -0.96000000E+00           0.00000000E+00
  -0.95000000E+00           0.00000000E+00
  -0.94000000E+00           0.00000000E+00
  -0.93000000E+00           0.00000000E+00
  -0.92000000E+00           0.00000000E+00
  -0.91000000E+00           0.00000000E+00
  -0.90000000E+00           0.00000000E+00
  -0.89000000E+00           0.00000000E+00
  -0.88000000E+00           0.00000000E+00
  -0.87000000E+00           0.00000000E+00
  -0.86000000E+00           0.00000000E+00
  -0.85000000E+00           0.00000000E+00
  -0.84000000E+00           0.00000000E+00
  -0.83000000E+00           0.00000000E+00
  -0.82000000E+00           0.00000000E+00
  -0.81000000E+00           0.00000000E+00
  -0.80000000E+00           0.00000000E+00
  -0.79000000E+00           0.00000000E+00
  -0.78000000E+00           0.00000000E+00
  -0.77000000E+00           0.00000000E+00
  -0.76000000E+00           0.00000000E+00
  -0.75000000E+00           0.00000000E+00
  -0.74000000E+00           0.00000000E+00
  -0.73000000E+00           0.00000000E+00
  -0.72000000E+00           0.00000000E+00
  -0.71000000E+00           0.00000000E+00
  -0.70000000E+00           0.00000000E+00
  -0.69000000E+00           0.00000000E+00
  -0.68000000E+00           0.00000000E+00
  -0.67000000E+00           0.00000000E+00
  -0.66000000E+00           0.00000000E+00
  -0.65000000E+00           0.00000000E+00
  -0.64000000E+00           0.00000000E+00
  -0.63000000E+00           0.00000000E+00
  -0.62000000E+00           0.00000000E+00
  -0.61000000E+00           0.00000000E+00
  -0.60000000E+00           0.00000000E+00
  -0.59000000E+00           0.00000000E+00
  -0.58000000E+00           0.00000000E+00
  -0.57000000E+00           0.00000000E+00
  -0.56000000E+00           0.00000000E+00
  -0.55000000E+00           0.00000000E+00
  -0.54000000E+00           0.00000000E+00
  -0.53000000E+00           0.00000000E+00
  -0.52000000E+00           0.00000000E+00
  -0.51000000E+00           0.00000000E+00
  -0.50000000E+00           0.00000000E+00
  -0.49000000E+00           0.00000000E+00
  -0.48000000E+00           0.00000000E+00
  -0.47000000E+00           0.00000000E+00
  -0.46000000E+00           0.00000000E+00
  -0.45000000E+00           0.00000000E+00
  -0.44000000E+00           0.00000000E+00
  -0.43000000E+00           0.00000000E+00
  -0.42000000E+00           0.00000000E+00
  -0.41000000E+00           0.00000000E+00
  -0.40000000E+00           0.00000000E+00
  -0.39000000E+00           0.00000000E+00
  -0.38000000E+00           0.00000000E+00
  -0.37000000E+00           0.00000000E+00
  -0.36000000E+00           0.00000000E+00
  -0.35000000E+00           0.00000000E+00
  -0.34000000E+00           0.00000000E+00
  -0.33000000E+00           0.00000000E+00
  -0.32000000E+00           0.00000000E+00
  -0.31000000E+00           0.00000000E+00
  -0.30000000E+00           0.00000000E+00
  -0.29000000E+00           0.00000000E+00
  -0.28000000E+00           0.00000000E+00
  -0.27000000E+00           0.00000000E+00
  -0.26000000E+00           0.00000000E+00
  -0.25000000E+00           0.00000000E+00
  -0.24000000E+00           0.00000000E+00
  -0.23000000E+00           0.00000000E+00
  -0.22000000E+00           0.00000000E+00
  -0.21000000E+00           0.00000000E+00
  -0.20000000E+00           0.00000000E+00
  -0.19000000E+00           0.00000000E+00
  -0.18000000E+00           0.00000000E+00
  -0.17000000E+00           0.00000000E+00
  -0.16000000E+00           0.00000000E+00
  -0.15000000E+00           0.00000000E+00
  -0.14000000E+00           0.00000000E+00
  -0.13000000E+00           0.00000000E+00
  -0.12000000E+00           0.00000000E+00
  -0.11000000E+00           0.00000000E+00
  -0.10000000E+00           0.00000000E+00
  -0.90000000E-01           0.00000000E+00
  -0.80000000E-01           0.00000000E+00
  -0.70000000E-01           0.00000000E+00
  -0.60000000E-01           0.00000000E+00
  -0.50000000E-01           0.00000000E+00
  -0.40000000E-01           0.00000000E+00
  -0.30000000E-01           0.00000000E+00
  -0.20000000E-01           0.00000000E+00
  -0.10000000E-01           0.00000000E+00
   0.00000000E+00           0.20086040E-01
   0.10000000E-01           0.16093495E+00
   0.20000000E-01           0.32050684E+00
   0.30000000E-01           0.47884169E+00
   0.40000000E-01           0.63299915E+00
   0.50000000E-01           0.78695176E+00
   0.60000000E-01           0.93622232E+00
   0.70000000E-01           0.10808927E+01
   0.80000000E-01           0.12204796E+01
   0.90000000E-01           0.13548193E+01
   0.10000000E+00           0.14834998E+01
   0.11000000E+00           0.16031988E+01
   0.12000000E+00           0.17182682E+01
   0.13000000E+00           0.18233755E+01
   0.14000000E+00           0.19224416E+01
   0.15000000E+00           0.20129029E+01
   0.16000000E+00           0.20961193E+01
   0.17000000E+00           0.21694215E+01
   0.18000000E+00           0.22331398E+01
   0.19000000E+00           0.22904276E+01
   0.20000000E+00           0.23333084E+01
   0.21000000E+00           0.23757915E+01
   0.22000000E+00           0.24052195E+01
   0.23000000E+00           0.24236690E+01
   0.24000000E+00           0.24391498E+01
   0.25000000E+00           0.24417929E+01
   0.26000000E+00           0.24382368E+01
   0.27000000E+00           0.24267680E+01
   0.28000000E+00           0.24098454E+01
   0.29000000E+00           0.23848973E+01
   0.30000000E+00           0.23534097E+01
   0.31000000E+00           0.23151668E+01
   0.32000000E+00           0.22727197E+01
   0.33000000E+00           0.22266340E+01
   0.34000000E+00           0.21724795E+01
   0.35000000E+00           0.21159941E+01
   0.36000000E+00           0.20539270E+01
   0.37000000E+00           0.19923175E+01
   0.38000000E+00           0.19262198E+01
   0.39000000E+00           0.18595827E+01
   0.40000000E+00           0.17876398E+01
   0.41000000E+00           0.17167601E+01
   0.42000000E+00           0.16476570E+01
   0.43000000E+00           0.15732677E+01
   0.44000000E+00           0.15008007E+01
   0.45000000E+00           0.14290274E+01
   0.46000000E+00           0.13551315E+01
   0.47000000E+00           0.12841713E+01
   0.48000000E+00           0.12157014E+01
   0.49000000E+00           0.11466142E+01
[...]
   0.13800000E+01           0.69066306E+00
   0.13900000E+01           0.69233276E+00
   0.14000000E+01           0.69477483E+00
   0.14100000E+01           0.69693447E+00
   0.14200000E+01           0.69868424E+00
   0.14300000E+01           0.70108120E+00
   0.14400000E+01           0.70299022E+00
   0.14500000E+01           0.70527009E+00
   0.14600000E+01           0.70683865E+00
   0.14700000E+01           0.70902355E+00
   0.14800000E+01           0.71050950E+00
   0.14900000E+01           0.71227569E+00
   0.15000000E+01           0.71447654E+00
   0.15100000E+01           0.71608006E+00
   0.15200000E+01           0.71750047E+00
   0.15300000E+01           0.71860969E+00
   0.15400000E+01           0.72052175E+00
   0.15500000E+01           0.72149592E+00
   0.15600000E+01           0.72387749E+00
   0.15700000E+01           0.72510779E+00
   0.15800000E+01           0.72672944E+00
   0.15900000E+01           0.72784995E+00
   0.16000000E+01           0.72956201E+00
   0.16100000E+01           0.73016334E+00
   0.16200000E+01           0.73139411E+00
   0.16300000E+01           0.73244074E+00
   0.16400000E+01           0.73410332E+00
   0.16500000E+01           0.73437721E+00
   0.16600000E+01           0.73557616E+00
   0.16700000E+01           0.73706382E+00
   0.16800000E+01           0.73784758E+00
   0.16900000E+01           0.73813390E+00
   0.17000000E+01           0.73880256E+00
   0.17100000E+01           0.74016002E+00
   0.17200000E+01           0.74037360E+00
   0.17300000E+01           0.74138898E+00
   0.17400000E+01           0.74174929E+00
   0.17500000E+01           0.74245128E+00
   0.17600000E+01           0.74342498E+00
   0.17700000E+01           0.74299031E+00
   0.17800000E+01           0.74391349E+00
   0.17900000E+01           0.74440940E+00
   0.18000000E+01           0.74481614E+00
   0.18100000E+01           0.74498870E+00
   0.18200000E+01           0.74552450E+00
   0.18300000E+01           0.74566420E+00
   0.18400000E+01           0.74524777E+00
   0.18500000E+01           0.74594834E+00
   0.18600000E+01           0.74541757E+00
   0.18700000E+01           0.74560712E+00
   0.18800000E+01           0.74607521E+00
   0.18900000E+01           0.74582308E+00
   0.19000000E+01           0.74585527E+00
   0.19100000E+01           0.74534160E+00
   0.19200000E+01           0.74527787E+00
   0.19300000E+01           0.74523884E+00
   0.19400000E+01           0.74485802E+00
   0.19500000E+01           0.74464843E+00
   0.19600000E+01           0.74457417E+00
   0.19700000E+01           0.74410408E+00
   0.19800000E+01           0.74310313E+00
   0.19900000E+01           0.74312830E+00
   0.20000000E+01           0.37119953E+00
 #T=    80.0000
  -0.20000000E+01           0.00000000E+00
  -0.19900000E+01           0.00000000E+00
  -0.19800000E+01           0.00000000E+00
  -0.19700000E+01           0.00000000E+00
  -0.19600000E+01           0.00000000E+00
  -0.19500000E+01           0.00000000E+00
  -0.19400000E+01           0.00000000E+00
  -0.19300000E+01           0.00000000E+00
  -0.19200000E+01           0.00000000E+00
  -0.19100000E+01           0.00000000E+00
  -0.19000000E+01           0.00000000E+00
  -0.18900000E+01           0.00000000E+00
  -0.18800000E+01           0.00000000E+00
  -0.18700000E+01           0.00000000E+00
  -0.18600000E+01           0.00000000E+00
  -0.18500000E+01           0.00000000E+00
  -0.18400000E+01           0.00000000E+00
  -0.18300000E+01           0.00000000E+00
  -0.18200000E+01           0.00000000E+00
  -0.18100000E+01           0.00000000E+00
  -0.18000000E+01           0.00000000E+00
  -0.17900000E+01           0.00000000E+00
  -0.17800000E+01           0.00000000E+00
  -0.17700000E+01           0.00000000E+00
  -0.17600000E+01           0.00000000E+00
  -0.17500000E+01           0.00000000E+00
  -0.17400000E+01           0.00000000E+00
  -0.17300000E+01           0.00000000E+00
  -0.17200000E+01           0.00000000E+00
  -0.17100000E+01           0.00000000E+00
  -0.17000000E+01           0.00000000E+00
  -0.16900000E+01           0.00000000E+00
  -0.16800000E+01           0.00000000E+00
  -0.16700000E+01           0.00000000E+00
  -0.16600000E+01           0.00000000E+00
  -0.16500000E+01           0.00000000E+00
  -0.16400000E+01           0.00000000E+00
  -0.16300000E+01           0.00000000E+00
  -0.16200000E+01           0.00000000E+00
  -0.16100000E+01           0.00000000E+00
  -0.16000000E+01           0.00000000E+00
  -0.15900000E+01           0.00000000E+00
  -0.15800000E+01           0.00000000E+00
  -0.15700000E+01           0.00000000E+00
  -0.15600000E+01           0.00000000E+00
  -0.15500000E+01           0.00000000E+00
  -0.15400000E+01           0.00000000E+00
  -0.15300000E+01           0.00000000E+00
  -0.15200000E+01           0.00000000E+00
  -0.15100000E+01           0.00000000E+00
  -0.15000000E+01           0.00000000E+00
  -0.14900000E+01           0.00000000E+00
  -0.14800000E+01           0.00000000E+00
  -0.14700000E+01           0.00000000E+00
  -0.14600000E+01           0.00000000E+00
  -0.14500000E+01           0.00000000E+00
  -0.14400000E+01           0.00000000E+00
  -0.14300000E+01           0.00000000E+00
  -0.14200000E+01           0.00000000E+00
  -0.14100000E+01           0.00000000E+00
  -0.14000000E+01           0.00000000E+00
  -0.13900000E+01           0.00000000E+00
  -0.13800000E+01           0.00000000E+00
  -0.13700000E+01           0.00000000E+00
  -0.13600000E+01           0.00000000E+00
  -0.13500000E+01           0.00000000E+00
  -0.13400000E+01           0.00000000E+00
  -0.13300000E+01           0.00000000E+00
  -0.13200000E+01           0.00000000E+00
  -0.13100000E+01           0.00000000E+00
  -0.13000000E+01           0.00000000E+00
  -0.12900000E+01           0.00000000E+00
  -0.12800000E+01           0.00000000E+00
  -0.12700000E+01           0.00000000E+00
  -0.12600000E+01           0.00000000E+00
  -0.12500000E+01           0.00000000E+00
  -0.12400000E+01           0.00000000E+00
  -0.12300000E+01           0.00000000E+00
  -0.12200000E+01           0.00000000E+00
  -0.12100000E+01           0.00000000E+00
  -0.12000000E+01           0.00000000E+00
  -0.11900000E+01           0.00000000E+00
  -0.11800000E+01           0.00000000E+00
  -0.11700000E+01           0.00000000E+00
  -0.11600000E+01           0.00000000E+00
  -0.11500000E+01           0.00000000E+00
  -0.11400000E+01           0.00000000E+00
  -0.11300000E+01           0.00000000E+00
  -0.11200000E+01           0.00000000E+00
  -0.11100000E+01           0.00000000E+00
  -0.11000000E+01           0.00000000E+00
  -0.10900000E+01           0.00000000E+00
  -0.10800000E+01           0.00000000E+00
  -0.10700000E+01           0.00000000E+00
  -0.10600000E+01           0.00000000E+00
  -0.10500000E+01           0.00000000E+00
  -0.10400000E+01           0.00000000E+00
  -0.10300000E+01           0.00000000E+00
  -0.10200000E+01           0.00000000E+00
  -0.10100000E+01           0.00000000E+00
  -0.10000000E+01           0.00000000E+00
  -0.99000000E+00           0.00000000E+00
  -0.98000000E+00           0.00000000E+00
  -0.97000000E+00           0.00000000E+00
  -0.96000000E+00           0.00000000E+00
  -0.95000000E+00           0.00000000E+00
  -0.94000000E+00           0.00000000E+00
  -0.93000000E+00           0.00000000E+00
  -0.92000000E+00           0.00000000E+00
  -0.91000000E+00           0.00000000E+00
  -0.90000000E+00           0.00000000E+00
  -0.89000000E+00           0.00000000E+00
  -0.88000000E+00           0.00000000E+00
  -0.87000000E+00           0.00000000E+00
  -0.86000000E+00           0.00000000E+00
  -0.85000000E+00           0.00000000E+00
  -0.84000000E+00           0.00000000E+00
  -0.83000000E+00           0.00000000E+00
  -0.82000000E+00           0.00000000E+00
  -0.81000000E+00           0.00000000E+00
  -0.80000000E+00           0.00000000E+00
  -0.79000000E+00           0.00000000E+00
  -0.78000000E+00           0.00000000E+00
  -0.77000000E+00           0.00000000E+00
  -0.76000000E+00           0.00000000E+00
  -0.75000000E+00           0.00000000E+00
  -0.74000000E+00           0.00000000E+00
  -0.73000000E+00           0.00000000E+00
  -0.72000000E+00           0.00000000E+00
  -0.71000000E+00           0.00000000E+00
  -0.70000000E+00           0.00000000E+00
  -0.69000000E+00           0.00000000E+00
  -0.68000000E+00           0.00000000E+00
  -0.67000000E+00           0.00000000E+00
  -0.66000000E+00           0.00000000E+00
  -0.65000000E+00           0.00000000E+00
  -0.64000000E+00           0.00000000E+00
  -0.63000000E+00           0.00000000E+00
  -0.62000000E+00           0.00000000E+00
  -0.61000000E+00           0.00000000E+00
  -0.60000000E+00           0.00000000E+00
  -0.59000000E+00           0.00000000E+00
  -0.58000000E+00           0.00000000E+00
  -0.57000000E+00           0.00000000E+00
  -0.56000000E+00           0.00000000E+00
  -0.55000000E+00           0.00000000E+00
  -0.54000000E+00           0.00000000E+00
  -0.53000000E+00           0.00000000E+00
  -0.52000000E+00           0.00000000E+00
  -0.51000000E+00           0.00000000E+00
  -0.50000000E+00           0.00000000E+00
  -0.49000000E+00           0.00000000E+00
  -0.48000000E+00           0.00000000E+00
  -0.47000000E+00           0.00000000E+00
  -0.46000000E+00           0.00000000E+00
  -0.45000000E+00           0.00000000E+00
  -0.44000000E+00           0.00000000E+00
  -0.43000000E+00           0.00000000E+00
  -0.42000000E+00           0.00000000E+00
  -0.41000000E+00           0.00000000E+00
  -0.40000000E+00           0.00000000E+00
  -0.39000000E+00           0.00000000E+00
  -0.38000000E+00           0.00000000E+00
  -0.37000000E+00           0.00000000E+00
  -0.36000000E+00           0.00000000E+00
  -0.35000000E+00           0.00000000E+00
  -0.34000000E+00           0.00000000E+00
  -0.33000000E+00           0.00000000E+00
  -0.32000000E+00           0.00000000E+00
  -0.31000000E+00           0.00000000E+00
  -0.30000000E+00           0.00000000E+00
  -0.29000000E+00           0.00000000E+00
  -0.28000000E+00           0.00000000E+00
  -0.27000000E+00           0.00000000E+00
  -0.26000000E+00           0.00000000E+00
  -0.25000000E+00           0.00000000E+00
  -0.24000000E+00           0.00000000E+00
  -0.23000000E+00           0.00000000E+00
  -0.22000000E+00           0.00000000E+00
  -0.21000000E+00           0.00000000E+00
  -0.20000000E+00           0.00000000E+00
  -0.19000000E+00           0.00000000E+00
  -0.18000000E+00           0.00000000E+00
  -0.17000000E+00           0.00000000E+00
  -0.16000000E+00           0.00000000E+00
  -0.15000000E+00           0.00000000E+00
  -0.14000000E+00           0.00000000E+00
  -0.13000000E+00           0.00000000E+00
  -0.12000000E+00           0.00000000E+00
  -0.11000000E+00           0.00000000E+00
  -0.10000000E+00           0.00000000E+00
  -0.90000000E-01           0.00000000E+00
  -0.80000000E-01           0.00000000E+00
  -0.70000000E-01           0.00000000E+00
  -0.60000000E-01           0.00000000E+00
  -0.50000000E-01           0.00000000E+00
  -0.40000000E-01           0.00000000E+00
  -0.30000000E-01           0.00000000E+00
  -0.20000000E-01           0.00000000E+00
  -0.10000000E-01           0.00000000E+00
   0.00000000E+00           0.82089269E-03
   0.10000000E-01           0.65121557E-02
   0.20000000E-01           0.13055461E-01
   0.30000000E-01           0.19620133E-01
   0.40000000E-01           0.26092118E-01
   0.50000000E-01           0.32671605E-01
   0.60000000E-01           0.39253371E-01
   0.70000000E-01           0.45692783E-01
   0.80000000E-01           0.52149763E-01
   0.90000000E-01           0.58798481E-01
   0.10000000E+00           0.65160019E-01
   0.11000000E+00           0.71616999E-01
   0.12000000E+00           0.78227445E-01
   0.13000000E+00           0.84635423E-01
   0.14000000E+00           0.91113580E-01
   0.15000000E+00           0.97578253E-01
   0.16000000E+00           0.10399373E+00
   0.17000000E+00           0.11047540E+00
   0.18000000E+00           0.11686230E+00
   0.19000000E+00           0.12321358E+00
   0.20000000E+00           0.12957550E+00
   0.21000000E+00           0.13603124E+00
   0.22000000E+00           0.14270304E+00
   0.23000000E+00           0.14905973E+00
   0.24000000E+00           0.15551833E+00
   0.25000000E+00           0.16177578E+00
   0.26000000E+00           0.16799440E+00
   0.27000000E+00           0.17433618E+00
   0.28000000E+00           0.18094938E+00
   0.29000000E+00           0.18695489E+00
   0.30000000E+00           0.19342355E+00
   0.31000000E+00           0.19982583E+00
   0.32000000E+00           0.20607170E+00
   0.33000000E+00           0.21217189E+00
   0.34000000E+00           0.21828414E+00
   0.35000000E+00           0.22457721E+00
   0.36000000E+00           0.23095214E+00
   0.37000000E+00           0.23674777E+00
   0.38000000E+00           0.24308784E+00
   0.39000000E+00           0.24929440E+00
   0.40000000E+00           0.25529753E+00
   0.41000000E+00           0.26117455E+00
   0.42000000E+00           0.26717094E+00
   0.43000000E+00           0.27326401E+00
   0.44000000E+00           0.27934967E+00
   0.45000000E+00           0.28560779E+00
   0.46000000E+00           0.29161918E+00
   0.47000000E+00           0.29749972E+00
   0.48000000E+00           0.30373951E+00
   0.49000000E+00           0.30949677E+00
   0.50000000E+00           0.31516933E+00
   0.51000000E+00           0.32117635E+00
   0.52000000E+00           0.32674131E+00
   0.53000000E+00           0.33254359E+00
   0.54000000E+00           0.33827521E+00
   0.55000000E+00           0.34418462E+00
   0.56000000E+00           0.34995945E+00
   0.57000000E+00           0.35552146E+00
   0.58000000E+00           0.36108177E+00
   0.59000000E+00           0.36667407E+00
   0.60000000E+00           0.37229487E+00
   0.61000000E+00           0.37811852E+00
   0.62000000E+00           0.38332792E+00
   0.63000000E+00           0.38864321E+00
   0.64000000E+00           0.39434311E+00
   0.65000000E+00           0.39965461E+00
   0.66000000E+00           0.40551054E+00
   0.67000000E+00           0.41037759E+00
   0.68000000E+00           0.41604074E+00
   0.69000000E+00           0.42136201E+00
   0.70000000E+00           0.42673761E+00
   0.71000000E+00           0.43204131E+00
   0.72000000E+00           0.43728756E+00
   0.73000000E+00           0.44214236E+00
   0.74000000E+00           0.44746296E+00
   0.75000000E+00           0.45248281E+00
   0.76000000E+00           0.45785128E+00
   0.77000000E+00           0.46260874E+00
   0.78000000E+00           0.46771586E+00
   0.79000000E+00           0.47282450E+00
   0.80000000E+00           0.47745119E+00
   0.81000000E+00           0.48251073E+00
   0.82000000E+00           0.48708594E+00
   0.83000000E+00           0.49173894E+00
   0.84000000E+00           0.49685005E+00
   0.85000000E+00           0.50132099E+00
   0.86000000E+00           0.50634141E+00
   0.87000000E+00           0.51114378E+00
   0.88000000E+00           0.51523846E+00
   0.89000000E+00           0.51983913E+00
   0.90000000E+00           0.52471880E+00
   0.91000000E+00           0.52903352E+00
   0.92000000E+00           0.53346990E+00
   0.93000000E+00           0.53817968E+00
   0.94000000E+00           0.54292783E+00
   0.95000000E+00           0.54688072E+00
   0.96000000E+00           0.55106610E+00
   0.97000000E+00           0.55546296E+00
   0.98000000E+00           0.55951966E+00
   0.99000000E+00           0.56344634E+00
   0.10000000E+01           0.56793590E+00
   0.10100000E+01           0.57167863E+00
   0.10200000E+01           0.57559183E+00
   0.10300000E+01           0.57988718E+00
   0.10400000E+01           0.58320608E+00
   0.10500000E+01           0.58745736E+00
   0.10600000E+01           0.59132422E+00
   0.10700000E+01           0.59536315E+00
   0.10800000E+01           0.59872251E+00
   0.10900000E+01           0.60279630E+00
   0.11000000E+01           0.60649725E+00
   0.11100000E+01           0.60983675E+00
   0.11200000E+01           0.61352156E+00
   0.11300000E+01           0.61703457E+00
   0.11400000E+01           0.62080456E+00
   0.11500000E+01           0.62385850E+00
   0.11600000E+01           0.62742450E+00
   0.11700000E+01           0.63083675E+00
   0.11800000E+01           0.63375470E+00
   0.11900000E+01           0.63730427E+00
   0.12000000E+01           0.64053010E+00
   0.12100000E+01           0.64375309E+00
   0.12200000E+01           0.64617142E+00
   0.12300000E+01           0.65037322E+00
   0.12400000E+01           0.65267768E+00
   0.12500000E+01           0.65607578E+00
   0.12600000E+01           0.65843200E+00
   0.12700000E+01           0.66170399E+00
   0.12800000E+01           0.66445916E+00
   0.12900000E+01           0.66736600E+00
   0.13000000E+01           0.67052631E+00
   0.13100000E+01           0.67261928E+00
   0.13200000E+01           0.67566980E+00
   0.13300000E+01           0.67763970E+00
   0.13400000E+01           0.68076135E+00
   0.13500000E+01           0.68358215E+00
   0.13600000E+01           0.68570703E+00
   0.13700000E+01           0.68763628E+00
   0.13800000E+01           0.69067056E+00
   0.13900000E+01           0.69279915E+00
   0.14000000E+01           0.69486667E+00
   0.14100000E+01           0.69722327E+00
   0.14200000E+01           0.69936401E+00
   0.14300000E+01           0.70144103E+00
   0.14400000E+01           0.70302840E+00
   0.14500000E+01           0.70553419E+00
   0.14600000E+01           0.70742450E+00
   0.14700000E+01           0.70917028E+00
   0.14800000E+01           0.71078072E+00
   0.14900000E+01           0.71340199E+00
   0.15000000E+01           0.71469582E+00
   0.15100000E+01           0.71650570E+00
   0.15200000E+01           0.71854169E+00
   0.15300000E+01           0.72036914E+00
   0.15400000E+01           0.72150332E+00
   0.15500000E+01           0.72329668E+00
   0.15600000E+01           0.72422013E+00
   0.15700000E+01           0.72634207E+00
   0.15800000E+01           0.72811111E+00
   0.15900000E+01           0.72865451E+00
   0.16000000E+01           0.73021747E+00
   0.16100000E+01           0.73124976E+00
   0.16200000E+01           0.73250199E+00
   0.16300000E+01           0.73361396E+00
   0.16400000E+01           0.73508832E+00
   0.16500000E+01           0.73553172E+00
   0.16600000E+01           0.73706230E+00
   0.16700000E+01           0.73839582E+00
   0.16800000E+01           0.73892688E+00
   0.16900000E+01           0.73989221E+00
   0.17000000E+01           0.74089687E+00
   0.17100000E+01           0.74156325E+00
   0.17200000E+01           0.74221633E+00
   0.17300000E+01           0.74287616E+00
   0.17400000E+01           0.74385850E+00
   0.17500000E+01           0.74464406E+00
   0.17600000E+01           0.74506268E+00
   0.17700000E+01           0.74529506E+00
   0.17800000E+01           0.74599468E+00
   0.17900000E+01           0.74662574E+00
   0.18000000E+01           0.74680769E+00
   0.18100000E+01           0.74722346E+00
   0.18200000E+01           0.74750342E+00
   0.18300000E+01           0.74808841E+00
   0.18400000E+01           0.74809003E+00
   0.18500000E+01           0.74856923E+00
   0.18600000E+01           0.74843191E+00
   0.18700000E+01           0.74895404E+00
   0.18800000E+01           0.74894368E+00
   0.18900000E+01           0.74896325E+00
   0.19000000E+01           0.74846600E+00
   0.19100000E+01           0.74854520E+00
   0.19200000E+01           0.74888642E+00
   0.19300000E+01           0.74819782E+00
   0.19400000E+01           0.74846135E+00
   0.19500000E+01           0.74809962E+00
   0.19600000E+01           0.74831035E+00
   0.19700000E+01           0.74724359E+00
   0.19800000E+01           0.74682441E+00
   0.19900000E+01           0.74674672E+00
   0.20000000E+01           0.37318433E+00
