 #written on 16Sep2024 at 00:06:41 
 #----------------- MONTECARLO -------------------#
 #        M                      P(M)             #
 #------------------------------------------------#
 #T=     5.0000
  -0.60000000E+01           0.00000000E+00
  -0.59900000E+01           0.00000000E+00
  -0.59800000E+01           0.00000000E+00
  -0.59700000E+01           0.00000000E+00
  -0.59600000E+01           0.00000000E+00
  -0.59500000E+01           0.00000000E+00
  -0.59400000E+01           0.00000000E+00
  -0.59300000E+01           0.00000000E+00
  -0.59200000E+01           0.00000000E+00
  -0.59100000E+01           0.00000000E+00
  -0.59000000E+01           0.00000000E+00
  -0.58900000E+01           0.00000000E+00
  -0.58800000E+01           0.00000000E+00
  -0.58700000E+01           0.00000000E+00
  -0.58600000E+01           0.00000000E+00
  -0.58500000E+01           0.00000000E+00
  -0.58400000E+01           0.00000000E+00
  -0.58300000E+01           0.00000000E+00
  -0.58200000E+01           0.00000000E+00
  -0.58100000E+01           0.00000000E+00
  -0.58000000E+01           0.00000000E+00
  -0.57900000E+01           0.00000000E+00
  -0.57800000E+01           0.00000000E+00
  -0.57700000E+01           0.00000000E+00
  -0.57600000E+01           0.00000000E+00
  -0.57500000E+01           0.00000000E+00
  -0.57400000E+01           0.00000000E+00
  -0.57300000E+01           0.00000000E+00
  -0.57200000E+01           0.00000000E+00
  -0.57100000E+01           0.00000000E+00
  -0.57000000E+01           0.00000000E+00
  -0.56900000E+01           0.00000000E+00
  -0.56800000E+01           0.00000000E+00
  -0.56700000E+01           0.00000000E+00
  -0.56600000E+01           0.00000000E+00
  -0.56500000E+01           0.00000000E+00
  -0.56400000E+01           0.00000000E+00
  -0.56300000E+01           0.00000000E+00
  -0.56200000E+01           0.00000000E+00
  -0.56100000E+01           0.00000000E+00
  -0.56000000E+01           0.00000000E+00
  -0.55900000E+01           0.00000000E+00
  -0.55800000E+01           0.00000000E+00
  -0.55700000E+01           0.00000000E+00
  -0.55600000E+01           0.00000000E+00
  -0.55500000E+01           0.00000000E+00
  -0.55400000E+01           0.00000000E+00
  -0.55300000E+01           0.00000000E+00
  -0.55200000E+01           0.00000000E+00
  -0.55100000E+01           0.00000000E+00
  -0.55000000E+01           0.00000000E+00
  -0.54900000E+01           0.00000000E+00
  -0.54800000E+01           0.00000000E+00
  -0.54700000E+01           0.00000000E+00
  -0.54600000E+01           0.00000000E+00
  -0.54500000E+01           0.00000000E+00
  -0.54400000E+01           0.00000000E+00
  -0.54300000E+01           0.00000000E+00
  -0.54200000E+01           0.00000000E+00
  -0.54100000E+01           0.00000000E+00
  -0.54000000E+01           0.00000000E+00
  -0.53900000E+01           0.00000000E+00
  -0.53800000E+01           0.00000000E+00
  -0.53700000E+01           0.00000000E+00
  -0.53600000E+01           0.00000000E+00
  -0.53500000E+01           0.00000000E+00
  -0.53400000E+01           0.00000000E+00
  -0.53300000E+01           0.00000000E+00
  -0.53200000E+01           0.00000000E+00
  -0.53100000E+01           0.00000000E+00
  -0.53000000E+01           0.00000000E+00
  -0.52900000E+01           0.00000000E+00
  -0.52800000E+01           0.00000000E+00
  -0.52700000E+01           0.00000000E+00
  -0.52600000E+01           0.00000000E+00
  -0.52500000E+01           0.00000000E+00
  -0.52400000E+01           0.00000000E+00
  -0.52300000E+01           0.00000000E+00
  -0.52200000E+01           0.00000000E+00
  -0.52100000E+01           0.00000000E+00
  -0.52000000E+01           0.00000000E+00
  -0.51900000E+01           0.00000000E+00
  -0.51800000E+01           0.00000000E+00
  -0.51700000E+01           0.00000000E+00
  -0.51600000E+01           0.00000000E+00
  -0.51500000E+01           0.00000000E+00
  -0.51400000E+01           0.00000000E+00
  -0.51300000E+01           0.00000000E+00
  -0.51200000E+01           0.00000000E+00
  -0.51100000E+01           0.00000000E+00
  -0.51000000E+01           0.00000000E+00
  -0.50900000E+01           0.00000000E+00
  -0.50800000E+01           0.00000000E+00
  -0.50700000E+01           0.00000000E+00
  -0.50600000E+01           0.00000000E+00
  -0.50500000E+01           0.00000000E+00
  -0.50400000E+01           0.00000000E+00
  -0.50300000E+01           0.00000000E+00
  -0.50200000E+01           0.00000000E+00
  -0.50100000E+01           0.00000000E+00
  -0.50000000E+01           0.00000000E+00
  -0.49900000E+01           0.00000000E+00
  -0.49800000E+01           0.00000000E+00
  -0.49700000E+01           0.00000000E+00
  -0.49600000E+01           0.00000000E+00
  -0.49500000E+01           0.00000000E+00
  -0.49400000E+01           0.00000000E+00
  -0.49300000E+01           0.00000000E+00
  -0.49200000E+01           0.00000000E+00
  -0.49100000E+01           0.00000000E+00
  -0.49000000E+01           0.00000000E+00
  -0.48900000E+01           0.00000000E+00
  -0.48800000E+01           0.00000000E+00
  -0.48700000E+01           0.00000000E+00
  -0.48600000E+01           0.00000000E+00
  -0.48500000E+01           0.00000000E+00
  -0.48400000E+01           0.00000000E+00
  -0.48300000E+01           0.00000000E+00
  -0.48200000E+01           0.00000000E+00
  -0.48100000E+01           0.00000000E+00
  -0.48000000E+01           0.00000000E+00
  -0.47900000E+01           0.00000000E+00
  -0.47800000E+01           0.00000000E+00
  -0.47700000E+01           0.00000000E+00
  -0.47600000E+01           0.00000000E+00
  -0.47500000E+01           0.00000000E+00
  -0.47400000E+01           0.00000000E+00
  -0.47300000E+01           0.00000000E+00
  -0.47200000E+01           0.00000000E+00
  -0.47100000E+01           0.00000000E+00
  -0.47000000E+01           0.00000000E+00
  -0.46900000E+01           0.00000000E+00
  -0.46800000E+01           0.00000000E+00
  -0.46700000E+01           0.00000000E+00
  -0.46600000E+01           0.00000000E+00
  -0.46500000E+01           0.00000000E+00
  -0.46400000E+01           0.00000000E+00
  -0.46300000E+01           0.00000000E+00
  -0.46200000E+01           0.00000000E+00
  -0.46100000E+01           0.00000000E+00
  -0.46000000E+01           0.00000000E+00
  -0.45900000E+01           0.00000000E+00
  -0.45800000E+01           0.00000000E+00
  -0.45700000E+01           0.00000000E+00
  -0.45600000E+01           0.00000000E+00
  -0.45500000E+01           0.00000000E+00
  -0.45400000E+01           0.00000000E+00
  -0.45300000E+01           0.00000000E+00
  -0.45200000E+01           0.00000000E+00
  -0.45100000E+01           0.00000000E+00
  -0.45000000E+01           0.00000000E+00
  -0.44900000E+01           0.00000000E+00
  -0.44800000E+01           0.00000000E+00
  -0.44700000E+01           0.00000000E+00
  -0.44600000E+01           0.00000000E+00
  -0.44500000E+01           0.00000000E+00
  -0.44400000E+01           0.00000000E+00
  -0.44300000E+01           0.00000000E+00
  -0.44200000E+01           0.00000000E+00
  -0.44100000E+01           0.00000000E+00
  -0.44000000E+01           0.00000000E+00
  -0.43900000E+01           0.00000000E+00
  -0.43800000E+01           0.00000000E+00
  -0.43700000E+01           0.00000000E+00
  -0.43600000E+01           0.00000000E+00
  -0.43500000E+01           0.00000000E+00
  -0.43400000E+01           0.00000000E+00
  -0.43300000E+01           0.00000000E+00
  -0.43200000E+01           0.00000000E+00
  -0.43100000E+01           0.00000000E+00
  -0.43000000E+01           0.00000000E+00
  -0.42900000E+01           0.00000000E+00
  -0.42800000E+01           0.00000000E+00
  -0.42700000E+01           0.00000000E+00
  -0.42600000E+01           0.00000000E+00
  -0.42500000E+01           0.00000000E+00
  -0.42400000E+01           0.00000000E+00
  -0.42300000E+01           0.00000000E+00
  -0.42200000E+01           0.00000000E+00
  -0.42100000E+01           0.00000000E+00
  -0.42000000E+01           0.00000000E+00
  -0.41900000E+01           0.00000000E+00
  -0.41800000E+01           0.00000000E+00
  -0.41700000E+01           0.00000000E+00
  -0.41600000E+01           0.00000000E+00
  -0.41500000E+01           0.00000000E+00
  -0.41400000E+01           0.00000000E+00
  -0.41300000E+01           0.00000000E+00
  -0.41200000E+01           0.00000000E+00
  -0.41100000E+01           0.00000000E+00
  -0.41000000E+01           0.00000000E+00
  -0.40900000E+01           0.00000000E+00
  -0.40800000E+01           0.00000000E+00
  -0.40700000E+01           0.00000000E+00
  -0.40600000E+01           0.00000000E+00
  -0.40500000E+01           0.00000000E+00
  -0.40400000E+01           0.00000000E+00
  -0.40300000E+01           0.00000000E+00
  -0.40200000E+01           0.00000000E+00
  -0.40100000E+01           0.00000000E+00
  -0.40000000E+01           0.00000000E+00
  -0.39900000E+01           0.00000000E+00
  -0.39800000E+01           0.00000000E+00
  -0.39700000E+01           0.00000000E+00
  -0.39600000E+01           0.00000000E+00
  -0.39500000E+01           0.00000000E+00
  -0.39400000E+01           0.00000000E+00
  -0.39300000E+01           0.00000000E+00
  -0.39200000E+01           0.00000000E+00
  -0.39100000E+01           0.00000000E+00
  -0.39000000E+01           0.00000000E+00
  -0.38900000E+01           0.00000000E+00
  -0.38800000E+01           0.00000000E+00
  -0.38700000E+01           0.00000000E+00
  -0.38600000E+01           0.00000000E+00
  -0.38500000E+01           0.00000000E+00
  -0.38400000E+01           0.00000000E+00
  -0.38300000E+01           0.00000000E+00
  -0.38200000E+01           0.00000000E+00
  -0.38100000E+01           0.00000000E+00
  -0.38000000E+01           0.00000000E+00
  -0.37900000E+01           0.00000000E+00
  -0.37800000E+01           0.00000000E+00
  -0.37700000E+01           0.00000000E+00
  -0.37600000E+01           0.00000000E+00
  -0.37500000E+01           0.00000000E+00
  -0.37400000E+01           0.00000000E+00
  -0.37300000E+01           0.00000000E+00
  -0.37200000E+01           0.00000000E+00
  -0.37100000E+01           0.00000000E+00
  -0.37000000E+01           0.00000000E+00
  -0.36900000E+01           0.00000000E+00
  -0.36800000E+01           0.00000000E+00
  -0.36700000E+01           0.00000000E+00
  -0.36600000E+01           0.00000000E+00
  -0.36500000E+01           0.00000000E+00
  -0.36400000E+01           0.00000000E+00
  -0.36300000E+01           0.00000000E+00
  -0.36200000E+01           0.00000000E+00
  -0.36100000E+01           0.00000000E+00
  -0.36000000E+01           0.00000000E+00
  -0.35900000E+01           0.00000000E+00
  -0.35800000E+01           0.00000000E+00
  -0.35700000E+01           0.00000000E+00
  -0.35600000E+01           0.00000000E+00
  -0.35500000E+01           0.00000000E+00
  -0.35400000E+01           0.00000000E+00
  -0.35300000E+01           0.00000000E+00
  -0.35200000E+01           0.00000000E+00
  -0.35100000E+01           0.00000000E+00
  -0.35000000E+01           0.00000000E+00
  -0.34900000E+01           0.00000000E+00
  -0.34800000E+01           0.00000000E+00
  -0.34700000E+01           0.00000000E+00
  -0.34600000E+01           0.00000000E+00
  -0.34500000E+01           0.00000000E+00
  -0.34400000E+01           0.00000000E+00
  -0.34300000E+01           0.00000000E+00
  -0.34200000E+01           0.00000000E+00
  -0.34100000E+01           0.00000000E+00
  -0.34000000E+01           0.00000000E+00
  -0.33900000E+01           0.00000000E+00
  -0.33800000E+01           0.00000000E+00
  -0.33700000E+01           0.00000000E+00
  -0.33600000E+01           0.00000000E+00
  -0.33500000E+01           0.00000000E+00
  -0.33400000E+01           0.00000000E+00
  -0.33300000E+01           0.00000000E+00
  -0.33200000E+01           0.00000000E+00
  -0.33100000E+01           0.00000000E+00
  -0.33000000E+01           0.00000000E+00
  -0.32900000E+01           0.00000000E+00
  -0.32800000E+01           0.00000000E+00
  -0.32700000E+01           0.00000000E+00
  -0.32600000E+01           0.00000000E+00
  -0.32500000E+01           0.00000000E+00
  -0.32400000E+01           0.00000000E+00
  -0.32300000E+01           0.00000000E+00
  -0.32200000E+01           0.00000000E+00
  -0.32100000E+01           0.00000000E+00
  -0.32000000E+01           0.00000000E+00
  -0.31900000E+01           0.00000000E+00
  -0.31800000E+01           0.00000000E+00
  -0.31700000E+01           0.00000000E+00
  -0.31600000E+01           0.00000000E+00
  -0.31500000E+01           0.00000000E+00
  -0.31400000E+01           0.00000000E+00
  -0.31300000E+01           0.00000000E+00
  -0.31200000E+01           0.00000000E+00
  -0.31100000E+01           0.00000000E+00
  -0.31000000E+01           0.00000000E+00
  -0.30900000E+01           0.00000000E+00
  -0.30800000E+01           0.00000000E+00
  -0.30700000E+01           0.00000000E+00
  -0.30600000E+01           0.00000000E+00
  -0.30500000E+01           0.00000000E+00
  -0.30400000E+01           0.00000000E+00
  -0.30300000E+01           0.00000000E+00
  -0.30200000E+01           0.00000000E+00
  -0.30100000E+01           0.00000000E+00
  -0.30000000E+01           0.00000000E+00
  -0.29900000E+01           0.00000000E+00
  -0.29800000E+01           0.00000000E+00
  -0.29700000E+01           0.00000000E+00
  -0.29600000E+01           0.00000000E+00
  -0.29500000E+01           0.00000000E+00
  -0.29400000E+01           0.00000000E+00
  -0.29300000E+01           0.00000000E+00
  -0.29200000E+01           0.00000000E+00
  -0.29100000E+01           0.00000000E+00
  -0.29000000E+01           0.00000000E+00
  -0.28900000E+01           0.00000000E+00
  -0.28800000E+01           0.00000000E+00
  -0.28700000E+01           0.00000000E+00
  -0.28600000E+01           0.00000000E+00
  -0.28500000E+01           0.00000000E+00
  -0.28400000E+01           0.00000000E+00
  -0.28300000E+01           0.00000000E+00
  -0.28200000E+01           0.00000000E+00
  -0.28100000E+01           0.00000000E+00
  -0.28000000E+01           0.00000000E+00
  -0.27900000E+01           0.00000000E+00
  -0.27800000E+01           0.00000000E+00
  -0.27700000E+01           0.00000000E+00
  -0.27600000E+01           0.00000000E+00
  -0.27500000E+01           0.00000000E+00
  -0.27400000E+01           0.00000000E+00
  -0.27300000E+01           0.00000000E+00
  -0.27200000E+01           0.00000000E+00
  -0.27100000E+01           0.00000000E+00
  -0.27000000E+01           0.00000000E+00
  -0.26900000E+01           0.00000000E+00
  -0.26800000E+01           0.00000000E+00
  -0.26700000E+01           0.00000000E+00
  -0.26600000E+01           0.00000000E+00
  -0.26500000E+01           0.00000000E+00
  -0.26400000E+01           0.00000000E+00
  -0.26300000E+01           0.00000000E+00
  -0.26200000E+01           0.00000000E+00
  -0.26100000E+01           0.00000000E+00
  -0.26000000E+01           0.00000000E+00
  -0.25900000E+01           0.00000000E+00
  -0.25800000E+01           0.00000000E+00
  -0.25700000E+01           0.00000000E+00
  -0.25600000E+01           0.00000000E+00
  -0.25500000E+01           0.00000000E+00
  -0.25400000E+01           0.00000000E+00
  -0.25300000E+01           0.00000000E+00
  -0.25200000E+01           0.00000000E+00
  -0.25100000E+01           0.00000000E+00
  -0.25000000E+01           0.00000000E+00
  -0.24900000E+01           0.00000000E+00
  -0.24800000E+01           0.00000000E+00
  -0.24700000E+01           0.00000000E+00
  -0.24600000E+01           0.00000000E+00
  -0.24500000E+01           0.00000000E+00
  -0.24400000E+01           0.00000000E+00
  -0.24300000E+01           0.00000000E+00
  -0.24200000E+01           0.00000000E+00
  -0.24100000E+01           0.00000000E+00
  -0.24000000E+01           0.00000000E+00
  -0.23900000E+01           0.00000000E+00
  -0.23800000E+01           0.00000000E+00
  -0.23700000E+01           0.00000000E+00
  -0.23600000E+01           0.00000000E+00
  -0.23500000E+01           0.00000000E+00
  -0.23400000E+01           0.00000000E+00
  -0.23300000E+01           0.00000000E+00
  -0.23200000E+01           0.00000000E+00
  -0.23100000E+01           0.00000000E+00
  -0.23000000E+01           0.00000000E+00
  -0.22900000E+01           0.00000000E+00
  -0.22800000E+01           0.00000000E+00
  -0.22700000E+01           0.00000000E+00
  -0.22600000E+01           0.00000000E+00
  -0.22500000E+01           0.00000000E+00
  -0.22400000E+01           0.00000000E+00
  -0.22300000E+01           0.00000000E+00
  -0.22200000E+01           0.00000000E+00
  -0.22100000E+01           0.00000000E+00
  -0.22000000E+01           0.00000000E+00
  -0.21900000E+01           0.00000000E+00
  -0.21800000E+01           0.00000000E+00
  -0.21700000E+01           0.00000000E+00
  -0.21600000E+01           0.00000000E+00
  -0.21500000E+01           0.00000000E+00
  -0.21400000E+01           0.00000000E+00
  -0.21300000E+01           0.00000000E+00
  -0.21200000E+01           0.00000000E+00
  -0.21100000E+01           0.00000000E+00
  -0.21000000E+01           0.00000000E+00
  -0.20900000E+01           0.00000000E+00
  -0.20800000E+01           0.00000000E+00
  -0.20700000E+01           0.00000000E+00
  -0.20600000E+01           0.00000000E+00
  -0.20500000E+01           0.00000000E+00
  -0.20400000E+01           0.00000000E+00
  -0.20300000E+01           0.00000000E+00
  -0.20200000E+01           0.00000000E+00
  -0.20100000E+01           0.00000000E+00
  -0.20000000E+01           0.00000000E+00
  -0.19900000E+01           0.00000000E+00
  -0.19800000E+01           0.00000000E+00
  -0.19700000E+01           0.00000000E+00
  -0.19600000E+01           0.00000000E+00
  -0.19500000E+01           0.00000000E+00
  -0.19400000E+01           0.00000000E+00
  -0.19300000E+01           0.00000000E+00
  -0.19200000E+01           0.00000000E+00
  -0.19100000E+01           0.00000000E+00
  -0.19000000E+01           0.00000000E+00
  -0.18900000E+01           0.00000000E+00
  -0.18800000E+01           0.00000000E+00
  -0.18700000E+01           0.00000000E+00
  -0.18600000E+01           0.00000000E+00
  -0.18500000E+01           0.00000000E+00
  -0.18400000E+01           0.00000000E+00
  -0.18300000E+01           0.00000000E+00
  -0.18200000E+01           0.00000000E+00
  -0.18100000E+01           0.00000000E+00
  -0.18000000E+01           0.00000000E+00
  -0.17900000E+01           0.00000000E+00
  -0.17800000E+01           0.00000000E+00
  -0.17700000E+01           0.00000000E+00
  -0.17600000E+01           0.00000000E+00
  -0.17500000E+01           0.00000000E+00
  -0.17400000E+01           0.00000000E+00
  -0.17300000E+01           0.00000000E+00
  -0.17200000E+01           0.00000000E+00
  -0.17100000E+01           0.00000000E+00
  -0.17000000E+01           0.00000000E+00
  -0.16900000E+01           0.00000000E+00
  -0.16800000E+01           0.00000000E+00
  -0.16700000E+01           0.00000000E+00
  -0.16600000E+01           0.00000000E+00
  -0.16500000E+01           0.00000000E+00
  -0.16400000E+01           0.00000000E+00
  -0.16300000E+01           0.00000000E+00
  -0.16200000E+01           0.00000000E+00
  -0.16100000E+01           0.00000000E+00
  -0.16000000E+01           0.00000000E+00
  -0.15900000E+01           0.00000000E+00
  -0.15800000E+01           0.00000000E+00
  -0.15700000E+01           0.00000000E+00
  -0.15600000E+01           0.00000000E+00
  -0.15500000E+01           0.00000000E+00
  -0.15400000E+01           0.00000000E+00
  -0.15300000E+01           0.00000000E+00
  -0.15200000E+01           0.00000000E+00
  -0.15100000E+01           0.00000000E+00
  -0.15000000E+01           0.00000000E+00
  -0.14900000E+01           0.00000000E+00
  -0.14800000E+01           0.00000000E+00
  -0.14700000E+01           0.00000000E+00
  -0.14600000E+01           0.00000000E+00
  -0.14500000E+01           0.00000000E+00
  -0.14400000E+01           0.00000000E+00
  -0.14300000E+01           0.00000000E+00
  -0.14200000E+01           0.00000000E+00
  -0.14100000E+01           0.00000000E+00
  -0.14000000E+01           0.00000000E+00
  -0.13900000E+01           0.00000000E+00
  -0.13800000E+01           0.00000000E+00
  -0.13700000E+01           0.00000000E+00
  -0.13600000E+01           0.00000000E+00
  -0.13500000E+01           0.00000000E+00
  -0.13400000E+01           0.00000000E+00
  -0.13300000E+01           0.00000000E+00
  -0.13200000E+01           0.00000000E+00
  -0.13100000E+01           0.00000000E+00
  -0.13000000E+01           0.00000000E+00
  -0.12900000E+01           0.00000000E+00
  -0.12800000E+01           0.00000000E+00
  -0.12700000E+01           0.00000000E+00
  -0.12600000E+01           0.00000000E+00
  -0.12500000E+01           0.00000000E+00
  -0.12400000E+01           0.00000000E+00
  -0.12300000E+01           0.00000000E+00
  -0.12200000E+01           0.00000000E+00
  -0.12100000E+01           0.00000000E+00
  -0.12000000E+01           0.00000000E+00
  -0.11900000E+01           0.00000000E+00
  -0.11800000E+01           0.00000000E+00
  -0.11700000E+01           0.00000000E+00
  -0.11600000E+01           0.00000000E+00
  -0.11500000E+01           0.00000000E+00
  -0.11400000E+01           0.00000000E+00
  -0.11300000E+01           0.00000000E+00
  -0.11200000E+01           0.00000000E+00
  -0.11100000E+01           0.00000000E+00
  -0.11000000E+01           0.00000000E+00
  -0.10900000E+01           0.00000000E+00
  -0.10800000E+01           0.00000000E+00
  -0.10700000E+01           0.00000000E+00
  -0.10600000E+01           0.00000000E+00
  -0.10500000E+01           0.00000000E+00
  -0.10400000E+01           0.00000000E+00
  -0.10300000E+01           0.00000000E+00
  -0.10200000E+01           0.00000000E+00
  -0.10100000E+01           0.00000000E+00
  -0.10000000E+01           0.00000000E+00
  -0.99000000E+00           0.00000000E+00
  -0.98000000E+00           0.00000000E+00
  -0.97000000E+00           0.00000000E+00
  -0.96000000E+00           0.00000000E+00
  -0.95000000E+00           0.00000000E+00
  -0.94000000E+00           0.00000000E+00
  -0.93000000E+00           0.00000000E+00
  -0.92000000E+00           0.00000000E+00
  -0.91000000E+00           0.00000000E+00
  -0.90000000E+00           0.00000000E+00
  -0.89000000E+00           0.00000000E+00
  -0.88000000E+00           0.00000000E+00
  -0.87000000E+00           0.00000000E+00
  -0.86000000E+00           0.00000000E+00
  -0.85000000E+00           0.00000000E+00
  -0.84000000E+00           0.00000000E+00
  -0.83000000E+00           0.00000000E+00
  -0.82000000E+00           0.00000000E+00
  -0.81000000E+00           0.00000000E+00
  -0.80000000E+00           0.00000000E+00
  -0.79000000E+00           0.00000000E+00
  -0.78000000E+00           0.00000000E+00
  -0.77000000E+00           0.00000000E+00
  -0.76000000E+00           0.00000000E+00
  -0.75000000E+00           0.00000000E+00
  -0.74000000E+00           0.00000000E+00
  -0.73000000E+00           0.00000000E+00
  -0.72000000E+00           0.00000000E+00
  -0.71000000E+00           0.00000000E+00
  -0.70000000E+00           0.00000000E+00
  -0.69000000E+00           0.00000000E+00
  -0.68000000E+00           0.00000000E+00
  -0.67000000E+00           0.00000000E+00
  -0.66000000E+00           0.00000000E+00
  -0.65000000E+00           0.00000000E+00
  -0.64000000E+00           0.00000000E+00
  -0.63000000E+00           0.00000000E+00
  -0.62000000E+00           0.00000000E+00
  -0.61000000E+00           0.00000000E+00
  -0.60000000E+00           0.00000000E+00
  -0.59000000E+00           0.00000000E+00
  -0.58000000E+00           0.00000000E+00
  -0.57000000E+00           0.00000000E+00
  -0.56000000E+00           0.00000000E+00
  -0.55000000E+00           0.00000000E+00
  -0.54000000E+00           0.00000000E+00
  -0.53000000E+00           0.00000000E+00
  -0.52000000E+00           0.00000000E+00
  -0.51000000E+00           0.00000000E+00
  -0.50000000E+00           0.00000000E+00
  -0.49000000E+00           0.00000000E+00
  -0.48000000E+00           0.00000000E+00
  -0.47000000E+00           0.00000000E+00
  -0.46000000E+00           0.00000000E+00
  -0.45000000E+00           0.00000000E+00
  -0.44000000E+00           0.00000000E+00
  -0.43000000E+00           0.00000000E+00
  -0.42000000E+00           0.00000000E+00
  -0.41000000E+00           0.00000000E+00
  -0.40000000E+00           0.00000000E+00
  -0.39000000E+00           0.00000000E+00
  -0.38000000E+00           0.00000000E+00
  -0.37000000E+00           0.00000000E+00
  -0.36000000E+00           0.00000000E+00
  -0.35000000E+00           0.00000000E+00
  -0.34000000E+00           0.00000000E+00
  -0.33000000E+00           0.00000000E+00
  -0.32000000E+00           0.00000000E+00
  -0.31000000E+00           0.00000000E+00
  -0.30000000E+00           0.00000000E+00
  -0.29000000E+00           0.00000000E+00
  -0.28000000E+00           0.00000000E+00
  -0.27000000E+00           0.00000000E+00
  -0.26000000E+00           0.00000000E+00
  -0.25000000E+00           0.00000000E+00
  -0.24000000E+00           0.00000000E+00
  -0.23000000E+00           0.00000000E+00
  -0.22000000E+00           0.00000000E+00
  -0.21000000E+00           0.00000000E+00
  -0.20000000E+00           0.00000000E+00
  -0.19000000E+00           0.00000000E+00
  -0.18000000E+00           0.00000000E+00
  -0.17000000E+00           0.00000000E+00
  -0.16000000E+00           0.00000000E+00
  -0.15000000E+00           0.00000000E+00
  -0.14000000E+00           0.00000000E+00
  -0.13000000E+00           0.00000000E+00
  -0.12000000E+00           0.00000000E+00
  -0.11000000E+00           0.00000000E+00
  -0.10000000E+00           0.00000000E+00
  -0.90000000E-01           0.00000000E+00
  -0.80000000E-01           0.00000000E+00
  -0.70000000E-01           0.00000000E+00
  -0.60000000E-01           0.00000000E+00
  -0.50000000E-01           0.00000000E+00
  -0.40000000E-01           0.00000000E+00
  -0.30000000E-01           0.00000000E+00
  -0.20000000E-01           0.00000000E+00
  -0.10000000E-01           0.00000000E+00
   0.00000000E+00           0.39750000E-03
   0.10000000E-01           0.10904500E-01
   0.20000000E-01           0.40379500E-01
   0.30000000E-01           0.85525000E-01
   0.40000000E-01           0.14363425E+00
   0.50000000E-01           0.21130925E+00
   0.60000000E-01           0.28584725E+00
   0.70000000E-01           0.36065550E+00
   0.80000000E-01           0.43943450E+00
   0.90000000E-01           0.51777075E+00
   0.10000000E+00           0.59716425E+00
   0.11000000E+00           0.67305650E+00
   0.12000000E+00           0.74642900E+00
   0.13000000E+00           0.81623425E+00
   0.14000000E+00           0.88535075E+00
   0.15000000E+00           0.94741875E+00
   0.16000000E+00           0.10101452E+01
   0.17000000E+00           0.10693710E+01
   0.18000000E+00           0.11255365E+01
   0.19000000E+00           0.11789512E+01
   0.20000000E+00           0.12298520E+01
   0.21000000E+00           0.12780527E+01
   0.22000000E+00           0.13202510E+01
   0.23000000E+00           0.13597342E+01
   0.24000000E+00           0.13989517E+01
   0.25000000E+00           0.14331545E+01
   0.26000000E+00           0.14648413E+01
   0.27000000E+00           0.14966355E+01
   0.28000000E+00           0.15230263E+01
   0.29000000E+00           0.15452962E+01
   0.30000000E+00           0.15674750E+01
   0.31000000E+00           0.15872072E+01
   0.32000000E+00           0.16020288E+01
   0.33000000E+00           0.16159492E+01
   0.34000000E+00           0.16276535E+01
   0.35000000E+00           0.16331230E+01
   0.36000000E+00           0.16375520E+01
   0.37000000E+00           0.16415840E+01
   0.38000000E+00           0.16407840E+01
   0.39000000E+00           0.16417265E+01
   0.40000000E+00           0.16341862E+01
   0.41000000E+00           0.16304292E+01
   0.42000000E+00           0.16234082E+01
   0.43000000E+00           0.16120905E+01
   0.44000000E+00           0.16042722E+01
   0.45000000E+00           0.15858085E+01
   0.46000000E+00           0.15710085E+01
   0.47000000E+00           0.15546075E+01
   0.48000000E+00           0.15328277E+01
   0.49000000E+00           0.15139722E+01
   0.50000000E+00           0.14912832E+01
   0.51000000E+00           0.14704465E+01
   0.52000000E+00           0.14432350E+01
   0.53000000E+00           0.14190685E+01
   0.54000000E+00           0.13922067E+01
   0.55000000E+00           0.13624582E+01
   0.56000000E+00           0.13372047E+01
   0.57000000E+00           0.13083472E+01
   0.58000000E+00           0.12790237E+01
   0.59000000E+00           0.12457195E+01
   0.60000000E+00           0.12160532E+01
   0.61000000E+00           0.11851715E+01
   0.62000000E+00           0.11534232E+01
   0.63000000E+00           0.11200045E+01
   0.64000000E+00           0.10902108E+01
   0.65000000E+00           0.10546032E+01
   0.66000000E+00           0.10247325E+01
   0.67000000E+00           0.99208100E+00
   0.68000000E+00           0.95867375E+00
   0.69000000E+00           0.92722500E+00
   0.70000000E+00           0.89437325E+00
   0.71000000E+00           0.86427400E+00
   0.72000000E+00           0.83371575E+00
   0.73000000E+00           0.80263900E+00
   0.74000000E+00           0.77175975E+00
   0.75000000E+00           0.74144175E+00
   0.76000000E+00           0.71215100E+00
   0.77000000E+00           0.68285700E+00
   0.78000000E+00           0.65394875E+00
   0.79000000E+00           0.62756325E+00
   0.80000000E+00           0.60033875E+00
   0.81000000E+00           0.57364850E+00
   0.82000000E+00           0.54687950E+00
   0.83000000E+00           0.52318075E+00
   0.84000000E+00           0.49806600E+00
   0.85000000E+00           0.47439650E+00
   0.86000000E+00           0.45192175E+00
   0.87000000E+00           0.42888350E+00
   0.88000000E+00           0.40676100E+00
   0.89000000E+00           0.38731100E+00
   0.90000000E+00           0.36700600E+00
   0.91000000E+00           0.34822750E+00
   0.92000000E+00           0.33010450E+00
   0.93000000E+00           0.31162225E+00
   0.94000000E+00           0.29455725E+00
   0.95000000E+00           0.27808825E+00
   0.96000000E+00           0.26201950E+00
   0.97000000E+00           0.24602275E+00
   0.98000000E+00           0.23282825E+00
   0.99000000E+00           0.21884900E+00
   0.10000000E+01           0.20649200E+00
   0.10100000E+01           0.19316925E+00
   0.10200000E+01           0.18178525E+00
   0.10300000E+01           0.17038575E+00
   0.10400000E+01           0.15878375E+00
   0.10500000E+01           0.14871525E+00
   0.10600000E+01           0.13907275E+00
   0.10700000E+01           0.12960750E+00
   0.10800000E+01           0.12172850E+00
   0.10900000E+01           0.11320000E+00
   0.11000000E+01           0.10520875E+00
   0.11100000E+01           0.97660000E-01
   0.11200000E+01           0.91079500E-01
   0.11300000E+01           0.84572500E-01
   0.11400000E+01           0.78726750E-01
   0.11500000E+01           0.72931000E-01
   0.11600000E+01           0.67127500E-01
   0.11700000E+01           0.62562500E-01
   0.11800000E+01           0.57588500E-01
   0.11900000E+01           0.53542500E-01
   0.12000000E+01           0.49330500E-01
   0.12100000E+01           0.45244250E-01
   0.12200000E+01           0.42069000E-01
   0.12300000E+01           0.38533250E-01
   0.12400000E+01           0.35517750E-01
   0.12500000E+01           0.32887000E-01
   0.12600000E+01           0.30104750E-01
   0.12700000E+01           0.27503000E-01
   0.12800000E+01           0.25234250E-01
   0.12900000E+01           0.22854000E-01
   0.13000000E+01           0.20909250E-01
   0.13100000E+01           0.19421250E-01
   0.13200000E+01           0.17698750E-01
   0.13300000E+01           0.16263750E-01
   0.13400000E+01           0.14784500E-01
   0.13500000E+01           0.13523250E-01
   0.13600000E+01           0.12204000E-01
   0.13700000E+01           0.11193750E-01
   0.13800000E+01           0.10013500E-01
   0.13900000E+01           0.90445000E-02
   0.14000000E+01           0.80620000E-02
   0.14100000E+01           0.74175000E-02
   0.14200000E+01           0.67712500E-02
   0.14300000E+01           0.60630000E-02
   0.14400000E+01           0.55065000E-02
   0.14500000E+01           0.50740000E-02
   0.14600000E+01           0.46820000E-02
   0.14700000E+01           0.40460000E-02
   0.14800000E+01           0.36695000E-02
   0.14900000E+01           0.32705000E-02
   0.15000000E+01           0.29985000E-02
   0.15100000E+01           0.26507500E-02
   0.15200000E+01           0.24602500E-02
   0.15300000E+01           0.21537500E-02
   0.15400000E+01           0.19145000E-02
   0.15500000E+01           0.16945000E-02
   0.15600000E+01           0.15227500E-02
   0.15700000E+01           0.14072500E-02
   0.15800000E+01           0.12390000E-02
   0.15900000E+01           0.11050000E-02
   0.16000000E+01           0.97250000E-03
   0.16100000E+01           0.86650000E-03
   0.16200000E+01           0.77750000E-03
   0.16300000E+01           0.69675000E-03
   0.16400000E+01           0.62250000E-03
   0.16500000E+01           0.55025000E-03
   0.16600000E+01           0.46400000E-03
   0.16700000E+01           0.39975000E-03
   0.16800000E+01           0.38425000E-03
   0.16900000E+01           0.33425000E-03
   0.17000000E+01           0.29425000E-03
   0.17100000E+01           0.24775000E-03
   0.17200000E+01           0.21800000E-03
   0.17300000E+01           0.22825000E-03
   0.17400000E+01           0.17875000E-03
   0.17500000E+01           0.14250000E-03
   0.17600000E+01           0.12275000E-03
   0.17700000E+01           0.10800000E-03
   0.17800000E+01           0.11125000E-03
   0.17900000E+01           0.89250000E-04
   0.18000000E+01           0.71250000E-04
   0.18100000E+01           0.66750000E-04
   0.18200000E+01           0.61250000E-04
   0.18300000E+01           0.66000000E-04
   0.18400000E+01           0.49000000E-04
   0.18500000E+01           0.36000000E-04
   0.18600000E+01           0.34250000E-04
   0.18700000E+01           0.30250000E-04
   0.18800000E+01           0.30500000E-04
   0.18900000E+01           0.24750000E-04
   0.19000000E+01           0.19750000E-04
   0.19100000E+01           0.13250000E-04
   0.19200000E+01           0.12750000E-04
   0.19300000E+01           0.11500000E-04
   0.19400000E+01           0.14250000E-04
   0.19500000E+01           0.65000000E-05
   0.19600000E+01           0.57500000E-05
   0.19700000E+01           0.11500000E-04
   0.19800000E+01           0.42500000E-05
   0.19900000E+01           0.27500000E-05
   0.20000000E+01           0.25000000E-05
   0.20100000E+01           0.45000000E-05
   0.20200000E+01           0.10000000E-05
   0.20300000E+01           0.30000000E-05
   0.20400000E+01           0.22500000E-05
   0.20500000E+01           0.75000000E-06
   0.20600000E+01           0.50000000E-06
   0.20700000E+01           0.15000000E-05
   0.20800000E+01           0.50000000E-06
   0.20900000E+01           0.50000000E-06
   0.21000000E+01           0.75000000E-06
   0.21100000E+01           0.00000000E+00
   0.21200000E+01           0.15000000E-05
   0.21300000E+01           0.25000000E-06
   0.21400000E+01           0.25000000E-06
   0.21500000E+01           0.25000000E-06
   0.21600000E+01           0.00000000E+00
   0.21700000E+01           0.25000000E-06
   0.21800000E+01           0.15000000E-05
   0.21900000E+01           0.00000000E+00
   0.22000000E+01           0.00000000E+00
   0.22100000E+01           0.50000000E-06
   0.22200000E+01           0.00000000E+00
   0.22300000E+01           0.00000000E+00
   0.22400000E+01           0.00000000E+00
   0.22500000E+01           0.00000000E+00
   0.22600000E+01           0.00000000E+00
   0.22700000E+01           0.00000000E+00
   0.22800000E+01           0.00000000E+00
   0.22900000E+01           0.75000000E-06
   0.23000000E+01           0.00000000E+00
   0.23100000E+01           0.00000000E+00
   0.23200000E+01           0.00000000E+00
   0.23300000E+01           0.00000000E+00
   0.23400000E+01           0.00000000E+00
   0.23500000E+01           0.00000000E+00
   0.23600000E+01           0.00000000E+00
   0.23700000E+01           0.00000000E+00
   0.23800000E+01           0.00000000E+00
   0.23900000E+01           0.00000000E+00
   0.24000000E+01           0.00000000E+00
   0.24100000E+01           0.00000000E+00
   0.24200000E+01           0.00000000E+00
   0.24300000E+01           0.00000000E+00
   0.24400000E+01           0.00000000E+00
   0.24500000E+01           0.00000000E+00
   0.24600000E+01           0.00000000E+00
   0.24700000E+01           0.00000000E+00
   0.24800000E+01           0.00000000E+00
   0.24900000E+01           0.00000000E+00
   0.25000000E+01           0.00000000E+00
   0.25100000E+01           0.00000000E+00
   0.25200000E+01           0.00000000E+00
   0.25300000E+01           0.00000000E+00
   0.25400000E+01           0.00000000E+00
   0.25500000E+01           0.00000000E+00
   0.25600000E+01           0.00000000E+00
   0.25700000E+01           0.00000000E+00
   0.25800000E+01           0.00000000E+00
   0.25900000E+01           0.00000000E+00
   0.26000000E+01           0.00000000E+00
   0.26100000E+01           0.00000000E+00
   0.26200000E+01           0.00000000E+00
   0.26300000E+01           0.00000000E+00
   0.26400000E+01           0.00000000E+00
   0.26500000E+01           0.00000000E+00
   0.26600000E+01           0.00000000E+00
   0.26700000E+01           0.00000000E+00
   0.26800000E+01           0.00000000E+00
   0.26900000E+01           0.00000000E+00
   0.27000000E+01           0.00000000E+00
   0.27100000E+01           0.00000000E+00
   0.27200000E+01           0.00000000E+00
   0.27300000E+01           0.00000000E+00
   0.27400000E+01           0.00000000E+00
   0.27500000E+01           0.00000000E+00
   0.27600000E+01           0.00000000E+00
   0.27700000E+01           0.00000000E+00
   0.27800000E+01           0.00000000E+00
   0.27900000E+01           0.00000000E+00
   0.28000000E+01           0.00000000E+00
   0.28100000E+01           0.00000000E+00
   0.28200000E+01           0.00000000E+00
   0.28300000E+01           0.00000000E+00
   0.28400000E+01           0.00000000E+00
   0.28500000E+01           0.00000000E+00
   0.28600000E+01           0.00000000E+00
   0.28700000E+01           0.00000000E+00
   0.28800000E+01           0.00000000E+00
   0.28900000E+01           0.00000000E+00
   0.29000000E+01           0.00000000E+00
   0.29100000E+01           0.00000000E+00
   0.29200000E+01           0.00000000E+00
   0.29300000E+01           0.00000000E+00
   0.29400000E+01           0.00000000E+00
   0.29500000E+01           0.00000000E+00
   0.29600000E+01           0.00000000E+00
   0.29700000E+01           0.00000000E+00
   0.29800000E+01           0.00000000E+00
   0.29900000E+01           0.00000000E+00
   0.30000000E+01           0.00000000E+00
   0.30100000E+01           0.00000000E+00
   0.30200000E+01           0.00000000E+00
   0.30300000E+01           0.00000000E+00
   0.30400000E+01           0.00000000E+00
   0.30500000E+01           0.00000000E+00
   0.30600000E+01           0.00000000E+00
   0.30700000E+01           0.00000000E+00
   0.30800000E+01           0.00000000E+00
   0.30900000E+01           0.00000000E+00
   0.31000000E+01           0.00000000E+00
   0.31100000E+01           0.00000000E+00
   0.31200000E+01           0.00000000E+00
   0.31300000E+01           0.00000000E+00
   0.31400000E+01           0.00000000E+00
   0.31500000E+01           0.00000000E+00
   0.31600000E+01           0.00000000E+00
   0.31700000E+01           0.00000000E+00
   0.31800000E+01           0.00000000E+00
   0.31900000E+01           0.00000000E+00
   0.32000000E+01           0.00000000E+00
   0.32100000E+01           0.00000000E+00
   0.32200000E+01           0.00000000E+00
   0.32300000E+01           0.00000000E+00
   0.32400000E+01           0.00000000E+00
   0.32500000E+01           0.00000000E+00
   0.32600000E+01           0.00000000E+00
   0.32700000E+01           0.00000000E+00
   0.32800000E+01           0.00000000E+00
   0.32900000E+01           0.00000000E+00
   0.33000000E+01           0.00000000E+00
   0.33100000E+01           0.00000000E+00
   0.33200000E+01           0.00000000E+00
   0.33300000E+01           0.00000000E+00
   0.33400000E+01           0.00000000E+00
   0.33500000E+01           0.00000000E+00
   0.33600000E+01           0.00000000E+00
   0.33700000E+01           0.00000000E+00
   0.33800000E+01           0.00000000E+00
   0.33900000E+01           0.00000000E+00
   0.34000000E+01           0.00000000E+00
   0.34100000E+01           0.00000000E+00
   0.34200000E+01           0.00000000E+00
   0.34300000E+01           0.00000000E+00
   0.34400000E+01           0.00000000E+00
   0.34500000E+01           0.00000000E+00
   0.34600000E+01           0.00000000E+00
   0.34700000E+01           0.00000000E+00
   0.34800000E+01           0.00000000E+00
   0.34900000E+01           0.00000000E+00
   0.35000000E+01           0.00000000E+00
   0.35100000E+01           0.00000000E+00
   0.35200000E+01           0.00000000E+00
   0.35300000E+01           0.00000000E+00
   0.35400000E+01           0.00000000E+00
   0.35500000E+01           0.00000000E+00
   0.35600000E+01           0.00000000E+00
   0.35700000E+01           0.00000000E+00
   0.35800000E+01           0.00000000E+00
   0.35900000E+01           0.00000000E+00
   0.36000000E+01           0.00000000E+00
   0.36100000E+01           0.00000000E+00
   0.36200000E+01           0.00000000E+00
   0.36300000E+01           0.00000000E+00
   0.36400000E+01           0.00000000E+00
   0.36500000E+01           0.00000000E+00
   0.36600000E+01           0.00000000E+00
   0.36700000E+01           0.00000000E+00
   0.36800000E+01           0.00000000E+00
   0.36900000E+01           0.00000000E+00
   0.37000000E+01           0.00000000E+00
   0.37100000E+01           0.00000000E+00
   0.37200000E+01           0.00000000E+00
   0.37300000E+01           0.00000000E+00
   0.37400000E+01           0.00000000E+00
   0.37500000E+01           0.00000000E+00
   0.37600000E+01           0.00000000E+00
   0.37700000E+01           0.00000000E+00
   0.37800000E+01           0.00000000E+00
   0.37900000E+01           0.00000000E+00
   0.38000000E+01           0.00000000E+00
   0.38100000E+01           0.00000000E+00
   0.38200000E+01           0.00000000E+00
   0.38300000E+01           0.00000000E+00
   0.38400000E+01           0.00000000E+00
   0.38500000E+01           0.00000000E+00
   0.38600000E+01           0.00000000E+00
   0.38700000E+01           0.00000000E+00
   0.38800000E+01           0.00000000E+00
   0.38900000E+01           0.00000000E+00
   0.39000000E+01           0.00000000E+00
   0.39100000E+01           0.00000000E+00
   0.39200000E+01           0.00000000E+00
   0.39300000E+01           0.00000000E+00
   0.39400000E+01           0.00000000E+00
   0.39500000E+01           0.00000000E+00
   0.39600000E+01           0.00000000E+00
   0.39700000E+01           0.00000000E+00
   0.39800000E+01           0.00000000E+00
   0.39900000E+01           0.00000000E+00
   0.40000000E+01           0.00000000E+00
   0.40100000E+01           0.00000000E+00
   0.40200000E+01           0.00000000E+00
   0.40300000E+01           0.00000000E+00
   0.40400000E+01           0.00000000E+00
   0.40500000E+01           0.00000000E+00
   0.40600000E+01           0.00000000E+00
   0.40700000E+01           0.00000000E+00
   0.40800000E+01           0.00000000E+00
   0.40900000E+01           0.00000000E+00
   0.41000000E+01           0.00000000E+00
   0.41100000E+01           0.00000000E+00
   0.41200000E+01           0.00000000E+00
   0.41300000E+01           0.00000000E+00
   0.41400000E+01           0.00000000E+00
   0.41500000E+01           0.00000000E+00
   0.41600000E+01           0.00000000E+00
   0.41700000E+01           0.00000000E+00
   0.41800000E+01           0.00000000E+00
   0.41900000E+01           0.00000000E+00
   0.42000000E+01           0.00000000E+00
   0.42100000E+01           0.00000000E+00
   0.42200000E+01           0.00000000E+00
   0.42300000E+01           0.00000000E+00
   0.42400000E+01           0.00000000E+00
   0.42500000E+01           0.00000000E+00
   0.42600000E+01           0.00000000E+00
   0.42700000E+01           0.00000000E+00
   0.42800000E+01           0.00000000E+00
   0.42900000E+01           0.00000000E+00
   0.43000000E+01           0.00000000E+00
   0.43100000E+01           0.00000000E+00
   0.43200000E+01           0.00000000E+00
   0.43300000E+01           0.00000000E+00
   0.43400000E+01           0.00000000E+00
   0.43500000E+01           0.00000000E+00
   0.43600000E+01           0.00000000E+00
   0.43700000E+01           0.00000000E+00
   0.43800000E+01           0.00000000E+00
   0.43900000E+01           0.00000000E+00
   0.44000000E+01           0.00000000E+00
   0.44100000E+01           0.00000000E+00
   0.44200000E+01           0.00000000E+00
   0.44300000E+01           0.00000000E+00
   0.44400000E+01           0.00000000E+00
   0.44500000E+01           0.00000000E+00
   0.44600000E+01           0.00000000E+00
   0.44700000E+01           0.00000000E+00
   0.44800000E+01           0.00000000E+00
   0.44900000E+01           0.00000000E+00
   0.45000000E+01           0.00000000E+00
   0.45100000E+01           0.00000000E+00
   0.45200000E+01           0.00000000E+00
   0.45300000E+01           0.00000000E+00
   0.45400000E+01           0.00000000E+00
   0.45500000E+01           0.00000000E+00
   0.45600000E+01           0.00000000E+00
   0.45700000E+01           0.00000000E+00
   0.45800000E+01           0.00000000E+00
   0.45900000E+01           0.00000000E+00
   0.46000000E+01           0.00000000E+00
   0.46100000E+01           0.00000000E+00
   0.46200000E+01           0.00000000E+00
   0.46300000E+01           0.00000000E+00
   0.46400000E+01           0.00000000E+00
   0.46500000E+01           0.00000000E+00
   0.46600000E+01           0.00000000E+00
   0.46700000E+01           0.00000000E+00
   0.46800000E+01           0.00000000E+00
   0.46900000E+01           0.00000000E+00
   0.47000000E+01           0.00000000E+00
   0.47100000E+01           0.00000000E+00
   0.47200000E+01           0.00000000E+00
   0.47300000E+01           0.00000000E+00
   0.47400000E+01           0.00000000E+00
   0.47500000E+01           0.00000000E+00
   0.47600000E+01           0.00000000E+00
   0.47700000E+01           0.00000000E+00
   0.47800000E+01           0.00000000E+00
   0.47900000E+01           0.00000000E+00
   0.48000000E+01           0.00000000E+00
   0.48100000E+01           0.00000000E+00
   0.48200000E+01           0.00000000E+00
   0.48300000E+01           0.00000000E+00
   0.48400000E+01           0.00000000E+00
   0.48500000E+01           0.00000000E+00
   0.48600000E+01           0.00000000E+00
   0.48700000E+01           0.00000000E+00
   0.48800000E+01           0.00000000E+00
   0.48900000E+01           0.00000000E+00
   0.49000000E+01           0.00000000E+00
   0.49100000E+01           0.00000000E+00
   0.49200000E+01           0.00000000E+00
   0.49300000E+01           0.00000000E+00
   0.49400000E+01           0.00000000E+00
   0.49500000E+01           0.00000000E+00
   0.49600000E+01           0.00000000E+00
   0.49700000E+01           0.00000000E+00
   0.49800000E+01           0.00000000E+00
   0.49900000E+01           0.00000000E+00
   0.50000000E+01           0.00000000E+00
   0.50100000E+01           0.00000000E+00
   0.50200000E+01           0.00000000E+00
   0.50300000E+01           0.00000000E+00
   0.50400000E+01           0.00000000E+00
   0.50500000E+01           0.00000000E+00
   0.50600000E+01           0.00000000E+00
   0.50700000E+01           0.00000000E+00
   0.50800000E+01           0.00000000E+00
   0.50900000E+01           0.00000000E+00
   0.51000000E+01           0.00000000E+00
   0.51100000E+01           0.00000000E+00
   0.51200000E+01           0.00000000E+00
   0.51300000E+01           0.00000000E+00
   0.51400000E+01           0.00000000E+00
   0.51500000E+01           0.00000000E+00
   0.51600000E+01           0.00000000E+00
   0.51700000E+01           0.00000000E+00
   0.51800000E+01           0.00000000E+00
   0.51900000E+01           0.00000000E+00
   0.52000000E+01           0.00000000E+00
   0.52100000E+01           0.00000000E+00
   0.52200000E+01           0.00000000E+00
   0.52300000E+01           0.00000000E+00
   0.52400000E+01           0.00000000E+00
   0.52500000E+01           0.00000000E+00
   0.52600000E+01           0.00000000E+00
   0.52700000E+01           0.00000000E+00
   0.52800000E+01           0.00000000E+00
   0.52900000E+01           0.00000000E+00
   0.53000000E+01           0.00000000E+00
   0.53100000E+01           0.00000000E+00
   0.53200000E+01           0.00000000E+00
   0.53300000E+01           0.00000000E+00
   0.53400000E+01           0.00000000E+00
   0.53500000E+01           0.00000000E+00
   0.53600000E+01           0.00000000E+00
   0.53700000E+01           0.00000000E+00
   0.53800000E+01           0.00000000E+00
   0.53900000E+01           0.00000000E+00
   0.54000000E+01           0.00000000E+00
   0.54100000E+01           0.00000000E+00
   0.54200000E+01           0.00000000E+00
   0.54300000E+01           0.00000000E+00
   0.54400000E+01           0.00000000E+00
   0.54500000E+01           0.00000000E+00
   0.54600000E+01           0.00000000E+00
   0.54700000E+01           0.00000000E+00
   0.54800000E+01           0.00000000E+00
   0.54900000E+01           0.00000000E+00
   0.55000000E+01           0.00000000E+00
   0.55100000E+01           0.00000000E+00
   0.55200000E+01           0.00000000E+00
   0.55300000E+01           0.00000000E+00
   0.55400000E+01           0.00000000E+00
   0.55500000E+01           0.00000000E+00
   0.55600000E+01           0.00000000E+00
   0.55700000E+01           0.00000000E+00
   0.55800000E+01           0.00000000E+00
   0.55900000E+01           0.00000000E+00
   0.56000000E+01           0.00000000E+00
   0.56100000E+01           0.00000000E+00
   0.56200000E+01           0.00000000E+00
   0.56300000E+01           0.00000000E+00
   0.56400000E+01           0.00000000E+00
   0.56500000E+01           0.00000000E+00
   0.56600000E+01           0.00000000E+00
   0.56700000E+01           0.00000000E+00
   0.56800000E+01           0.00000000E+00
   0.56900000E+01           0.00000000E+00
   0.57000000E+01           0.00000000E+00
   0.57100000E+01           0.00000000E+00
   0.57200000E+01           0.00000000E+00
   0.57300000E+01           0.00000000E+00
   0.57400000E+01           0.00000000E+00
   0.57500000E+01           0.00000000E+00
   0.57600000E+01           0.00000000E+00
   0.57700000E+01           0.00000000E+00
   0.57800000E+01           0.00000000E+00
   0.57900000E+01           0.00000000E+00
   0.58000000E+01           0.00000000E+00
   0.58100000E+01           0.00000000E+00
   0.58200000E+01           0.00000000E+00
   0.58300000E+01           0.00000000E+00
   0.58400000E+01           0.00000000E+00
   0.58500000E+01           0.00000000E+00
   0.58600000E+01           0.00000000E+00
   0.58700000E+01           0.00000000E+00
   0.58800000E+01           0.00000000E+00
   0.58900000E+01           0.00000000E+00
   0.59000000E+01           0.00000000E+00
   0.59100000E+01           0.00000000E+00
   0.59200000E+01           0.00000000E+00
   0.59300000E+01           0.00000000E+00
   0.59400000E+01           0.00000000E+00
   0.59500000E+01           0.00000000E+00
   0.59600000E+01           0.00000000E+00
   0.59700000E+01           0.00000000E+00
   0.59800000E+01           0.00000000E+00
   0.59900000E+01           0.00000000E+00
   0.60000000E+01           0.00000000E+00
 #T=     6.0000
  -0.60000000E+01           0.00000000E+00
  -0.59900000E+01           0.00000000E+00
  -0.59800000E+01           0.00000000E+00
  -0.59700000E+01           0.00000000E+00
  -0.59600000E+01           0.00000000E+00
  -0.59500000E+01           0.00000000E+00
  -0.59400000E+01           0.00000000E+00
  -0.59300000E+01           0.00000000E+00
  -0.59200000E+01           0.00000000E+00
  -0.59100000E+01           0.00000000E+00
  -0.59000000E+01           0.00000000E+00
  -0.58900000E+01           0.00000000E+00
  -0.58800000E+01           0.00000000E+00
  -0.58700000E+01           0.00000000E+00
  -0.58600000E+01           0.00000000E+00
  -0.58500000E+01           0.00000000E+00
  -0.58400000E+01           0.00000000E+00
  -0.58300000E+01           0.00000000E+00
  -0.58200000E+01           0.00000000E+00
  -0.58100000E+01           0.00000000E+00
  -0.58000000E+01           0.00000000E+00
  -0.57900000E+01           0.00000000E+00
  -0.57800000E+01           0.00000000E+00
  -0.57700000E+01           0.00000000E+00
  -0.57600000E+01           0.00000000E+00
  -0.57500000E+01           0.00000000E+00
  -0.57400000E+01           0.00000000E+00
  -0.57300000E+01           0.00000000E+00
  -0.57200000E+01           0.00000000E+00
  -0.57100000E+01           0.00000000E+00
  -0.57000000E+01           0.00000000E+00
  -0.56900000E+01           0.00000000E+00
  -0.56800000E+01           0.00000000E+00
  -0.56700000E+01           0.00000000E+00
  -0.56600000E+01           0.00000000E+00
  -0.56500000E+01           0.00000000E+00
  -0.56400000E+01           0.00000000E+00
  -0.56300000E+01           0.00000000E+00
  -0.56200000E+01           0.00000000E+00
  -0.56100000E+01           0.00000000E+00
  -0.56000000E+01           0.00000000E+00
  -0.55900000E+01           0.00000000E+00
  -0.55800000E+01           0.00000000E+00
  -0.55700000E+01           0.00000000E+00
  -0.55600000E+01           0.00000000E+00
  -0.55500000E+01           0.00000000E+00
  -0.55400000E+01           0.00000000E+00
  -0.55300000E+01           0.00000000E+00
  -0.55200000E+01           0.00000000E+00
  -0.55100000E+01           0.00000000E+00
  -0.55000000E+01           0.00000000E+00
  -0.54900000E+01           0.00000000E+00
  -0.54800000E+01           0.00000000E+00
  -0.54700000E+01           0.00000000E+00
  -0.54600000E+01           0.00000000E+00
  -0.54500000E+01           0.00000000E+00
  -0.54400000E+01           0.00000000E+00
  -0.54300000E+01           0.00000000E+00
  -0.54200000E+01           0.00000000E+00
  -0.54100000E+01           0.00000000E+00
  -0.54000000E+01           0.00000000E+00
  -0.53900000E+01           0.00000000E+00
  -0.53800000E+01           0.00000000E+00
  -0.53700000E+01           0.00000000E+00
  -0.53600000E+01           0.00000000E+00
  -0.53500000E+01           0.00000000E+00
  -0.53400000E+01           0.00000000E+00
  -0.53300000E+01           0.00000000E+00
  -0.53200000E+01           0.00000000E+00
  -0.53100000E+01           0.00000000E+00
  -0.53000000E+01           0.00000000E+00
  -0.52900000E+01           0.00000000E+00
  -0.52800000E+01           0.00000000E+00
  -0.52700000E+01           0.00000000E+00
  -0.52600000E+01           0.00000000E+00
  -0.52500000E+01           0.00000000E+00
  -0.52400000E+01           0.00000000E+00
  -0.52300000E+01           0.00000000E+00
  -0.52200000E+01           0.00000000E+00
  -0.52100000E+01           0.00000000E+00
  -0.52000000E+01           0.00000000E+00
  -0.51900000E+01           0.00000000E+00
  -0.51800000E+01           0.00000000E+00
  -0.51700000E+01           0.00000000E+00
  -0.51600000E+01           0.00000000E+00
  -0.51500000E+01           0.00000000E+00
  -0.51400000E+01           0.00000000E+00
  -0.51300000E+01           0.00000000E+00
  -0.51200000E+01           0.00000000E+00
  -0.51100000E+01           0.00000000E+00
  -0.51000000E+01           0.00000000E+00
  -0.50900000E+01           0.00000000E+00
  -0.50800000E+01           0.00000000E+00
  -0.50700000E+01           0.00000000E+00
  -0.50600000E+01           0.00000000E+00
  -0.50500000E+01           0.00000000E+00
  -0.50400000E+01           0.00000000E+00
  -0.50300000E+01           0.00000000E+00
  -0.50200000E+01           0.00000000E+00
  -0.50100000E+01           0.00000000E+00
  -0.50000000E+01           0.00000000E+00
  -0.49900000E+01           0.00000000E+00
  -0.49800000E+01           0.00000000E+00
  -0.49700000E+01           0.00000000E+00
  -0.49600000E+01           0.00000000E+00
  -0.49500000E+01           0.00000000E+00
  -0.49400000E+01           0.00000000E+00
  -0.49300000E+01           0.00000000E+00
  -0.49200000E+01           0.00000000E+00
  -0.49100000E+01           0.00000000E+00
  -0.49000000E+01           0.00000000E+00
  -0.48900000E+01           0.00000000E+00
  -0.48800000E+01           0.00000000E+00
  -0.48700000E+01           0.00000000E+00
  -0.48600000E+01           0.00000000E+00
  -0.48500000E+01           0.00000000E+00
  -0.48400000E+01           0.00000000E+00
  -0.48300000E+01           0.00000000E+00
  -0.48200000E+01           0.00000000E+00
  -0.48100000E+01           0.00000000E+00
  -0.48000000E+01           0.00000000E+00
  -0.47900000E+01           0.00000000E+00
  -0.47800000E+01           0.00000000E+00
  -0.47700000E+01           0.00000000E+00
  -0.47600000E+01           0.00000000E+00
  -0.47500000E+01           0.00000000E+00
  -0.47400000E+01           0.00000000E+00
  -0.47300000E+01           0.00000000E+00
  -0.47200000E+01           0.00000000E+00
  -0.47100000E+01           0.00000000E+00
  -0.47000000E+01           0.00000000E+00
  -0.46900000E+01           0.00000000E+00
  -0.46800000E+01           0.00000000E+00
  -0.46700000E+01           0.00000000E+00
  -0.46600000E+01           0.00000000E+00
  -0.46500000E+01           0.00000000E+00
  -0.46400000E+01           0.00000000E+00
  -0.46300000E+01           0.00000000E+00
  -0.46200000E+01           0.00000000E+00
  -0.46100000E+01           0.00000000E+00
  -0.46000000E+01           0.00000000E+00
  -0.45900000E+01           0.00000000E+00
  -0.45800000E+01           0.00000000E+00
  -0.45700000E+01           0.00000000E+00
  -0.45600000E+01           0.00000000E+00
  -0.45500000E+01           0.00000000E+00
  -0.45400000E+01           0.00000000E+00
  -0.45300000E+01           0.00000000E+00
  -0.45200000E+01           0.00000000E+00
  -0.45100000E+01           0.00000000E+00
  -0.45000000E+01           0.00000000E+00
  -0.44900000E+01           0.00000000E+00
  -0.44800000E+01           0.00000000E+00
  -0.44700000E+01           0.00000000E+00
  -0.44600000E+01           0.00000000E+00
  -0.44500000E+01           0.00000000E+00
  -0.44400000E+01           0.00000000E+00
  -0.44300000E+01           0.00000000E+00
  -0.44200000E+01           0.00000000E+00
  -0.44100000E+01           0.00000000E+00
  -0.44000000E+01           0.00000000E+00
  -0.43900000E+01           0.00000000E+00
  -0.43800000E+01           0.00000000E+00
  -0.43700000E+01           0.00000000E+00
  -0.43600000E+01           0.00000000E+00
  -0.43500000E+01           0.00000000E+00
  -0.43400000E+01           0.00000000E+00
  -0.43300000E+01           0.00000000E+00
  -0.43200000E+01           0.00000000E+00
  -0.43100000E+01           0.00000000E+00
  -0.43000000E+01           0.00000000E+00
  -0.42900000E+01           0.00000000E+00
  -0.42800000E+01           0.00000000E+00
  -0.42700000E+01           0.00000000E+00
  -0.42600000E+01           0.00000000E+00
  -0.42500000E+01           0.00000000E+00
  -0.42400000E+01           0.00000000E+00
  -0.42300000E+01           0.00000000E+00
  -0.42200000E+01           0.00000000E+00
  -0.42100000E+01           0.00000000E+00
  -0.42000000E+01           0.00000000E+00
  -0.41900000E+01           0.00000000E+00
  -0.41800000E+01           0.00000000E+00
  -0.41700000E+01           0.00000000E+00
  -0.41600000E+01           0.00000000E+00
  -0.41500000E+01           0.00000000E+00
  -0.41400000E+01           0.00000000E+00
  -0.41300000E+01           0.00000000E+00
  -0.41200000E+01           0.00000000E+00
  -0.41100000E+01           0.00000000E+00
  -0.41000000E+01           0.00000000E+00
  -0.40900000E+01           0.00000000E+00
  -0.40800000E+01           0.00000000E+00
  -0.40700000E+01           0.00000000E+00
  -0.40600000E+01           0.00000000E+00
  -0.40500000E+01           0.00000000E+00
  -0.40400000E+01           0.00000000E+00
  -0.40300000E+01           0.00000000E+00
  -0.40200000E+01           0.00000000E+00
  -0.40100000E+01           0.00000000E+00
  -0.40000000E+01           0.00000000E+00
  -0.39900000E+01           0.00000000E+00
  -0.39800000E+01           0.00000000E+00
  -0.39700000E+01           0.00000000E+00
  -0.39600000E+01           0.00000000E+00
  -0.39500000E+01           0.00000000E+00
  -0.39400000E+01           0.00000000E+00
  -0.39300000E+01           0.00000000E+00
  -0.39200000E+01           0.00000000E+00
  -0.39100000E+01           0.00000000E+00
  -0.39000000E+01           0.00000000E+00
  -0.38900000E+01           0.00000000E+00
  -0.38800000E+01           0.00000000E+00
  -0.38700000E+01           0.00000000E+00
  -0.38600000E+01           0.00000000E+00
  -0.38500000E+01           0.00000000E+00
  -0.38400000E+01           0.00000000E+00
  -0.38300000E+01           0.00000000E+00
  -0.38200000E+01           0.00000000E+00
  -0.38100000E+01           0.00000000E+00
  -0.38000000E+01           0.00000000E+00
  -0.37900000E+01           0.00000000E+00
  -0.37800000E+01           0.00000000E+00
  -0.37700000E+01           0.00000000E+00
  -0.37600000E+01           0.00000000E+00
  -0.37500000E+01           0.00000000E+00
  -0.37400000E+01           0.00000000E+00
  -0.37300000E+01           0.00000000E+00
  -0.37200000E+01           0.00000000E+00
  -0.37100000E+01           0.00000000E+00
  -0.37000000E+01           0.00000000E+00
  -0.36900000E+01           0.00000000E+00
  -0.36800000E+01           0.00000000E+00
  -0.36700000E+01           0.00000000E+00
  -0.36600000E+01           0.00000000E+00
  -0.36500000E+01           0.00000000E+00
  -0.36400000E+01           0.00000000E+00
  -0.36300000E+01           0.00000000E+00
  -0.36200000E+01           0.00000000E+00
  -0.36100000E+01           0.00000000E+00
  -0.36000000E+01           0.00000000E+00
  -0.35900000E+01           0.00000000E+00
  -0.35800000E+01           0.00000000E+00
  -0.35700000E+01           0.00000000E+00
  -0.35600000E+01           0.00000000E+00
  -0.35500000E+01           0.00000000E+00
  -0.35400000E+01           0.00000000E+00
  -0.35300000E+01           0.00000000E+00
  -0.35200000E+01           0.00000000E+00
  -0.35100000E+01           0.00000000E+00
  -0.35000000E+01           0.00000000E+00
  -0.34900000E+01           0.00000000E+00
  -0.34800000E+01           0.00000000E+00
  -0.34700000E+01           0.00000000E+00
  -0.34600000E+01           0.00000000E+00
  -0.34500000E+01           0.00000000E+00
  -0.34400000E+01           0.00000000E+00
  -0.34300000E+01           0.00000000E+00
  -0.34200000E+01           0.00000000E+00
  -0.34100000E+01           0.00000000E+00
  -0.34000000E+01           0.00000000E+00
  -0.33900000E+01           0.00000000E+00
  -0.33800000E+01           0.00000000E+00
  -0.33700000E+01           0.00000000E+00
  -0.33600000E+01           0.00000000E+00
  -0.33500000E+01           0.00000000E+00
  -0.33400000E+01           0.00000000E+00
  -0.33300000E+01           0.00000000E+00
  -0.33200000E+01           0.00000000E+00
  -0.33100000E+01           0.00000000E+00
  -0.33000000E+01           0.00000000E+00
  -0.32900000E+01           0.00000000E+00
  -0.32800000E+01           0.00000000E+00
  -0.32700000E+01           0.00000000E+00
  -0.32600000E+01           0.00000000E+00
  -0.32500000E+01           0.00000000E+00
  -0.32400000E+01           0.00000000E+00
  -0.32300000E+01           0.00000000E+00
  -0.32200000E+01           0.00000000E+00
  -0.32100000E+01           0.00000000E+00
  -0.32000000E+01           0.00000000E+00
  -0.31900000E+01           0.00000000E+00
  -0.31800000E+01           0.00000000E+00
  -0.31700000E+01           0.00000000E+00
  -0.31600000E+01           0.00000000E+00
  -0.31500000E+01           0.00000000E+00
  -0.31400000E+01           0.00000000E+00
  -0.31300000E+01           0.00000000E+00
  -0.31200000E+01           0.00000000E+00
  -0.31100000E+01           0.00000000E+00
  -0.31000000E+01           0.00000000E+00
  -0.30900000E+01           0.00000000E+00
  -0.30800000E+01           0.00000000E+00
  -0.30700000E+01           0.00000000E+00
  -0.30600000E+01           0.00000000E+00
  -0.30500000E+01           0.00000000E+00
  -0.30400000E+01           0.00000000E+00
  -0.30300000E+01           0.00000000E+00
  -0.30200000E+01           0.00000000E+00
  -0.30100000E+01           0.00000000E+00
  -0.30000000E+01           0.00000000E+00
  -0.29900000E+01           0.00000000E+00
  -0.29800000E+01           0.00000000E+00
  -0.29700000E+01           0.00000000E+00
  -0.29600000E+01           0.00000000E+00
  -0.29500000E+01           0.00000000E+00
  -0.29400000E+01           0.00000000E+00
  -0.29300000E+01           0.00000000E+00
  -0.29200000E+01           0.00000000E+00
  -0.29100000E+01           0.00000000E+00
  -0.29000000E+01           0.00000000E+00
  -0.28900000E+01           0.00000000E+00
  -0.28800000E+01           0.00000000E+00
  -0.28700000E+01           0.00000000E+00
  -0.28600000E+01           0.00000000E+00
  -0.28500000E+01           0.00000000E+00
  -0.28400000E+01           0.00000000E+00
  -0.28300000E+01           0.00000000E+00
  -0.28200000E+01           0.00000000E+00
  -0.28100000E+01           0.00000000E+00
  -0.28000000E+01           0.00000000E+00
  -0.27900000E+01           0.00000000E+00
  -0.27800000E+01           0.00000000E+00
  -0.27700000E+01           0.00000000E+00
  -0.27600000E+01           0.00000000E+00
  -0.27500000E+01           0.00000000E+00
  -0.27400000E+01           0.00000000E+00
  -0.27300000E+01           0.00000000E+00
  -0.27200000E+01           0.00000000E+00
  -0.27100000E+01           0.00000000E+00
  -0.27000000E+01           0.00000000E+00
  -0.26900000E+01           0.00000000E+00
  -0.26800000E+01           0.00000000E+00
  -0.26700000E+01           0.00000000E+00
  -0.26600000E+01           0.00000000E+00
  -0.26500000E+01           0.00000000E+00
  -0.26400000E+01           0.00000000E+00
  -0.26300000E+01           0.00000000E+00
  -0.26200000E+01           0.00000000E+00
  -0.26100000E+01           0.00000000E+00
  -0.26000000E+01           0.00000000E+00
  -0.25900000E+01           0.00000000E+00
  -0.25800000E+01           0.00000000E+00
  -0.25700000E+01           0.00000000E+00
  -0.25600000E+01           0.00000000E+00
  -0.25500000E+01           0.00000000E+00
  -0.25400000E+01           0.00000000E+00
  -0.25300000E+01           0.00000000E+00
  -0.25200000E+01           0.00000000E+00
  -0.25100000E+01           0.00000000E+00
  -0.25000000E+01           0.00000000E+00
  -0.24900000E+01           0.00000000E+00
  -0.24800000E+01           0.00000000E+00
  -0.24700000E+01           0.00000000E+00
  -0.24600000E+01           0.00000000E+00
  -0.24500000E+01           0.00000000E+00
  -0.24400000E+01           0.00000000E+00
  -0.24300000E+01           0.00000000E+00
  -0.24200000E+01           0.00000000E+00
  -0.24100000E+01           0.00000000E+00
  -0.24000000E+01           0.00000000E+00
  -0.23900000E+01           0.00000000E+00
  -0.23800000E+01           0.00000000E+00
  -0.23700000E+01           0.00000000E+00
  -0.23600000E+01           0.00000000E+00
  -0.23500000E+01           0.00000000E+00
  -0.23400000E+01           0.00000000E+00
  -0.23300000E+01           0.00000000E+00
  -0.23200000E+01           0.00000000E+00
  -0.23100000E+01           0.00000000E+00
  -0.23000000E+01           0.00000000E+00
  -0.22900000E+01           0.00000000E+00
  -0.22800000E+01           0.00000000E+00
  -0.22700000E+01           0.00000000E+00
  -0.22600000E+01           0.00000000E+00
  -0.22500000E+01           0.00000000E+00
  -0.22400000E+01           0.00000000E+00
  -0.22300000E+01           0.00000000E+00
  -0.22200000E+01           0.00000000E+00
  -0.22100000E+01           0.00000000E+00
  -0.22000000E+01           0.00000000E+00
  -0.21900000E+01           0.00000000E+00
  -0.21800000E+01           0.00000000E+00
  -0.21700000E+01           0.00000000E+00
  -0.21600000E+01           0.00000000E+00
  -0.21500000E+01           0.00000000E+00
  -0.21400000E+01           0.00000000E+00
  -0.21300000E+01           0.00000000E+00
  -0.21200000E+01           0.00000000E+00
  -0.21100000E+01           0.00000000E+00
  -0.21000000E+01           0.00000000E+00
  -0.20900000E+01           0.00000000E+00
  -0.20800000E+01           0.00000000E+00
  -0.20700000E+01           0.00000000E+00
  -0.20600000E+01           0.00000000E+00
  -0.20500000E+01           0.00000000E+00
  -0.20400000E+01           0.00000000E+00
  -0.20300000E+01           0.00000000E+00
  -0.20200000E+01           0.00000000E+00
  -0.20100000E+01           0.00000000E+00
  -0.20000000E+01           0.00000000E+00
  -0.19900000E+01           0.00000000E+00
  -0.19800000E+01           0.00000000E+00
  -0.19700000E+01           0.00000000E+00
  -0.19600000E+01           0.00000000E+00
  -0.19500000E+01           0.00000000E+00
  -0.19400000E+01           0.00000000E+00
  -0.19300000E+01           0.00000000E+00
  -0.19200000E+01           0.00000000E+00
  -0.19100000E+01           0.00000000E+00
  -0.19000000E+01           0.00000000E+00
  -0.18900000E+01           0.00000000E+00
  -0.18800000E+01           0.00000000E+00
  -0.18700000E+01           0.00000000E+00
  -0.18600000E+01           0.00000000E+00
  -0.18500000E+01           0.00000000E+00
  -0.18400000E+01           0.00000000E+00
  -0.18300000E+01           0.00000000E+00
  -0.18200000E+01           0.00000000E+00
  -0.18100000E+01           0.00000000E+00
  -0.18000000E+01           0.00000000E+00
  -0.17900000E+01           0.00000000E+00
  -0.17800000E+01           0.00000000E+00
  -0.17700000E+01           0.00000000E+00
  -0.17600000E+01           0.00000000E+00
  -0.17500000E+01           0.00000000E+00
  -0.17400000E+01           0.00000000E+00
  -0.17300000E+01           0.00000000E+00
  -0.17200000E+01           0.00000000E+00
  -0.17100000E+01           0.00000000E+00
  -0.17000000E+01           0.00000000E+00
  -0.16900000E+01           0.00000000E+00
  -0.16800000E+01           0.00000000E+00
  -0.16700000E+01           0.00000000E+00
  -0.16600000E+01           0.00000000E+00
  -0.16500000E+01           0.00000000E+00
  -0.16400000E+01           0.00000000E+00
  -0.16300000E+01           0.00000000E+00
  -0.16200000E+01           0.00000000E+00
  -0.16100000E+01           0.00000000E+00
  -0.16000000E+01           0.00000000E+00
  -0.15900000E+01           0.00000000E+00
  -0.15800000E+01           0.00000000E+00
  -0.15700000E+01           0.00000000E+00
  -0.15600000E+01           0.00000000E+00
  -0.15500000E+01           0.00000000E+00
  -0.15400000E+01           0.00000000E+00
  -0.15300000E+01           0.00000000E+00
  -0.15200000E+01           0.00000000E+00
  -0.15100000E+01           0.00000000E+00
  -0.15000000E+01           0.00000000E+00
  -0.14900000E+01           0.00000000E+00
  -0.14800000E+01           0.00000000E+00
  -0.14700000E+01           0.00000000E+00
  -0.14600000E+01           0.00000000E+00
  -0.14500000E+01           0.00000000E+00
  -0.14400000E+01           0.00000000E+00
  -0.14300000E+01           0.00000000E+00
  -0.14200000E+01           0.00000000E+00
  -0.14100000E+01           0.00000000E+00
  -0.14000000E+01           0.00000000E+00
  -0.13900000E+01           0.00000000E+00
  -0.13800000E+01           0.00000000E+00
  -0.13700000E+01           0.00000000E+00
  -0.13600000E+01           0.00000000E+00
  -0.13500000E+01           0.00000000E+00
  -0.13400000E+01           0.00000000E+00
  -0.13300000E+01           0.00000000E+00
  -0.13200000E+01           0.00000000E+00
  -0.13100000E+01           0.00000000E+00
  -0.13000000E+01           0.00000000E+00
  -0.12900000E+01           0.00000000E+00
  -0.12800000E+01           0.00000000E+00
  -0.12700000E+01           0.00000000E+00
  -0.12600000E+01           0.00000000E+00
  -0.12500000E+01           0.00000000E+00
  -0.12400000E+01           0.00000000E+00
  -0.12300000E+01           0.00000000E+00
  -0.12200000E+01           0.00000000E+00
  -0.12100000E+01           0.00000000E+00
  -0.12000000E+01           0.00000000E+00
  -0.11900000E+01           0.00000000E+00
  -0.11800000E+01           0.00000000E+00
  -0.11700000E+01           0.00000000E+00
  -0.11600000E+01           0.00000000E+00
  -0.11500000E+01           0.00000000E+00
  -0.11400000E+01           0.00000000E+00
  -0.11300000E+01           0.00000000E+00
  -0.11200000E+01           0.00000000E+00
  -0.11100000E+01           0.00000000E+00
  -0.11000000E+01           0.00000000E+00
  -0.10900000E+01           0.00000000E+00
  -0.10800000E+01           0.00000000E+00
  -0.10700000E+01           0.00000000E+00
  -0.10600000E+01           0.00000000E+00
  -0.10500000E+01           0.00000000E+00
  -0.10400000E+01           0.00000000E+00
  -0.10300000E+01           0.00000000E+00
  -0.10200000E+01           0.00000000E+00
  -0.10100000E+01           0.00000000E+00
  -0.10000000E+01           0.00000000E+00
  -0.99000000E+00           0.00000000E+00
  -0.98000000E+00           0.00000000E+00
  -0.97000000E+00           0.00000000E+00
  -0.96000000E+00           0.00000000E+00
  -0.95000000E+00           0.00000000E+00
  -0.94000000E+00           0.00000000E+00
  -0.93000000E+00           0.00000000E+00
  -0.92000000E+00           0.00000000E+00
  -0.91000000E+00           0.00000000E+00
  -0.90000000E+00           0.00000000E+00
  -0.89000000E+00           0.00000000E+00
  -0.88000000E+00           0.00000000E+00
  -0.87000000E+00           0.00000000E+00
  -0.86000000E+00           0.00000000E+00
  -0.85000000E+00           0.00000000E+00
  -0.84000000E+00           0.00000000E+00
  -0.83000000E+00           0.00000000E+00
  -0.82000000E+00           0.00000000E+00
  -0.81000000E+00           0.00000000E+00
  -0.80000000E+00           0.00000000E+00
  -0.79000000E+00           0.00000000E+00
  -0.78000000E+00           0.00000000E+00
  -0.77000000E+00           0.00000000E+00
  -0.76000000E+00           0.00000000E+00
  -0.75000000E+00           0.00000000E+00
  -0.74000000E+00           0.00000000E+00
  -0.73000000E+00           0.00000000E+00
  -0.72000000E+00           0.00000000E+00
  -0.71000000E+00           0.00000000E+00
  -0.70000000E+00           0.00000000E+00
  -0.69000000E+00           0.00000000E+00
  -0.68000000E+00           0.00000000E+00
  -0.67000000E+00           0.00000000E+00
  -0.66000000E+00           0.00000000E+00
  -0.65000000E+00           0.00000000E+00
  -0.64000000E+00           0.00000000E+00
  -0.63000000E+00           0.00000000E+00
  -0.62000000E+00           0.00000000E+00
  -0.61000000E+00           0.00000000E+00
  -0.60000000E+00           0.00000000E+00
  -0.59000000E+00           0.00000000E+00
  -0.58000000E+00           0.00000000E+00
  -0.57000000E+00           0.00000000E+00
  -0.56000000E+00           0.00000000E+00
  -0.55000000E+00           0.00000000E+00
  -0.54000000E+00           0.00000000E+00
  -0.53000000E+00           0.00000000E+00
  -0.52000000E+00           0.00000000E+00
  -0.51000000E+00           0.00000000E+00
  -0.50000000E+00           0.00000000E+00
  -0.49000000E+00           0.00000000E+00
  -0.48000000E+00           0.00000000E+00
  -0.47000000E+00           0.00000000E+00
  -0.46000000E+00           0.00000000E+00
  -0.45000000E+00           0.00000000E+00
  -0.44000000E+00           0.00000000E+00
  -0.43000000E+00           0.00000000E+00
  -0.42000000E+00           0.00000000E+00
  -0.41000000E+00           0.00000000E+00
  -0.40000000E+00           0.00000000E+00
  -0.39000000E+00           0.00000000E+00
  -0.38000000E+00           0.00000000E+00
  -0.37000000E+00           0.00000000E+00
  -0.36000000E+00           0.00000000E+00
  -0.35000000E+00           0.00000000E+00
  -0.34000000E+00           0.00000000E+00
  -0.33000000E+00           0.00000000E+00
  -0.32000000E+00           0.00000000E+00
  -0.31000000E+00           0.00000000E+00
  -0.30000000E+00           0.00000000E+00
  -0.29000000E+00           0.00000000E+00
  -0.28000000E+00           0.00000000E+00
  -0.27000000E+00           0.00000000E+00
  -0.26000000E+00           0.00000000E+00
  -0.25000000E+00           0.00000000E+00
  -0.24000000E+00           0.00000000E+00
  -0.23000000E+00           0.00000000E+00
  -0.22000000E+00           0.00000000E+00
  -0.21000000E+00           0.00000000E+00
  -0.20000000E+00           0.00000000E+00
  -0.19000000E+00           0.00000000E+00
  -0.18000000E+00           0.00000000E+00
  -0.17000000E+00           0.00000000E+00
  -0.16000000E+00           0.00000000E+00
  -0.15000000E+00           0.00000000E+00
  -0.14000000E+00           0.00000000E+00
  -0.13000000E+00           0.00000000E+00
  -0.12000000E+00           0.00000000E+00
  -0.11000000E+00           0.00000000E+00
  -0.10000000E+00           0.00000000E+00
  -0.90000000E-01           0.00000000E+00
  -0.80000000E-01           0.00000000E+00
  -0.70000000E-01           0.00000000E+00
  -0.60000000E-01           0.00000000E+00
  -0.50000000E-01           0.00000000E+00
  -0.40000000E-01           0.00000000E+00
  -0.30000000E-01           0.00000000E+00
  -0.20000000E-01           0.00000000E+00
  -0.10000000E-01           0.00000000E+00
   0.00000000E+00           0.30825000E-03
   0.10000000E-01           0.76380000E-02
   0.20000000E-01           0.28145750E-01
   0.30000000E-01           0.60815000E-01
   0.40000000E-01           0.10308650E+00
   0.50000000E-01           0.15330475E+00
   0.60000000E-01           0.20977375E+00
   0.70000000E-01           0.27032575E+00
   0.80000000E-01           0.33352550E+00
   0.90000000E-01           0.39679900E+00
   0.10000000E+00           0.46127575E+00
   0.11000000E+00           0.52717150E+00
   0.12000000E+00           0.59171075E+00
   0.13000000E+00           0.65339575E+00
   0.14000000E+00           0.71317225E+00
   0.15000000E+00           0.77197025E+00
   0.16000000E+00           0.83112300E+00
   0.17000000E+00           0.88247200E+00
   0.18000000E+00           0.93573600E+00
   0.19000000E+00           0.98465175E+00
   0.20000000E+00           0.10303345E+01
   0.21000000E+00           0.10751712E+01
   0.22000000E+00           0.11171652E+01
   0.23000000E+00           0.11566320E+01
   0.24000000E+00           0.11973832E+01
   0.25000000E+00           0.12338127E+01
   0.26000000E+00           0.12649140E+01
   0.27000000E+00           0.12949797E+01
   0.28000000E+00           0.13264560E+01
   0.29000000E+00           0.13519110E+01
   0.30000000E+00           0.13754737E+01
   0.31000000E+00           0.13960653E+01
   0.32000000E+00           0.14164912E+01
   0.33000000E+00           0.14340310E+01
   0.34000000E+00           0.14529500E+01
   0.35000000E+00           0.14654680E+01
   0.36000000E+00           0.14770755E+01
   0.37000000E+00           0.14845073E+01
   0.38000000E+00           0.14935945E+01
   0.39000000E+00           0.14971667E+01
   0.40000000E+00           0.15023855E+01
   0.41000000E+00           0.15029145E+01
   0.42000000E+00           0.15047947E+01
   0.43000000E+00           0.15028820E+01
   0.44000000E+00           0.14977007E+01
   0.45000000E+00           0.14930305E+01
   0.46000000E+00           0.14867015E+01
   0.47000000E+00           0.14775270E+01
   0.48000000E+00           0.14692265E+01
   0.49000000E+00           0.14590333E+01
   0.50000000E+00           0.14433927E+01
   0.51000000E+00           0.14333227E+01
   0.52000000E+00           0.14170220E+01
   0.53000000E+00           0.14011875E+01
[...]
   0.13600000E+01           0.47089750E+00
   0.13700000E+01           0.47435325E+00
   0.13800000E+01           0.47658325E+00
   0.13900000E+01           0.47851750E+00
   0.14000000E+01           0.48089550E+00
   0.14100000E+01           0.48347025E+00
   0.14200000E+01           0.48562300E+00
   0.14300000E+01           0.48816750E+00
   0.14400000E+01           0.48998725E+00
   0.14500000E+01           0.49183525E+00
   0.14600000E+01           0.49311100E+00
   0.14700000E+01           0.49444900E+00
   0.14800000E+01           0.49629600E+00
   0.14900000E+01           0.49796325E+00
   0.15000000E+01           0.50042750E+00
   0.15100000E+01           0.50147650E+00
   0.15200000E+01           0.50206250E+00
   0.15300000E+01           0.50421000E+00
   0.15400000E+01           0.50595050E+00
   0.15500000E+01           0.50758375E+00
   0.15600000E+01           0.50824450E+00
   0.15700000E+01           0.50906300E+00
   0.15800000E+01           0.51049400E+00
   0.15900000E+01           0.51105300E+00
   0.16000000E+01           0.51153450E+00
   0.16100000E+01           0.51225975E+00
   0.16200000E+01           0.51229525E+00
   0.16300000E+01           0.51351975E+00
   0.16400000E+01           0.51355650E+00
   0.16500000E+01           0.51414600E+00
   0.16600000E+01           0.51431900E+00
   0.16700000E+01           0.51467825E+00
   0.16800000E+01           0.51517875E+00
   0.16900000E+01           0.51446500E+00
   0.17000000E+01           0.51449175E+00
   0.17100000E+01           0.51409175E+00
   0.17200000E+01           0.51423825E+00
   0.17300000E+01           0.51409725E+00
   0.17400000E+01           0.51415925E+00
   0.17500000E+01           0.51361975E+00
   0.17600000E+01           0.51276725E+00
   0.17700000E+01           0.51220925E+00
   0.17800000E+01           0.51169900E+00
   0.17900000E+01           0.51118675E+00
   0.18000000E+01           0.50993625E+00
   0.18100000E+01           0.50977250E+00
   0.18200000E+01           0.50880750E+00
   0.18300000E+01           0.50745750E+00
   0.18400000E+01           0.50649950E+00
   0.18500000E+01           0.50511150E+00
   0.18600000E+01           0.50447525E+00
   0.18700000E+01           0.50295500E+00
   0.18800000E+01           0.50195450E+00
   0.18900000E+01           0.50007725E+00
   0.19000000E+01           0.49870575E+00
   0.19100000E+01           0.49738500E+00
   0.19200000E+01           0.49563275E+00
   0.19300000E+01           0.49313950E+00
   0.19400000E+01           0.49154575E+00
   0.19500000E+01           0.48969075E+00
   0.19600000E+01           0.48765775E+00
   0.19700000E+01           0.48624675E+00
   0.19800000E+01           0.48409575E+00
   0.19900000E+01           0.48156200E+00
   0.20000000E+01           0.48015375E+00
   0.20100000E+01           0.47796550E+00
   0.20200000E+01           0.47528850E+00
   0.20300000E+01           0.47371225E+00
   0.20400000E+01           0.47106000E+00
   0.20500000E+01           0.46887575E+00
   0.20600000E+01           0.46557775E+00
   0.20700000E+01           0.46394675E+00
   0.20800000E+01           0.46074950E+00
   0.20900000E+01           0.45869275E+00
   0.21000000E+01           0.45568900E+00
   0.21100000E+01           0.45306050E+00
   0.21200000E+01           0.45083125E+00
   0.21300000E+01           0.44806700E+00
   0.21400000E+01           0.44504875E+00
   0.21500000E+01           0.44125625E+00
   0.21600000E+01           0.43881400E+00
   0.21700000E+01           0.43614900E+00
   0.21800000E+01           0.43297125E+00
   0.21900000E+01           0.43003050E+00
   0.22000000E+01           0.42733250E+00
   0.22100000E+01           0.42387200E+00
   0.22200000E+01           0.42044525E+00
   0.22300000E+01           0.41780400E+00
   0.22400000E+01           0.41453275E+00
   0.22500000E+01           0.41164350E+00
   0.22600000E+01           0.40852025E+00
   0.22700000E+01           0.40510600E+00
   0.22800000E+01           0.40154150E+00
   0.22900000E+01           0.39843575E+00
   0.23000000E+01           0.39496000E+00
   0.23100000E+01           0.39186325E+00
   0.23200000E+01           0.38841825E+00
   0.23300000E+01           0.38521250E+00
   0.23400000E+01           0.38152400E+00
   0.23500000E+01           0.37868125E+00
   0.23600000E+01           0.37469075E+00
   0.23700000E+01           0.37167725E+00
   0.23800000E+01           0.36801900E+00
   0.23900000E+01           0.36480150E+00
   0.24000000E+01           0.36085925E+00
   0.24100000E+01           0.35802550E+00
   0.24200000E+01           0.35411500E+00
   0.24300000E+01           0.35076175E+00
   0.24400000E+01           0.34686100E+00
   0.24500000E+01           0.34376850E+00
   0.24600000E+01           0.33993225E+00
   0.24700000E+01           0.33709800E+00
   0.24800000E+01           0.33306750E+00
   0.24900000E+01           0.32964125E+00
   0.25000000E+01           0.32601075E+00
   0.25100000E+01           0.32211500E+00
   0.25200000E+01           0.31933975E+00
   0.25300000E+01           0.31526425E+00
   0.25400000E+01           0.31206825E+00
   0.25500000E+01           0.30866875E+00
   0.25600000E+01           0.30486975E+00
   0.25700000E+01           0.30131775E+00
   0.25800000E+01           0.29793825E+00
   0.25900000E+01           0.29455000E+00
   0.26000000E+01           0.29129675E+00
   0.26100000E+01           0.28726425E+00
   0.26200000E+01           0.28414775E+00
   0.26300000E+01           0.27992500E+00
   0.26400000E+01           0.27664900E+00
   0.26500000E+01           0.27343175E+00
   0.26600000E+01           0.27006850E+00
   0.26700000E+01           0.26688975E+00
   0.26800000E+01           0.26336825E+00
   0.26900000E+01           0.26037975E+00
   0.27000000E+01           0.25632550E+00
   0.27100000E+01           0.25333125E+00
   0.27200000E+01           0.25003600E+00
   0.27300000E+01           0.24651575E+00
   0.27400000E+01           0.24293150E+00
   0.27500000E+01           0.24052200E+00
   0.27600000E+01           0.23668775E+00
   0.27700000E+01           0.23322925E+00
   0.27800000E+01           0.22993600E+00
   0.27900000E+01           0.22701325E+00
   0.28000000E+01           0.22331100E+00
   0.28100000E+01           0.22025050E+00
   0.28200000E+01           0.21724175E+00
   0.28300000E+01           0.21410500E+00
   0.28400000E+01           0.21080250E+00
   0.28500000E+01           0.20795875E+00
   0.28600000E+01           0.20468250E+00
   0.28700000E+01           0.20201625E+00
   0.28800000E+01           0.19854550E+00
   0.28900000E+01           0.19571950E+00
   0.29000000E+01           0.19279475E+00
   0.29100000E+01           0.18951550E+00
   0.29200000E+01           0.18653400E+00
   0.29300000E+01           0.18402150E+00
   0.29400000E+01           0.18042275E+00
   0.29500000E+01           0.17778100E+00
   0.29600000E+01           0.17498200E+00
   0.29700000E+01           0.17241625E+00
   0.29800000E+01           0.16905375E+00
   0.29900000E+01           0.16697000E+00
   0.30000000E+01           0.16435000E+00
   0.30100000E+01           0.16100150E+00
   0.30200000E+01           0.15873425E+00
   0.30300000E+01           0.15585100E+00
   0.30400000E+01           0.15344125E+00
   0.30500000E+01           0.15074000E+00
   0.30600000E+01           0.14789950E+00
   0.30700000E+01           0.14533000E+00
   0.30800000E+01           0.14255425E+00
   0.30900000E+01           0.14040350E+00
   0.31000000E+01           0.13762375E+00
   0.31100000E+01           0.13563925E+00
   0.31200000E+01           0.13282725E+00
   0.31300000E+01           0.13057650E+00
   0.31400000E+01           0.12801850E+00
   0.31500000E+01           0.12583150E+00
   0.31600000E+01           0.12354800E+00
   0.31700000E+01           0.12130100E+00
   0.31800000E+01           0.11862250E+00
   0.31900000E+01           0.11696950E+00
   0.32000000E+01           0.11405400E+00
   0.32100000E+01           0.11239675E+00
   0.32200000E+01           0.11004750E+00
   0.32300000E+01           0.10804750E+00
   0.32400000E+01           0.10578850E+00
   0.32500000E+01           0.10386575E+00
   0.32600000E+01           0.10194825E+00
   0.32700000E+01           0.99683500E-01
   0.32800000E+01           0.97725750E-01
   0.32900000E+01           0.95646750E-01
   0.33000000E+01           0.94005250E-01
   0.33100000E+01           0.91875750E-01
   0.33200000E+01           0.90205250E-01
   0.33300000E+01           0.88283250E-01
   0.33400000E+01           0.86634750E-01
   0.33500000E+01           0.84536500E-01
   0.33600000E+01           0.82822750E-01
   0.33700000E+01           0.81076750E-01
   0.33800000E+01           0.79337500E-01
   0.33900000E+01           0.77450000E-01
   0.34000000E+01           0.76134750E-01
   0.34100000E+01           0.74320750E-01
   0.34200000E+01           0.72915750E-01
   0.34300000E+01           0.71141500E-01
   0.34400000E+01           0.69671500E-01
   0.34500000E+01           0.67909500E-01
   0.34600000E+01           0.66484250E-01
   0.34700000E+01           0.64951250E-01
   0.34800000E+01           0.63495500E-01
   0.34900000E+01           0.62159250E-01
   0.35000000E+01           0.60812500E-01
   0.35100000E+01           0.59201500E-01
   0.35200000E+01           0.57927000E-01
   0.35300000E+01           0.56932500E-01
   0.35400000E+01           0.55398250E-01
   0.35500000E+01           0.54018500E-01
   0.35600000E+01           0.52651000E-01
   0.35700000E+01           0.51658000E-01
   0.35800000E+01           0.50339500E-01
   0.35900000E+01           0.49055000E-01
   0.36000000E+01           0.47989250E-01
   0.36100000E+01           0.46547500E-01
   0.36200000E+01           0.45637750E-01
   0.36300000E+01           0.44575000E-01
   0.36400000E+01           0.43131500E-01
   0.36500000E+01           0.42447750E-01
   0.36600000E+01           0.41194750E-01
   0.36700000E+01           0.40254000E-01
   0.36800000E+01           0.39323500E-01
   0.36900000E+01           0.38208000E-01
   0.37000000E+01           0.37249000E-01
   0.37100000E+01           0.36367750E-01
   0.37200000E+01           0.35528000E-01
   0.37300000E+01           0.34569250E-01
   0.37400000E+01           0.33536500E-01
   0.37500000E+01           0.32899000E-01
   0.37600000E+01           0.31869000E-01
   0.37700000E+01           0.30991250E-01
   0.37800000E+01           0.30187000E-01
   0.37900000E+01           0.29476250E-01
   0.38000000E+01           0.28483000E-01
   0.38100000E+01           0.27864000E-01
   0.38200000E+01           0.27024000E-01
   0.38300000E+01           0.26438000E-01
   0.38400000E+01           0.25654000E-01
   0.38500000E+01           0.24900250E-01
   0.38600000E+01           0.24189500E-01
   0.38700000E+01           0.23526500E-01
   0.38800000E+01           0.22946000E-01
   0.38900000E+01           0.22267250E-01
   0.39000000E+01           0.21675750E-01
   0.39100000E+01           0.21161000E-01
   0.39200000E+01           0.20461250E-01
   0.39300000E+01           0.19967750E-01
   0.39400000E+01           0.19322000E-01
   0.39500000E+01           0.18797000E-01
   0.39600000E+01           0.18142750E-01
   0.39700000E+01           0.17664750E-01
   0.39800000E+01           0.17162500E-01
   0.39900000E+01           0.16604250E-01
   0.40000000E+01           0.16185500E-01
   0.40100000E+01           0.15799750E-01
   0.40200000E+01           0.15317000E-01
   0.40300000E+01           0.14827250E-01
   0.40400000E+01           0.14373250E-01
   0.40500000E+01           0.13950500E-01
   0.40600000E+01           0.13503750E-01
   0.40700000E+01           0.13145750E-01
   0.40800000E+01           0.12680500E-01
   0.40900000E+01           0.12346000E-01
   0.41000000E+01           0.11840250E-01
   0.41100000E+01           0.11563500E-01
   0.41200000E+01           0.11280250E-01
   0.41300000E+01           0.10947000E-01
   0.41400000E+01           0.10528750E-01
   0.41500000E+01           0.10200250E-01
   0.41600000E+01           0.98452500E-02
   0.41700000E+01           0.95420000E-02
   0.41800000E+01           0.92142500E-02
   0.41900000E+01           0.90047500E-02
   0.42000000E+01           0.86627500E-02
   0.42100000E+01           0.84025000E-02
   0.42200000E+01           0.80620000E-02
   0.42300000E+01           0.78825000E-02
   0.42400000E+01           0.75885000E-02
   0.42500000E+01           0.73770000E-02
   0.42600000E+01           0.70735000E-02
   0.42700000E+01           0.68785000E-02
   0.42800000E+01           0.66540000E-02
   0.42900000E+01           0.64190000E-02
   0.43000000E+01           0.62262500E-02
   0.43100000E+01           0.60172500E-02
   0.43200000E+01           0.57960000E-02
   0.43300000E+01           0.55470000E-02
   0.43400000E+01           0.53355000E-02
   0.43500000E+01           0.51937500E-02
   0.43600000E+01           0.50572500E-02
   0.43700000E+01           0.48515000E-02
   0.43800000E+01           0.46735000E-02
   0.43900000E+01           0.44687500E-02
   0.44000000E+01           0.43355000E-02
   0.44100000E+01           0.41355000E-02
   0.44200000E+01           0.40065000E-02
   0.44300000E+01           0.39290000E-02
   0.44400000E+01           0.37825000E-02
   0.44500000E+01           0.36302500E-02
   0.44600000E+01           0.34597500E-02
   0.44700000E+01           0.33340000E-02
   0.44800000E+01           0.32357500E-02
   0.44900000E+01           0.30767500E-02
   0.45000000E+01           0.29707500E-02
   0.45100000E+01           0.28657500E-02
   0.45200000E+01           0.27910000E-02
   0.45300000E+01           0.26885000E-02
   0.45400000E+01           0.25275000E-02
   0.45500000E+01           0.24262500E-02
   0.45600000E+01           0.23725000E-02
   0.45700000E+01           0.22890000E-02
   0.45800000E+01           0.22037500E-02
   0.45900000E+01           0.21022500E-02
   0.46000000E+01           0.20237500E-02
   0.46100000E+01           0.19285000E-02
   0.46200000E+01           0.18525000E-02
   0.46300000E+01           0.17785000E-02
   0.46400000E+01           0.17235000E-02
   0.46500000E+01           0.16875000E-02
   0.46600000E+01           0.15867500E-02
   0.46700000E+01           0.14795000E-02
   0.46800000E+01           0.14837500E-02
   0.46900000E+01           0.13747500E-02
   0.47000000E+01           0.13245000E-02
   0.47100000E+01           0.12777500E-02
   0.47200000E+01           0.12305000E-02
   0.47300000E+01           0.11797500E-02
   0.47400000E+01           0.11040000E-02
   0.47500000E+01           0.10917500E-02
   0.47600000E+01           0.10200000E-02
   0.47700000E+01           0.97300000E-03
   0.47800000E+01           0.94850000E-03
   0.47900000E+01           0.91300000E-03
   0.48000000E+01           0.83700000E-03
   0.48100000E+01           0.81475000E-03
   0.48200000E+01           0.75900000E-03
   0.48300000E+01           0.75750000E-03
   0.48400000E+01           0.71050000E-03
   0.48500000E+01           0.68275000E-03
   0.48600000E+01           0.65750000E-03
   0.48700000E+01           0.61500000E-03
   0.48800000E+01           0.61125000E-03
   0.48900000E+01           0.57925000E-03
   0.49000000E+01           0.53600000E-03
   0.49100000E+01           0.49475000E-03
   0.49200000E+01           0.48075000E-03
   0.49300000E+01           0.43525000E-03
   0.49400000E+01           0.44150000E-03
   0.49500000E+01           0.41275000E-03
   0.49600000E+01           0.41325000E-03
   0.49700000E+01           0.35700000E-03
   0.49800000E+01           0.35250000E-03
   0.49900000E+01           0.34525000E-03
   0.50000000E+01           0.31600000E-03
   0.50100000E+01           0.31350000E-03
   0.50200000E+01           0.27125000E-03
   0.50300000E+01           0.26550000E-03
   0.50400000E+01           0.27475000E-03
   0.50500000E+01           0.24875000E-03
   0.50600000E+01           0.23125000E-03
   0.50700000E+01           0.22575000E-03
   0.50800000E+01           0.21475000E-03
   0.50900000E+01           0.18300000E-03
   0.51000000E+01           0.18900000E-03
   0.51100000E+01           0.17500000E-03
   0.51200000E+01           0.16075000E-03
   0.51300000E+01           0.15350000E-03
   0.51400000E+01           0.15675000E-03
   0.51500000E+01           0.14550000E-03
   0.51600000E+01           0.13375000E-03
   0.51700000E+01           0.11625000E-03
   0.51800000E+01           0.11425000E-03
   0.51900000E+01           0.10975000E-03
   0.52000000E+01           0.97250000E-04
   0.52100000E+01           0.91500000E-04
   0.52200000E+01           0.87250000E-04
   0.52300000E+01           0.81000000E-04
   0.52400000E+01           0.83500000E-04
   0.52500000E+01           0.65000000E-04
   0.52600000E+01           0.70500000E-04
   0.52700000E+01           0.61750000E-04
   0.52800000E+01           0.61750000E-04
   0.52900000E+01           0.53250000E-04
   0.53000000E+01           0.57500000E-04
   0.53100000E+01           0.49000000E-04
   0.53200000E+01           0.34500000E-04
   0.53300000E+01           0.39000000E-04
   0.53400000E+01           0.34250000E-04
   0.53500000E+01           0.36500000E-04
   0.53600000E+01           0.33500000E-04
   0.53700000E+01           0.34000000E-04
   0.53800000E+01           0.28750000E-04
   0.53900000E+01           0.22750000E-04
   0.54000000E+01           0.23750000E-04
   0.54100000E+01           0.15500000E-04
   0.54200000E+01           0.21750000E-04
   0.54300000E+01           0.15500000E-04
   0.54400000E+01           0.17500000E-04
   0.54500000E+01           0.18500000E-04
   0.54600000E+01           0.15250000E-04
   0.54700000E+01           0.13000000E-04
   0.54800000E+01           0.12000000E-04
   0.54900000E+01           0.95000000E-05
   0.55000000E+01           0.72500000E-05
   0.55100000E+01           0.11000000E-04
   0.55200000E+01           0.87500000E-05
   0.55300000E+01           0.95000000E-05
   0.55400000E+01           0.70000000E-05
   0.55500000E+01           0.67500000E-05
   0.55600000E+01           0.60000000E-05
   0.55700000E+01           0.42500000E-05
   0.55800000E+01           0.37500000E-05
   0.55900000E+01           0.40000000E-05
   0.56000000E+01           0.22500000E-05
   0.56100000E+01           0.27500000E-05
   0.56200000E+01           0.40000000E-05
   0.56300000E+01           0.22500000E-05
   0.56400000E+01           0.25000000E-05
   0.56500000E+01           0.22500000E-05
   0.56600000E+01           0.12500000E-05
   0.56700000E+01           0.10000000E-05
   0.56800000E+01           0.75000000E-06
   0.56900000E+01           0.12500000E-05
   0.57000000E+01           0.25000000E-06
   0.57100000E+01           0.12500000E-05
   0.57200000E+01           0.50000000E-06
   0.57300000E+01           0.15000000E-05
   0.57400000E+01           0.25000000E-06
   0.57500000E+01           0.50000000E-06
   0.57600000E+01           0.50000000E-06
   0.57700000E+01           0.25000000E-06
   0.57800000E+01           0.25000000E-06
   0.57900000E+01           0.00000000E+00
   0.58000000E+01           0.00000000E+00
   0.58100000E+01           0.00000000E+00
   0.58200000E+01           0.00000000E+00
   0.58300000E+01           0.00000000E+00
   0.58400000E+01           0.25000000E-06
   0.58500000E+01           0.25000000E-06
   0.58600000E+01           0.00000000E+00
   0.58700000E+01           0.25000000E-06
   0.58800000E+01           0.00000000E+00
   0.58900000E+01           0.25000000E-06
   0.59000000E+01           0.00000000E+00
   0.59100000E+01           0.00000000E+00
   0.59200000E+01           0.00000000E+00
   0.59300000E+01           0.00000000E+00
   0.59400000E+01           0.00000000E+00
   0.59500000E+01           0.00000000E+00
   0.59600000E+01           0.00000000E+00
   0.59700000E+01           0.00000000E+00
   0.59800000E+01           0.00000000E+00
   0.59900000E+01           0.00000000E+00
   0.60000000E+01           0.00000000E+00
