 #written on 12Sep2024 at 00:51:32 
 #----------------------------------------------- MONTECARLO ---------------------------------------------------#
 # Temp      Magnetization     Energy_ave          C_M              Sus              U_E              U_M       #
 #--------------------------------------------------------------------------------------------------------------#
   1.0000   0.17024031E-02  -0.97562977E+02   0.10093073E+01   0.15239841E-02   0.66666660E+00   0.34098394E+00
   2.0000   0.24122452E-02  -0.96552359E+02   0.10153843E+01   0.14888044E-02   0.66666638E+00   0.34479520E+00
   3.0000   0.29578670E-02  -0.95534420E+02   0.10265641E+01   0.14462475E-02   0.66666599E+00   0.35295229E+00
   4.0000   0.34302788E-02  -0.94508453E+02   0.10321603E+01   0.14223869E-02   0.66666543E+00   0.35830348E+00
   5.0000   0.38484886E-02  -0.93474400E+02   0.10380162E+01   0.13995107E-02   0.66666469E+00   0.36366926E+00
   6.0000   0.42220790E-02  -0.92429314E+02   0.10489229E+01   0.13706992E-02   0.66666372E+00   0.36973777E+00
   7.0000   0.45772178E-02  -0.91376313E+02   0.10605372E+01   0.13528219E-02   0.66666252E+00   0.37531713E+00
   8.0000   0.49027020E-02  -0.90312074E+02   0.10722328E+01   0.13296076E-02   0.66666106E+00   0.38070554E+00
   9.0000   0.52110679E-02  -0.89235774E+02   0.10849391E+01   0.13115161E-02   0.66665931E+00   0.38539337E+00
  10.0000   0.55077954E-02  -0.88147904E+02   0.10955496E+01   0.12939522E-02   0.66665727E+00   0.39077965E+00
  11.0000   0.57888521E-02  -0.87044862E+02   0.11087318E+01   0.12756056E-02   0.66665486E+00   0.39576378E+00
  12.0000   0.60613960E-02  -0.85927539E+02   0.11280906E+01   0.12603688E-02   0.66665200E+00   0.40046594E+00
  13.0000   0.63253030E-02  -0.84792979E+02   0.11433439E+01   0.12486051E-02   0.66664875E+00   0.40482004E+00
  14.0000   0.65796739E-02  -0.83641201E+02   0.11637883E+01   0.12378937E-02   0.66664493E+00   0.40849710E+00
  15.0000   0.68267860E-02  -0.82466662E+02   0.11865351E+01   0.12249177E-02   0.66664050E+00   0.41315863E+00
  16.0000   0.70690975E-02  -0.81269923E+02   0.12125207E+01   0.12143703E-02   0.66663534E+00   0.41713576E+00
  17.0000   0.73056320E-02  -0.80042590E+02   0.12422504E+01   0.12079517E-02   0.66662932E+00   0.42033145E+00
  18.0000   0.75367359E-02  -0.78787660E+02   0.12720761E+01   0.12003367E-02   0.66662242E+00   0.42377165E+00
  19.0000   0.77685929E-02  -0.77494217E+02   0.13139471E+01   0.11980256E-02   0.66661403E+00   0.42635758E+00
  20.0000   0.79957547E-02  -0.76159964E+02   0.13544032E+01   0.11913374E-02   0.66660442E+00   0.43004733E+00
  21.0000   0.82148943E-02  -0.74778299E+02   0.14107986E+01   0.11886536E-02   0.66659252E+00   0.43235582E+00
  22.0000   0.84390262E-02  -0.73343570E+02   0.14658772E+01   0.11867371E-02   0.66657879E+00   0.43524613E+00
  23.0000   0.86614261E-02  -0.71844205E+02   0.15380616E+01   0.11865368E-02   0.66656164E+00   0.43747870E+00
  24.0000   0.88861172E-02  -0.70269158E+02   0.16158737E+01   0.11892608E-02   0.66654109E+00   0.43958957E+00
  25.0000   0.91059531E-02  -0.68605118E+02   0.17207997E+01   0.11924546E-02   0.66651446E+00   0.44140379E+00
  26.0000   0.93362548E-02  -0.66836001E+02   0.18268955E+01   0.11994045E-02   0.66648253E+00   0.44259783E+00
  27.0000   0.95590488E-02  -0.64944718E+02   0.19445963E+01   0.12107894E-02   0.66644281E+00   0.44293391E+00
  28.0000   0.97901663E-02  -0.63001498E+02   0.18560901E+01   0.12201437E-02   0.66642215E+00   0.44416827E+00
  29.0000   0.10006024E-01  -0.61353790E+02   0.14216992E+01   0.12311288E-02   0.66645464E+00   0.44417709E+00
  30.0000   0.10209307E-01  -0.60104564E+02   0.11204623E+01   0.12372545E-02   0.66648044E+00   0.44444934E+00
  31.0000   0.10394388E-01  -0.59067187E+02   0.96429934E+00   0.12412886E-02   0.66648956E+00   0.44437425E+00
  32.0000   0.10574655E-01  -0.58152706E+02   0.87282938E+00   0.12441193E-02   0.66649048E+00   0.44460798E+00
  33.0000   0.10751068E-01  -0.57312230E+02   0.81194556E+00   0.12491345E-02   0.66648724E+00   0.44391886E+00
  34.0000   0.10915319E-01  -0.56521166E+02   0.76685780E+00   0.12481244E-02   0.66648173E+00   0.44452031E+00
  35.0000   0.11085374E-01  -0.55772712E+02   0.73163161E+00   0.12521319E-02   0.66647465E+00   0.44412074E+00
  36.0000   0.11248659E-01  -0.55056850E+02   0.70343155E+00   0.12517323E-02   0.66646625E+00   0.44446246E+00
  37.0000   0.11411898E-01  -0.54365386E+02   0.67862882E+00   0.12522936E-02   0.66645721E+00   0.44451253E+00
  38.0000   0.11562784E-01  -0.53695968E+02   0.65803074E+00   0.12554963E-02   0.66644709E+00   0.44404882E+00
  39.0000   0.11708515E-01  -0.53049950E+02   0.63886249E+00   0.12524012E-02   0.66643662E+00   0.44436622E+00
  40.0000   0.11857859E-01  -0.52419221E+02   0.62114446E+00   0.12531017E-02   0.66642570E+00   0.44414695E+00
  41.0000   0.12005727E-01  -0.51804520E+02   0.60803928E+00   0.12517247E-02   0.66641294E+00   0.44457814E+00
  42.0000   0.12144899E-01  -0.51203779E+02   0.59477313E+00   0.12512599E-02   0.66640008E+00   0.44436914E+00
  43.0000   0.12286349E-01  -0.50617277E+02   0.58058722E+00   0.12510370E-02   0.66638756E+00   0.44430128E+00
  44.0000   0.12421505E-01  -0.50041434E+02   0.56913270E+00   0.12488505E-02   0.66637356E+00   0.44430847E+00
  45.0000   0.12548455E-01  -0.49477244E+02   0.55866863E+00   0.12472174E-02   0.66635884E+00   0.44427754E+00
  46.0000   0.12687299E-01  -0.48925132E+02   0.54672507E+00   0.12474940E-02   0.66634474E+00   0.44410889E+00
  47.0000   0.12817999E-01  -0.48381198E+02   0.53726974E+00   0.12445250E-02   0.66632897E+00   0.44451185E+00
  48.0000   0.12935571E-01  -0.47848417E+02   0.52896889E+00   0.12436829E-02   0.66631215E+00   0.44421180E+00
  49.0000   0.13061515E-01  -0.47325219E+02   0.51936485E+00   0.12410944E-02   0.66629586E+00   0.44421838E+00
  50.0000   0.13182628E-01  -0.46809502E+02   0.51132850E+00   0.12390127E-02   0.66627814E+00   0.44406925E+00
  51.0000   0.13303962E-01  -0.46302833E+02   0.50252981E+00   0.12345308E-02   0.66626070E+00   0.44459094E+00
  52.0000   0.13410196E-01  -0.45804027E+02   0.49334703E+00   0.12335634E-02   0.66624325E+00   0.44422544E+00
  53.0000   0.13527335E-01  -0.45315180E+02   0.48619798E+00   0.12290734E-02   0.66622378E+00   0.44466611E+00
  54.0000   0.13638256E-01  -0.44833385E+02   0.47781937E+00   0.12272338E-02   0.66620510E+00   0.44441794E+00
  55.0000   0.13747226E-01  -0.44358688E+02   0.47013161E+00   0.12241491E-02   0.66618543E+00   0.44447265E+00
  56.0000   0.13846434E-01  -0.43892631E+02   0.46327039E+00   0.12195229E-02   0.66616459E+00   0.44450433E+00
  57.0000   0.13953609E-01  -0.43432140E+02   0.45565592E+00   0.12175534E-02   0.66614417E+00   0.44425615E+00
  58.0000   0.14059864E-01  -0.42980930E+02   0.44766756E+00   0.12138270E-02   0.66612393E+00   0.44455010E+00
  59.0000   0.14154615E-01  -0.42536535E+02   0.44084492E+00   0.12094895E-02   0.66610204E+00   0.44449249E+00
  60.0000   0.14248243E-01  -0.42098582E+02   0.43486828E+00   0.12048924E-02   0.66607861E+00   0.44431187E+00
