 #written on 30Jul2024 at 14:47:35 
 #----------------- MONTECARLO -------------------#
 #        M                      P(M)             #
 #------------------------------------------------#
 #T=   386.0000
  -0.20000000E+01           0.00000000E+00
  -0.19900000E+01           0.00000000E+00
  -0.19800000E+01           0.00000000E+00
  -0.19700000E+01           0.00000000E+00
  -0.19600000E+01           0.00000000E+00
  -0.19500000E+01           0.00000000E+00
  -0.19400000E+01           0.00000000E+00
  -0.19300000E+01           0.00000000E+00
  -0.19200000E+01           0.00000000E+00
  -0.19100000E+01           0.00000000E+00
  -0.19000000E+01           0.00000000E+00
  -0.18900000E+01           0.00000000E+00
  -0.18800000E+01           0.00000000E+00
  -0.18700000E+01           0.00000000E+00
  -0.18600000E+01           0.00000000E+00
  -0.18500000E+01           0.00000000E+00
  -0.18400000E+01           0.00000000E+00
  -0.18300000E+01           0.00000000E+00
  -0.18200000E+01           0.00000000E+00
  -0.18100000E+01           0.00000000E+00
  -0.18000000E+01           0.00000000E+00
  -0.17900000E+01           0.00000000E+00
  -0.17800000E+01           0.00000000E+00
  -0.17700000E+01           0.00000000E+00
  -0.17600000E+01           0.00000000E+00
  -0.17500000E+01           0.00000000E+00
  -0.17400000E+01           0.00000000E+00
  -0.17300000E+01           0.00000000E+00
  -0.17200000E+01           0.00000000E+00
  -0.17100000E+01           0.00000000E+00
  -0.17000000E+01           0.00000000E+00
  -0.16900000E+01           0.00000000E+00
  -0.16800000E+01           0.00000000E+00
  -0.16700000E+01           0.00000000E+00
  -0.16600000E+01           0.00000000E+00
  -0.16500000E+01           0.00000000E+00
  -0.16400000E+01           0.00000000E+00
  -0.16300000E+01           0.00000000E+00
  -0.16200000E+01           0.00000000E+00
  -0.16100000E+01           0.00000000E+00
  -0.16000000E+01           0.00000000E+00
  -0.15900000E+01           0.00000000E+00
  -0.15800000E+01           0.00000000E+00
  -0.15700000E+01           0.00000000E+00
  -0.15600000E+01           0.00000000E+00
  -0.15500000E+01           0.00000000E+00
  -0.15400000E+01           0.00000000E+00
  -0.15300000E+01           0.00000000E+00
  -0.15200000E+01           0.00000000E+00
  -0.15100000E+01           0.00000000E+00
  -0.15000000E+01           0.00000000E+00
  -0.14900000E+01           0.00000000E+00
  -0.14800000E+01           0.00000000E+00
  -0.14700000E+01           0.00000000E+00
  -0.14600000E+01           0.00000000E+00
  -0.14500000E+01           0.00000000E+00
  -0.14400000E+01           0.00000000E+00
  -0.14300000E+01           0.00000000E+00
  -0.14200000E+01           0.00000000E+00
  -0.14100000E+01           0.00000000E+00
  -0.14000000E+01           0.00000000E+00
  -0.13900000E+01           0.00000000E+00
  -0.13800000E+01           0.00000000E+00
  -0.13700000E+01           0.00000000E+00
  -0.13600000E+01           0.00000000E+00
  -0.13500000E+01           0.00000000E+00
  -0.13400000E+01           0.00000000E+00
  -0.13300000E+01           0.00000000E+00
  -0.13200000E+01           0.00000000E+00
  -0.13100000E+01           0.00000000E+00
  -0.13000000E+01           0.00000000E+00
  -0.12900000E+01           0.00000000E+00
  -0.12800000E+01           0.00000000E+00
  -0.12700000E+01           0.00000000E+00
  -0.12600000E+01           0.00000000E+00
  -0.12500000E+01           0.00000000E+00
  -0.12400000E+01           0.00000000E+00
  -0.12300000E+01           0.00000000E+00
  -0.12200000E+01           0.00000000E+00
  -0.12100000E+01           0.00000000E+00
  -0.12000000E+01           0.00000000E+00
  -0.11900000E+01           0.00000000E+00
  -0.11800000E+01           0.00000000E+00
  -0.11700000E+01           0.00000000E+00
  -0.11600000E+01           0.00000000E+00
  -0.11500000E+01           0.00000000E+00
  -0.11400000E+01           0.00000000E+00
  -0.11300000E+01           0.00000000E+00
  -0.11200000E+01           0.00000000E+00
  -0.11100000E+01           0.00000000E+00
  -0.11000000E+01           0.00000000E+00
  -0.10900000E+01           0.00000000E+00
  -0.10800000E+01           0.00000000E+00
  -0.10700000E+01           0.00000000E+00
  -0.10600000E+01           0.00000000E+00
  -0.10500000E+01           0.00000000E+00
  -0.10400000E+01           0.00000000E+00
  -0.10300000E+01           0.00000000E+00
  -0.10200000E+01           0.00000000E+00
  -0.10100000E+01           0.00000000E+00
  -0.10000000E+01           0.00000000E+00
  -0.99000000E+00           0.00000000E+00
  -0.98000000E+00           0.00000000E+00
  -0.97000000E+00           0.00000000E+00
  -0.96000000E+00           0.00000000E+00
  -0.95000000E+00           0.00000000E+00
  -0.94000000E+00           0.00000000E+00
  -0.93000000E+00           0.00000000E+00
  -0.92000000E+00           0.00000000E+00
  -0.91000000E+00           0.00000000E+00
  -0.90000000E+00           0.00000000E+00
  -0.89000000E+00           0.00000000E+00
  -0.88000000E+00           0.00000000E+00
  -0.87000000E+00           0.00000000E+00
  -0.86000000E+00           0.00000000E+00
  -0.85000000E+00           0.00000000E+00
  -0.84000000E+00           0.00000000E+00
  -0.83000000E+00           0.00000000E+00
  -0.82000000E+00           0.00000000E+00
  -0.81000000E+00           0.00000000E+00
  -0.80000000E+00           0.00000000E+00
  -0.79000000E+00           0.00000000E+00
  -0.78000000E+00           0.00000000E+00
  -0.77000000E+00           0.00000000E+00
  -0.76000000E+00           0.00000000E+00
  -0.75000000E+00           0.00000000E+00
  -0.74000000E+00           0.00000000E+00
  -0.73000000E+00           0.00000000E+00
  -0.72000000E+00           0.00000000E+00
  -0.71000000E+00           0.00000000E+00
  -0.70000000E+00           0.00000000E+00
  -0.69000000E+00           0.00000000E+00
  -0.68000000E+00           0.00000000E+00
  -0.67000000E+00           0.00000000E+00
  -0.66000000E+00           0.00000000E+00
  -0.65000000E+00           0.00000000E+00
  -0.64000000E+00           0.00000000E+00
  -0.63000000E+00           0.00000000E+00
  -0.62000000E+00           0.00000000E+00
  -0.61000000E+00           0.00000000E+00
  -0.60000000E+00           0.00000000E+00
  -0.59000000E+00           0.00000000E+00
  -0.58000000E+00           0.00000000E+00
  -0.57000000E+00           0.00000000E+00
  -0.56000000E+00           0.00000000E+00
  -0.55000000E+00           0.00000000E+00
  -0.54000000E+00           0.00000000E+00
  -0.53000000E+00           0.00000000E+00
  -0.52000000E+00           0.00000000E+00
  -0.51000000E+00           0.00000000E+00
  -0.50000000E+00           0.00000000E+00
  -0.49000000E+00           0.00000000E+00
  -0.48000000E+00           0.00000000E+00
  -0.47000000E+00           0.00000000E+00
  -0.46000000E+00           0.00000000E+00
  -0.45000000E+00           0.00000000E+00
  -0.44000000E+00           0.00000000E+00
  -0.43000000E+00           0.00000000E+00
  -0.42000000E+00           0.00000000E+00
  -0.41000000E+00           0.00000000E+00
  -0.40000000E+00           0.00000000E+00
  -0.39000000E+00           0.00000000E+00
  -0.38000000E+00           0.00000000E+00
  -0.37000000E+00           0.00000000E+00
  -0.36000000E+00           0.00000000E+00
  -0.35000000E+00           0.00000000E+00
  -0.34000000E+00           0.00000000E+00
  -0.33000000E+00           0.00000000E+00
  -0.32000000E+00           0.00000000E+00
  -0.31000000E+00           0.00000000E+00
  -0.30000000E+00           0.00000000E+00
  -0.29000000E+00           0.00000000E+00
  -0.28000000E+00           0.00000000E+00
  -0.27000000E+00           0.00000000E+00
  -0.26000000E+00           0.00000000E+00
  -0.25000000E+00           0.00000000E+00
  -0.24000000E+00           0.00000000E+00
  -0.23000000E+00           0.00000000E+00
  -0.22000000E+00           0.00000000E+00
  -0.21000000E+00           0.00000000E+00
  -0.20000000E+00           0.00000000E+00
  -0.19000000E+00           0.00000000E+00
  -0.18000000E+00           0.00000000E+00
  -0.17000000E+00           0.00000000E+00
  -0.16000000E+00           0.00000000E+00
  -0.15000000E+00           0.00000000E+00
  -0.14000000E+00           0.00000000E+00
  -0.13000000E+00           0.00000000E+00
  -0.12000000E+00           0.00000000E+00
  -0.11000000E+00           0.00000000E+00
  -0.10000000E+00           0.00000000E+00
  -0.90000000E-01           0.00000000E+00
  -0.80000000E-01           0.00000000E+00
  -0.70000000E-01           0.00000000E+00
  -0.60000000E-01           0.00000000E+00
  -0.50000000E-01           0.00000000E+00
  -0.40000000E-01           0.00000000E+00
  -0.30000000E-01           0.00000000E+00
  -0.20000000E-01           0.00000000E+00
  -0.10000000E-01           0.00000000E+00
   0.00000000E+00           0.14462000E-02
   0.10000000E-01           0.11726500E-01
   0.20000000E-01           0.23424700E-01
   0.30000000E-01           0.35212300E-01
   0.40000000E-01           0.46834900E-01
   0.50000000E-01           0.58617900E-01
   0.60000000E-01           0.70220700E-01
   0.70000000E-01           0.81851500E-01
   0.80000000E-01           0.93528200E-01
   0.90000000E-01           0.10537780E+00
   0.10000000E+00           0.11668120E+00
   0.11000000E+00           0.12826590E+00
   0.12000000E+00           0.13970840E+00
   0.13000000E+00           0.15141870E+00
   0.14000000E+00           0.16278670E+00
   0.15000000E+00           0.17435130E+00
   0.16000000E+00           0.18559230E+00
   0.17000000E+00           0.19679750E+00
   0.18000000E+00           0.20824210E+00
   0.19000000E+00           0.21913590E+00
   0.20000000E+00           0.23106720E+00
   0.21000000E+00           0.24154340E+00
   0.22000000E+00           0.25243500E+00
   0.23000000E+00           0.26353650E+00
   0.24000000E+00           0.27454120E+00
   0.25000000E+00           0.28530420E+00
   0.26000000E+00           0.29602470E+00
   0.27000000E+00           0.30652360E+00
   0.28000000E+00           0.31697720E+00
   0.29000000E+00           0.32755780E+00
   0.30000000E+00           0.33838530E+00
   0.31000000E+00           0.34842100E+00
   0.32000000E+00           0.35856730E+00
   0.33000000E+00           0.36856080E+00
   0.34000000E+00           0.37890810E+00
   0.35000000E+00           0.38844140E+00
   0.36000000E+00           0.39895900E+00
   0.37000000E+00           0.40863490E+00
   0.38000000E+00           0.41795830E+00
   0.39000000E+00           0.42705610E+00
   0.40000000E+00           0.43702730E+00
   0.41000000E+00           0.44596220E+00
   0.42000000E+00           0.45567000E+00
   0.43000000E+00           0.46432330E+00
   0.44000000E+00           0.47347160E+00
   0.45000000E+00           0.48219520E+00
   0.46000000E+00           0.49125680E+00
   0.47000000E+00           0.49951970E+00
   0.48000000E+00           0.50762990E+00
   0.49000000E+00           0.51615040E+00
   0.50000000E+00           0.52431640E+00
   0.51000000E+00           0.53221750E+00
   0.52000000E+00           0.54013220E+00
   0.53000000E+00           0.54808620E+00
   0.54000000E+00           0.55546080E+00
   0.55000000E+00           0.56314990E+00
   0.56000000E+00           0.57012020E+00
   0.57000000E+00           0.57740460E+00
   0.58000000E+00           0.58417480E+00
   0.59000000E+00           0.59154890E+00
   0.60000000E+00           0.59814210E+00
   0.61000000E+00           0.60500880E+00
   0.62000000E+00           0.61170480E+00
   0.63000000E+00           0.61735360E+00
   0.64000000E+00           0.62337200E+00
   0.65000000E+00           0.62964510E+00
   0.66000000E+00           0.63567220E+00
   0.67000000E+00           0.64139930E+00
   0.68000000E+00           0.64680060E+00
   0.69000000E+00           0.65189120E+00
   0.70000000E+00           0.65708230E+00
   0.71000000E+00           0.66207550E+00
   0.72000000E+00           0.66744350E+00
   0.73000000E+00           0.67168270E+00
   0.74000000E+00           0.67634880E+00
   0.75000000E+00           0.68027340E+00
   0.76000000E+00           0.68476570E+00
   0.77000000E+00           0.68879340E+00
   0.78000000E+00           0.69251930E+00
   0.79000000E+00           0.69616810E+00
   0.80000000E+00           0.70000170E+00
   0.81000000E+00           0.70333220E+00
   0.82000000E+00           0.70595840E+00
   0.83000000E+00           0.70931910E+00
   0.84000000E+00           0.71219140E+00
   0.85000000E+00           0.71491320E+00
   0.86000000E+00           0.71742880E+00
   0.87000000E+00           0.71939820E+00
   0.88000000E+00           0.72196910E+00
   0.89000000E+00           0.72357780E+00
   0.90000000E+00           0.72556320E+00
   0.91000000E+00           0.72697390E+00
   0.92000000E+00           0.72876280E+00
   0.93000000E+00           0.73026430E+00
   0.94000000E+00           0.73133940E+00
   0.95000000E+00           0.73200080E+00
   0.96000000E+00           0.73340700E+00
   0.97000000E+00           0.73338030E+00
   0.98000000E+00           0.73437770E+00
   0.99000000E+00           0.73404090E+00
   0.10000000E+01           0.73469200E+00
   0.10100000E+01           0.73446620E+00
   0.10200000E+01           0.73457610E+00
   0.10300000E+01           0.73446270E+00
   0.10400000E+01           0.73349400E+00
   0.10500000E+01           0.73272910E+00
   0.10600000E+01           0.73157590E+00
   0.10700000E+01           0.73097250E+00
   0.10800000E+01           0.72946910E+00
   0.10900000E+01           0.72867100E+00
   0.11000000E+01           0.72726930E+00
   0.11100000E+01           0.72545950E+00
   0.11200000E+01           0.72412960E+00
   0.11300000E+01           0.72153790E+00
   0.11400000E+01           0.71962540E+00
   0.11500000E+01           0.71734940E+00
   0.11600000E+01           0.71541180E+00
   0.11700000E+01           0.71286800E+00
   0.11800000E+01           0.70988680E+00
   0.11900000E+01           0.70714560E+00
   0.12000000E+01           0.70414730E+00
   0.12100000E+01           0.70082070E+00
   0.12200000E+01           0.69752070E+00
   0.12300000E+01           0.69465770E+00
   0.12400000E+01           0.69076670E+00
   0.12500000E+01           0.68731810E+00
   0.12600000E+01           0.68337860E+00
   0.12700000E+01           0.67958080E+00
   0.12800000E+01           0.67584740E+00
   0.12900000E+01           0.67162600E+00
   0.13000000E+01           0.66737390E+00
   0.13100000E+01           0.66335110E+00
   0.13200000E+01           0.65866000E+00
   0.13300000E+01           0.65384540E+00
   0.13400000E+01           0.64957710E+00
   0.13500000E+01           0.64397750E+00
   0.13600000E+01           0.63918430E+00
   0.13700000E+01           0.63444550E+00
   0.13800000E+01           0.62939120E+00
   0.13900000E+01           0.62417560E+00
   0.14000000E+01           0.61846470E+00
   0.14100000E+01           0.61300980E+00
   0.14200000E+01           0.60703360E+00
   0.14300000E+01           0.60168790E+00
   0.14400000E+01           0.59582620E+00
   0.14500000E+01           0.59036330E+00
   0.14600000E+01           0.58460240E+00
   0.14700000E+01           0.57814350E+00
   0.14800000E+01           0.57205540E+00
   0.14900000E+01           0.56570360E+00
   0.15000000E+01           0.55997110E+00
   0.15100000E+01           0.55350530E+00
   0.15200000E+01           0.54711000E+00
   0.15300000E+01           0.54065030E+00
   0.15400000E+01           0.53399440E+00
   0.15500000E+01           0.52734610E+00
   0.15600000E+01           0.52117940E+00
   0.15700000E+01           0.51420880E+00
   0.15800000E+01           0.50740750E+00
   0.15900000E+01           0.50044490E+00
   0.16000000E+01           0.49347380E+00
   0.16100000E+01           0.48661940E+00
   0.16200000E+01           0.47958160E+00
   0.16300000E+01           0.47271690E+00
   0.16400000E+01           0.46561800E+00
   0.16500000E+01           0.45835170E+00
   0.16600000E+01           0.45175900E+00
   0.16700000E+01           0.44432320E+00
   0.16800000E+01           0.43726500E+00
   0.16900000E+01           0.42993800E+00
   0.17000000E+01           0.42258980E+00
   0.17100000E+01           0.41523070E+00
   0.17200000E+01           0.40822000E+00
   0.17300000E+01           0.40088920E+00
   0.17400000E+01           0.39351910E+00
   0.17500000E+01           0.38629130E+00
   0.17600000E+01           0.37893690E+00
   0.17700000E+01           0.37159320E+00
   0.17800000E+01           0.36441300E+00
   0.17900000E+01           0.35685740E+00
   0.18000000E+01           0.34939070E+00
   0.18100000E+01           0.34239920E+00
   0.18200000E+01           0.33476480E+00
   0.18300000E+01           0.32743030E+00
   0.18400000E+01           0.31988870E+00
   0.18500000E+01           0.31289510E+00
   0.18600000E+01           0.30555780E+00
   0.18700000E+01           0.29811570E+00
   0.18800000E+01           0.29099010E+00
   0.18900000E+01           0.28383670E+00
   0.19000000E+01           0.27666330E+00
   0.19100000E+01           0.26958340E+00
   0.19200000E+01           0.26226730E+00
   0.19300000E+01           0.25493520E+00
   0.19400000E+01           0.24838230E+00
   0.19500000E+01           0.24101480E+00
   0.19600000E+01           0.23391140E+00
   0.19700000E+01           0.22759280E+00
   0.19800000E+01           0.21986390E+00
   0.19900000E+01           0.21326510E+00
   0.20000000E+01           0.10413430E+00
 #T=   387.0000
  -0.20000000E+01           0.00000000E+00
  -0.19900000E+01           0.00000000E+00
  -0.19800000E+01           0.00000000E+00
  -0.19700000E+01           0.00000000E+00
  -0.19600000E+01           0.00000000E+00
  -0.19500000E+01           0.00000000E+00
  -0.19400000E+01           0.00000000E+00
  -0.19300000E+01           0.00000000E+00
  -0.19200000E+01           0.00000000E+00
  -0.19100000E+01           0.00000000E+00
  -0.19000000E+01           0.00000000E+00
  -0.18900000E+01           0.00000000E+00
  -0.18800000E+01           0.00000000E+00
  -0.18700000E+01           0.00000000E+00
  -0.18600000E+01           0.00000000E+00
  -0.18500000E+01           0.00000000E+00
  -0.18400000E+01           0.00000000E+00
  -0.18300000E+01           0.00000000E+00
  -0.18200000E+01           0.00000000E+00
  -0.18100000E+01           0.00000000E+00
  -0.18000000E+01           0.00000000E+00
  -0.17900000E+01           0.00000000E+00
  -0.17800000E+01           0.00000000E+00
  -0.17700000E+01           0.00000000E+00
  -0.17600000E+01           0.00000000E+00
  -0.17500000E+01           0.00000000E+00
  -0.17400000E+01           0.00000000E+00
  -0.17300000E+01           0.00000000E+00
  -0.17200000E+01           0.00000000E+00
  -0.17100000E+01           0.00000000E+00
  -0.17000000E+01           0.00000000E+00
  -0.16900000E+01           0.00000000E+00
  -0.16800000E+01           0.00000000E+00
  -0.16700000E+01           0.00000000E+00
  -0.16600000E+01           0.00000000E+00
  -0.16500000E+01           0.00000000E+00
  -0.16400000E+01           0.00000000E+00
  -0.16300000E+01           0.00000000E+00
  -0.16200000E+01           0.00000000E+00
  -0.16100000E+01           0.00000000E+00
  -0.16000000E+01           0.00000000E+00
  -0.15900000E+01           0.00000000E+00
  -0.15800000E+01           0.00000000E+00
  -0.15700000E+01           0.00000000E+00
  -0.15600000E+01           0.00000000E+00
  -0.15500000E+01           0.00000000E+00
  -0.15400000E+01           0.00000000E+00
  -0.15300000E+01           0.00000000E+00
  -0.15200000E+01           0.00000000E+00
  -0.15100000E+01           0.00000000E+00
  -0.15000000E+01           0.00000000E+00
  -0.14900000E+01           0.00000000E+00
  -0.14800000E+01           0.00000000E+00
  -0.14700000E+01           0.00000000E+00
  -0.14600000E+01           0.00000000E+00
  -0.14500000E+01           0.00000000E+00
  -0.14400000E+01           0.00000000E+00
  -0.14300000E+01           0.00000000E+00
  -0.14200000E+01           0.00000000E+00
  -0.14100000E+01           0.00000000E+00
  -0.14000000E+01           0.00000000E+00
  -0.13900000E+01           0.00000000E+00
  -0.13800000E+01           0.00000000E+00
  -0.13700000E+01           0.00000000E+00
  -0.13600000E+01           0.00000000E+00
  -0.13500000E+01           0.00000000E+00
  -0.13400000E+01           0.00000000E+00
  -0.13300000E+01           0.00000000E+00
  -0.13200000E+01           0.00000000E+00
  -0.13100000E+01           0.00000000E+00
  -0.13000000E+01           0.00000000E+00
  -0.12900000E+01           0.00000000E+00
  -0.12800000E+01           0.00000000E+00
  -0.12700000E+01           0.00000000E+00
  -0.12600000E+01           0.00000000E+00
  -0.12500000E+01           0.00000000E+00
  -0.12400000E+01           0.00000000E+00
  -0.12300000E+01           0.00000000E+00
  -0.12200000E+01           0.00000000E+00
  -0.12100000E+01           0.00000000E+00
  -0.12000000E+01           0.00000000E+00
  -0.11900000E+01           0.00000000E+00
  -0.11800000E+01           0.00000000E+00
  -0.11700000E+01           0.00000000E+00
  -0.11600000E+01           0.00000000E+00
  -0.11500000E+01           0.00000000E+00
  -0.11400000E+01           0.00000000E+00
  -0.11300000E+01           0.00000000E+00
  -0.11200000E+01           0.00000000E+00
  -0.11100000E+01           0.00000000E+00
  -0.11000000E+01           0.00000000E+00
  -0.10900000E+01           0.00000000E+00
  -0.10800000E+01           0.00000000E+00
  -0.10700000E+01           0.00000000E+00
  -0.10600000E+01           0.00000000E+00
  -0.10500000E+01           0.00000000E+00
  -0.10400000E+01           0.00000000E+00
  -0.10300000E+01           0.00000000E+00
  -0.10200000E+01           0.00000000E+00
  -0.10100000E+01           0.00000000E+00
  -0.10000000E+01           0.00000000E+00
  -0.99000000E+00           0.00000000E+00
  -0.98000000E+00           0.00000000E+00
  -0.97000000E+00           0.00000000E+00
  -0.96000000E+00           0.00000000E+00
  -0.95000000E+00           0.00000000E+00
  -0.94000000E+00           0.00000000E+00
  -0.93000000E+00           0.00000000E+00
  -0.92000000E+00           0.00000000E+00
  -0.91000000E+00           0.00000000E+00
  -0.90000000E+00           0.00000000E+00
  -0.89000000E+00           0.00000000E+00
  -0.88000000E+00           0.00000000E+00
  -0.87000000E+00           0.00000000E+00
  -0.86000000E+00           0.00000000E+00
  -0.85000000E+00           0.00000000E+00
  -0.84000000E+00           0.00000000E+00
  -0.83000000E+00           0.00000000E+00
  -0.82000000E+00           0.00000000E+00
  -0.81000000E+00           0.00000000E+00
  -0.80000000E+00           0.00000000E+00
  -0.79000000E+00           0.00000000E+00
  -0.78000000E+00           0.00000000E+00
  -0.77000000E+00           0.00000000E+00
  -0.76000000E+00           0.00000000E+00
  -0.75000000E+00           0.00000000E+00
  -0.74000000E+00           0.00000000E+00
  -0.73000000E+00           0.00000000E+00
  -0.72000000E+00           0.00000000E+00
  -0.71000000E+00           0.00000000E+00
  -0.70000000E+00           0.00000000E+00
  -0.69000000E+00           0.00000000E+00
  -0.68000000E+00           0.00000000E+00
  -0.67000000E+00           0.00000000E+00
  -0.66000000E+00           0.00000000E+00
  -0.65000000E+00           0.00000000E+00
  -0.64000000E+00           0.00000000E+00
  -0.63000000E+00           0.00000000E+00
  -0.62000000E+00           0.00000000E+00
  -0.61000000E+00           0.00000000E+00
  -0.60000000E+00           0.00000000E+00
  -0.59000000E+00           0.00000000E+00
  -0.58000000E+00           0.00000000E+00
  -0.57000000E+00           0.00000000E+00
  -0.56000000E+00           0.00000000E+00
  -0.55000000E+00           0.00000000E+00
  -0.54000000E+00           0.00000000E+00
  -0.53000000E+00           0.00000000E+00
  -0.52000000E+00           0.00000000E+00
  -0.51000000E+00           0.00000000E+00
  -0.50000000E+00           0.00000000E+00
  -0.49000000E+00           0.00000000E+00
  -0.48000000E+00           0.00000000E+00
  -0.47000000E+00           0.00000000E+00
  -0.46000000E+00           0.00000000E+00
  -0.45000000E+00           0.00000000E+00
  -0.44000000E+00           0.00000000E+00
  -0.43000000E+00           0.00000000E+00
  -0.42000000E+00           0.00000000E+00
  -0.41000000E+00           0.00000000E+00
  -0.40000000E+00           0.00000000E+00
  -0.39000000E+00           0.00000000E+00
  -0.38000000E+00           0.00000000E+00
  -0.37000000E+00           0.00000000E+00
  -0.36000000E+00           0.00000000E+00
  -0.35000000E+00           0.00000000E+00
  -0.34000000E+00           0.00000000E+00
  -0.33000000E+00           0.00000000E+00
  -0.32000000E+00           0.00000000E+00
  -0.31000000E+00           0.00000000E+00
  -0.30000000E+00           0.00000000E+00
  -0.29000000E+00           0.00000000E+00
  -0.28000000E+00           0.00000000E+00
  -0.27000000E+00           0.00000000E+00
  -0.26000000E+00           0.00000000E+00
  -0.25000000E+00           0.00000000E+00
  -0.24000000E+00           0.00000000E+00
  -0.23000000E+00           0.00000000E+00
  -0.22000000E+00           0.00000000E+00
  -0.21000000E+00           0.00000000E+00
  -0.20000000E+00           0.00000000E+00
  -0.19000000E+00           0.00000000E+00
  -0.18000000E+00           0.00000000E+00
  -0.17000000E+00           0.00000000E+00
  -0.16000000E+00           0.00000000E+00
  -0.15000000E+00           0.00000000E+00
  -0.14000000E+00           0.00000000E+00
  -0.13000000E+00           0.00000000E+00
  -0.12000000E+00           0.00000000E+00
  -0.11000000E+00           0.00000000E+00
  -0.10000000E+00           0.00000000E+00
  -0.90000000E-01           0.00000000E+00
  -0.80000000E-01           0.00000000E+00
  -0.70000000E-01           0.00000000E+00
  -0.60000000E-01           0.00000000E+00
  -0.50000000E-01           0.00000000E+00
  -0.40000000E-01           0.00000000E+00
  -0.30000000E-01           0.00000000E+00
  -0.20000000E-01           0.00000000E+00
  -0.10000000E-01           0.00000000E+00
   0.00000000E+00           0.14599000E-02
   0.10000000E-01           0.11714100E-01
   0.20000000E-01           0.23265000E-01
   0.30000000E-01           0.34975400E-01
   0.40000000E-01           0.46649800E-01
   0.50000000E-01           0.58283300E-01
   0.60000000E-01           0.69839000E-01
   0.70000000E-01           0.81381700E-01
   0.80000000E-01           0.92887300E-01
   0.90000000E-01           0.10440530E+00
   0.10000000E+00           0.11609710E+00
   0.11000000E+00           0.12774760E+00
   0.12000000E+00           0.13894820E+00
   0.13000000E+00           0.15048100E+00
   0.14000000E+00           0.16174240E+00
   0.15000000E+00           0.17313630E+00
   0.16000000E+00           0.18450620E+00
   0.17000000E+00           0.19572470E+00
   0.18000000E+00           0.20678770E+00
   0.19000000E+00           0.21800180E+00
   0.20000000E+00           0.22926770E+00
   0.21000000E+00           0.24013040E+00
   0.22000000E+00           0.25137150E+00
   0.23000000E+00           0.26177810E+00
   0.24000000E+00           0.27324530E+00
   0.25000000E+00           0.28344080E+00
   0.26000000E+00           0.29456810E+00
   0.27000000E+00           0.30475400E+00
   0.28000000E+00           0.31551540E+00
   0.29000000E+00           0.32566200E+00
   0.30000000E+00           0.33590300E+00
   0.31000000E+00           0.34617470E+00
   0.32000000E+00           0.35675650E+00
   0.33000000E+00           0.36632520E+00
   0.34000000E+00           0.37674490E+00
   0.35000000E+00           0.38672700E+00
   0.36000000E+00           0.39663380E+00
   0.37000000E+00           0.40619470E+00
   0.38000000E+00           0.41558070E+00
   0.39000000E+00           0.42498600E+00
   0.40000000E+00           0.43471490E+00
   0.41000000E+00           0.44390050E+00
   0.42000000E+00           0.45298200E+00
   0.43000000E+00           0.46207020E+00
   0.44000000E+00           0.47104880E+00
   0.45000000E+00           0.47980540E+00
   0.46000000E+00           0.48845880E+00
   0.47000000E+00           0.49667920E+00
   0.48000000E+00           0.50593500E+00
   0.49000000E+00           0.51371590E+00
   0.50000000E+00           0.52196520E+00
   0.51000000E+00           0.52978590E+00
   0.52000000E+00           0.53747430E+00
   0.53000000E+00           0.54547890E+00
   0.54000000E+00           0.55324360E+00
   0.55000000E+00           0.56038960E+00
   0.56000000E+00           0.56719920E+00
   0.57000000E+00           0.57514210E+00
   0.58000000E+00           0.58174960E+00
   0.59000000E+00           0.58871230E+00
   0.60000000E+00           0.59571930E+00
   0.61000000E+00           0.60212320E+00
   0.62000000E+00           0.60885360E+00
   0.63000000E+00           0.61529460E+00
   0.64000000E+00           0.62088450E+00
   0.65000000E+00           0.62648600E+00
   0.66000000E+00           0.63291730E+00
   0.67000000E+00           0.63830960E+00
   0.68000000E+00           0.64404190E+00
   0.69000000E+00           0.64920570E+00
   0.70000000E+00           0.65427910E+00
   0.71000000E+00           0.65966630E+00
   0.72000000E+00           0.66437560E+00
   0.73000000E+00           0.66874000E+00
   0.74000000E+00           0.67307940E+00
   0.75000000E+00           0.67758180E+00
   0.76000000E+00           0.68193200E+00
   0.77000000E+00           0.68622130E+00
   0.78000000E+00           0.69017820E+00
   0.79000000E+00           0.69383400E+00
   0.80000000E+00           0.69754500E+00
   0.81000000E+00           0.70102090E+00
   0.82000000E+00           0.70358020E+00
   0.83000000E+00           0.70682250E+00
   0.84000000E+00           0.71025390E+00
   0.85000000E+00           0.71255090E+00
   0.86000000E+00           0.71502700E+00
   0.87000000E+00           0.71729100E+00
   0.88000000E+00           0.71927460E+00
   0.89000000E+00           0.72134610E+00
   0.90000000E+00           0.72363930E+00
   0.91000000E+00           0.72538230E+00
   0.92000000E+00           0.72610880E+00
   0.93000000E+00           0.72777730E+00
   0.94000000E+00           0.72929230E+00
   0.95000000E+00           0.73052050E+00
   0.96000000E+00           0.73147930E+00
   0.97000000E+00           0.73219800E+00
   0.98000000E+00           0.73223880E+00
   0.99000000E+00           0.73278400E+00
   0.10000000E+01           0.73275910E+00
   0.10100000E+01           0.73283900E+00
   0.10200000E+01           0.73278300E+00
   0.10300000E+01           0.73274460E+00
   0.10400000E+01           0.73209180E+00
   0.10500000E+01           0.73150310E+00
   0.10600000E+01           0.73072930E+00
   0.10700000E+01           0.72982480E+00
   0.10800000E+01           0.72926550E+00
   0.10900000E+01           0.72784110E+00
   0.11000000E+01           0.72538480E+00
   0.11100000E+01           0.72424490E+00
   0.11200000E+01           0.72318400E+00
   0.11300000E+01           0.72110620E+00
   0.11400000E+01           0.71921360E+00
   0.11500000E+01           0.71697650E+00
   0.11600000E+01           0.71491320E+00
   0.11700000E+01           0.71208670E+00
   0.11800000E+01           0.70972740E+00
   0.11900000E+01           0.70711460E+00
   0.12000000E+01           0.70447260E+00
   0.12100000E+01           0.70080730E+00
   0.12200000E+01           0.69837520E+00
   0.12300000E+01           0.69487820E+00
   0.12400000E+01           0.69134370E+00
   0.12500000E+01           0.68792670E+00
   0.12600000E+01           0.68401820E+00
   0.12700000E+01           0.67991160E+00
   0.12800000E+01           0.67618150E+00
   0.12900000E+01           0.67263730E+00
   0.13000000E+01           0.66786250E+00
   0.13100000E+01           0.66403650E+00
   0.13200000E+01           0.65982170E+00
   0.13300000E+01           0.65482790E+00
   0.13400000E+01           0.64997950E+00
   0.13500000E+01           0.64558920E+00
   0.13600000E+01           0.64050060E+00
   0.13700000E+01           0.63543010E+00
   0.13800000E+01           0.63101280E+00
   0.13900000E+01           0.62464570E+00
   0.14000000E+01           0.61984820E+00
   0.14100000E+01           0.61460870E+00
   0.14200000E+01           0.60914590E+00
   0.14300000E+01           0.60371990E+00
   0.14400000E+01           0.59782950E+00
   0.14500000E+01           0.59224320E+00
   0.14600000E+01           0.58654800E+00
   0.14700000E+01           0.58056910E+00
   0.14800000E+01           0.57437880E+00
   0.14900000E+01           0.56837590E+00
   0.15000000E+01           0.56197970E+00
   0.15100000E+01           0.55609630E+00
   0.15200000E+01           0.54963260E+00
   0.15300000E+01           0.54325820E+00
   0.15400000E+01           0.53643290E+00
   0.15500000E+01           0.53028090E+00
   0.15600000E+01           0.52366170E+00
   0.15700000E+01           0.51695210E+00
   0.15800000E+01           0.50985180E+00
   0.15900000E+01           0.50342570E+00
   0.16000000E+01           0.49679350E+00
   0.16100000E+01           0.48979140E+00
   0.16200000E+01           0.48266690E+00
   0.16300000E+01           0.47577910E+00
   0.16400000E+01           0.46875920E+00
   0.16500000E+01           0.46185870E+00
   0.16600000E+01           0.45495240E+00
   0.16700000E+01           0.44753970E+00
   0.16800000E+01           0.44014960E+00
   0.16900000E+01           0.43330830E+00
   0.17000000E+01           0.42615540E+00
   0.17100000E+01           0.41921780E+00
   0.17200000E+01           0.41167270E+00
   0.17300000E+01           0.40460830E+00
   0.17400000E+01           0.39750760E+00
   0.17500000E+01           0.39006150E+00
   0.17600000E+01           0.38233530E+00
   0.17700000E+01           0.37528700E+00
   0.17800000E+01           0.36799490E+00
   0.17900000E+01           0.36063430E+00
   0.18000000E+01           0.35358160E+00
   0.18100000E+01           0.34586040E+00
   0.18200000E+01           0.33878910E+00
   0.18300000E+01           0.33133430E+00
   0.18400000E+01           0.32404250E+00
   0.18500000E+01           0.31692670E+00
   0.18600000E+01           0.30977470E+00
   0.18700000E+01           0.30236460E+00
   0.18800000E+01           0.29542590E+00
   0.18900000E+01           0.28834200E+00
   0.19000000E+01           0.28104190E+00
   0.19100000E+01           0.27384600E+00
   0.19200000E+01           0.26667640E+00
   0.19300000E+01           0.25930740E+00
   0.19400000E+01           0.25261610E+00
   0.19500000E+01           0.24548200E+00
   0.19600000E+01           0.23820590E+00
   0.19700000E+01           0.23124680E+00
   0.19800000E+01           0.22451560E+00
   0.19900000E+01           0.21770970E+00
   0.20000000E+01           0.10630460E+00
 #T=   388.0000
  -0.20000000E+01           0.00000000E+00
  -0.19900000E+01           0.00000000E+00
  -0.19800000E+01           0.00000000E+00
  -0.19700000E+01           0.00000000E+00
  -0.19600000E+01           0.00000000E+00
  -0.19500000E+01           0.00000000E+00
  -0.19400000E+01           0.00000000E+00
  -0.19300000E+01           0.00000000E+00
  -0.19200000E+01           0.00000000E+00
  -0.19100000E+01           0.00000000E+00
  -0.19000000E+01           0.00000000E+00
  -0.18900000E+01           0.00000000E+00
  -0.18800000E+01           0.00000000E+00
  -0.18700000E+01           0.00000000E+00
  -0.18600000E+01           0.00000000E+00
  -0.18500000E+01           0.00000000E+00
  -0.18400000E+01           0.00000000E+00
  -0.18300000E+01           0.00000000E+00
  -0.18200000E+01           0.00000000E+00
  -0.18100000E+01           0.00000000E+00
  -0.18000000E+01           0.00000000E+00
  -0.17900000E+01           0.00000000E+00
  -0.17800000E+01           0.00000000E+00
  -0.17700000E+01           0.00000000E+00
  -0.17600000E+01           0.00000000E+00
  -0.17500000E+01           0.00000000E+00
  -0.17400000E+01           0.00000000E+00
  -0.17300000E+01           0.00000000E+00
  -0.17200000E+01           0.00000000E+00
  -0.17100000E+01           0.00000000E+00
  -0.17000000E+01           0.00000000E+00
  -0.16900000E+01           0.00000000E+00
  -0.16800000E+01           0.00000000E+00
  -0.16700000E+01           0.00000000E+00
  -0.16600000E+01           0.00000000E+00
  -0.16500000E+01           0.00000000E+00
  -0.16400000E+01           0.00000000E+00
  -0.16300000E+01           0.00000000E+00
  -0.16200000E+01           0.00000000E+00
  -0.16100000E+01           0.00000000E+00
  -0.16000000E+01           0.00000000E+00
  -0.15900000E+01           0.00000000E+00
  -0.15800000E+01           0.00000000E+00
  -0.15700000E+01           0.00000000E+00
  -0.15600000E+01           0.00000000E+00
  -0.15500000E+01           0.00000000E+00
  -0.15400000E+01           0.00000000E+00
  -0.15300000E+01           0.00000000E+00
  -0.15200000E+01           0.00000000E+00
  -0.15100000E+01           0.00000000E+00
  -0.15000000E+01           0.00000000E+00
  -0.14900000E+01           0.00000000E+00
  -0.14800000E+01           0.00000000E+00
  -0.14700000E+01           0.00000000E+00
  -0.14600000E+01           0.00000000E+00
  -0.14500000E+01           0.00000000E+00
  -0.14400000E+01           0.00000000E+00
  -0.14300000E+01           0.00000000E+00
  -0.14200000E+01           0.00000000E+00
  -0.14100000E+01           0.00000000E+00
  -0.14000000E+01           0.00000000E+00
  -0.13900000E+01           0.00000000E+00
  -0.13800000E+01           0.00000000E+00
  -0.13700000E+01           0.00000000E+00
  -0.13600000E+01           0.00000000E+00
  -0.13500000E+01           0.00000000E+00
  -0.13400000E+01           0.00000000E+00
  -0.13300000E+01           0.00000000E+00
  -0.13200000E+01           0.00000000E+00
  -0.13100000E+01           0.00000000E+00
  -0.13000000E+01           0.00000000E+00
  -0.12900000E+01           0.00000000E+00
  -0.12800000E+01           0.00000000E+00
  -0.12700000E+01           0.00000000E+00
  -0.12600000E+01           0.00000000E+00
  -0.12500000E+01           0.00000000E+00
  -0.12400000E+01           0.00000000E+00
  -0.12300000E+01           0.00000000E+00
  -0.12200000E+01           0.00000000E+00
  -0.12100000E+01           0.00000000E+00
  -0.12000000E+01           0.00000000E+00
  -0.11900000E+01           0.00000000E+00
  -0.11800000E+01           0.00000000E+00
  -0.11700000E+01           0.00000000E+00
  -0.11600000E+01           0.00000000E+00
  -0.11500000E+01           0.00000000E+00
  -0.11400000E+01           0.00000000E+00
  -0.11300000E+01           0.00000000E+00
  -0.11200000E+01           0.00000000E+00
  -0.11100000E+01           0.00000000E+00
  -0.11000000E+01           0.00000000E+00
  -0.10900000E+01           0.00000000E+00
  -0.10800000E+01           0.00000000E+00
  -0.10700000E+01           0.00000000E+00
  -0.10600000E+01           0.00000000E+00
  -0.10500000E+01           0.00000000E+00
  -0.10400000E+01           0.00000000E+00
  -0.10300000E+01           0.00000000E+00
  -0.10200000E+01           0.00000000E+00
  -0.10100000E+01           0.00000000E+00
  -0.10000000E+01           0.00000000E+00
  -0.99000000E+00           0.00000000E+00
  -0.98000000E+00           0.00000000E+00
  -0.97000000E+00           0.00000000E+00
  -0.96000000E+00           0.00000000E+00
  -0.95000000E+00           0.00000000E+00
  -0.94000000E+00           0.00000000E+00
  -0.93000000E+00           0.00000000E+00
  -0.92000000E+00           0.00000000E+00
  -0.91000000E+00           0.00000000E+00
  -0.90000000E+00           0.00000000E+00
  -0.89000000E+00           0.00000000E+00
  -0.88000000E+00           0.00000000E+00
  -0.87000000E+00           0.00000000E+00
  -0.86000000E+00           0.00000000E+00
  -0.85000000E+00           0.00000000E+00
  -0.84000000E+00           0.00000000E+00
  -0.83000000E+00           0.00000000E+00
  -0.82000000E+00           0.00000000E+00
  -0.81000000E+00           0.00000000E+00
  -0.80000000E+00           0.00000000E+00
  -0.79000000E+00           0.00000000E+00
  -0.78000000E+00           0.00000000E+00
  -0.77000000E+00           0.00000000E+00
  -0.76000000E+00           0.00000000E+00
  -0.75000000E+00           0.00000000E+00
  -0.74000000E+00           0.00000000E+00
  -0.73000000E+00           0.00000000E+00
  -0.72000000E+00           0.00000000E+00
  -0.71000000E+00           0.00000000E+00
  -0.70000000E+00           0.00000000E+00
  -0.69000000E+00           0.00000000E+00
  -0.68000000E+00           0.00000000E+00
  -0.67000000E+00           0.00000000E+00
  -0.66000000E+00           0.00000000E+00
  -0.65000000E+00           0.00000000E+00
  -0.64000000E+00           0.00000000E+00
  -0.63000000E+00           0.00000000E+00
  -0.62000000E+00           0.00000000E+00
  -0.61000000E+00           0.00000000E+00
  -0.60000000E+00           0.00000000E+00
  -0.59000000E+00           0.00000000E+00
  -0.58000000E+00           0.00000000E+00
  -0.57000000E+00           0.00000000E+00
  -0.56000000E+00           0.00000000E+00
  -0.55000000E+00           0.00000000E+00
  -0.54000000E+00           0.00000000E+00
  -0.53000000E+00           0.00000000E+00
  -0.52000000E+00           0.00000000E+00
  -0.51000000E+00           0.00000000E+00
  -0.50000000E+00           0.00000000E+00
  -0.49000000E+00           0.00000000E+00
  -0.48000000E+00           0.00000000E+00
  -0.47000000E+00           0.00000000E+00
  -0.46000000E+00           0.00000000E+00
  -0.45000000E+00           0.00000000E+00
  -0.44000000E+00           0.00000000E+00
  -0.43000000E+00           0.00000000E+00
  -0.42000000E+00           0.00000000E+00
  -0.41000000E+00           0.00000000E+00
  -0.40000000E+00           0.00000000E+00
  -0.39000000E+00           0.00000000E+00
  -0.38000000E+00           0.00000000E+00
  -0.37000000E+00           0.00000000E+00
  -0.36000000E+00           0.00000000E+00
  -0.35000000E+00           0.00000000E+00
  -0.34000000E+00           0.00000000E+00
  -0.33000000E+00           0.00000000E+00
  -0.32000000E+00           0.00000000E+00
  -0.31000000E+00           0.00000000E+00
  -0.30000000E+00           0.00000000E+00
  -0.29000000E+00           0.00000000E+00
  -0.28000000E+00           0.00000000E+00
  -0.27000000E+00           0.00000000E+00
  -0.26000000E+00           0.00000000E+00
  -0.25000000E+00           0.00000000E+00
  -0.24000000E+00           0.00000000E+00
  -0.23000000E+00           0.00000000E+00
  -0.22000000E+00           0.00000000E+00
  -0.21000000E+00           0.00000000E+00
  -0.20000000E+00           0.00000000E+00
  -0.19000000E+00           0.00000000E+00
  -0.18000000E+00           0.00000000E+00
  -0.17000000E+00           0.00000000E+00
  -0.16000000E+00           0.00000000E+00
  -0.15000000E+00           0.00000000E+00
  -0.14000000E+00           0.00000000E+00
  -0.13000000E+00           0.00000000E+00
  -0.12000000E+00           0.00000000E+00
  -0.11000000E+00           0.00000000E+00
  -0.10000000E+00           0.00000000E+00
  -0.90000000E-01           0.00000000E+00
  -0.80000000E-01           0.00000000E+00
  -0.70000000E-01           0.00000000E+00
  -0.60000000E-01           0.00000000E+00
  -0.50000000E-01           0.00000000E+00
  -0.40000000E-01           0.00000000E+00
  -0.30000000E-01           0.00000000E+00
  -0.20000000E-01           0.00000000E+00
  -0.10000000E-01           0.00000000E+00
   0.00000000E+00           0.14630000E-02
   0.10000000E-01           0.11550900E-01
   0.20000000E-01           0.23086900E-01
   0.30000000E-01           0.34822300E-01
   0.40000000E-01           0.46357100E-01
   0.50000000E-01           0.58017000E-01
   0.60000000E-01           0.69432500E-01
   0.70000000E-01           0.81177200E-01
   0.80000000E-01           0.92418700E-01
   0.90000000E-01           0.10404340E+00
   0.10000000E+00           0.11537420E+00
   0.11000000E+00           0.12665730E+00
   0.12000000E+00           0.13825180E+00
   0.13000000E+00           0.14973880E+00
   0.14000000E+00           0.16095720E+00
   0.15000000E+00           0.17222780E+00
   0.16000000E+00           0.18335960E+00
   0.17000000E+00           0.19474340E+00
   0.18000000E+00           0.20579560E+00
   0.19000000E+00           0.21683520E+00
   0.20000000E+00           0.22773420E+00
   0.21000000E+00           0.23896110E+00
   0.22000000E+00           0.24966770E+00
   0.23000000E+00           0.26048150E+00
   0.24000000E+00           0.27157720E+00
   0.25000000E+00           0.28205400E+00
   0.26000000E+00           0.29251920E+00
   0.27000000E+00           0.30302140E+00
   0.28000000E+00           0.31410610E+00
   0.29000000E+00           0.32436440E+00
   0.30000000E+00           0.33429090E+00
   0.31000000E+00           0.34432830E+00
   0.32000000E+00           0.35461840E+00
   0.33000000E+00           0.36485500E+00
   0.34000000E+00           0.37469090E+00
   0.35000000E+00           0.38464530E+00
   0.36000000E+00           0.39410070E+00
   0.37000000E+00           0.40410620E+00
   0.38000000E+00           0.41369400E+00
   0.39000000E+00           0.42288120E+00
   0.40000000E+00           0.43234870E+00
   0.41000000E+00           0.44111290E+00
   0.42000000E+00           0.45071920E+00
   0.43000000E+00           0.45923550E+00
   0.44000000E+00           0.46827530E+00
   0.45000000E+00           0.47703830E+00
   0.46000000E+00           0.48534490E+00
   0.47000000E+00           0.49400170E+00
   0.48000000E+00           0.50227740E+00
   0.49000000E+00           0.51069280E+00
   0.50000000E+00           0.51919210E+00
   0.51000000E+00           0.52711920E+00
   0.52000000E+00           0.53487400E+00
   0.53000000E+00           0.54249110E+00
   0.54000000E+00           0.54974670E+00
   0.55000000E+00           0.55748730E+00
   0.56000000E+00           0.56542400E+00
   0.57000000E+00           0.57215610E+00
   0.58000000E+00           0.57903190E+00
   0.59000000E+00           0.58581900E+00
   0.60000000E+00           0.59302860E+00
   0.61000000E+00           0.59925360E+00
   0.62000000E+00           0.60577930E+00
   0.63000000E+00           0.61237710E+00
   0.64000000E+00           0.61824710E+00
   0.65000000E+00           0.62391340E+00
   0.66000000E+00           0.63004690E+00
   0.67000000E+00           0.63564510E+00
   0.68000000E+00           0.64083670E+00
   0.69000000E+00           0.64673910E+00
   0.70000000E+00           0.65149180E+00
   0.71000000E+00           0.65676480E+00
   0.72000000E+00           0.66125070E+00
   0.73000000E+00           0.66613450E+00
   0.74000000E+00           0.67125340E+00
   0.75000000E+00           0.67567990E+00
   0.76000000E+00           0.67987550E+00
   0.77000000E+00           0.68354190E+00
   0.78000000E+00           0.68723780E+00
   0.79000000E+00           0.69086700E+00
   0.80000000E+00           0.69502470E+00
   0.81000000E+00           0.69825360E+00
   0.82000000E+00           0.70165260E+00
   0.83000000E+00           0.70457090E+00
   0.84000000E+00           0.70724450E+00
   0.85000000E+00           0.71022970E+00
   0.86000000E+00           0.71297240E+00
   0.87000000E+00           0.71573670E+00
   0.88000000E+00           0.71747790E+00
   0.89000000E+00           0.71967350E+00
   0.90000000E+00           0.72132420E+00
   0.91000000E+00           0.72311830E+00
   0.92000000E+00           0.72483860E+00
   0.93000000E+00           0.72657170E+00
   0.94000000E+00           0.72755450E+00
   0.95000000E+00           0.72838780E+00
   0.96000000E+00           0.73028530E+00
   0.97000000E+00           0.73021720E+00
   0.98000000E+00           0.73055380E+00
   0.99000000E+00           0.73145530E+00
   0.10000000E+01           0.73118140E+00
   0.10100000E+01           0.73122890E+00
   0.10200000E+01           0.73129700E+00
   0.10300000E+01           0.73154850E+00
   0.10400000E+01           0.73160520E+00
   0.10500000E+01           0.73056400E+00
   0.10600000E+01           0.72984420E+00
   0.10700000E+01           0.72910950E+00
   0.10800000E+01           0.72762620E+00
   0.10900000E+01           0.72670240E+00
   0.11000000E+01           0.72540930E+00
   0.11100000E+01           0.72392220E+00
   0.11200000E+01           0.72248730E+00
   0.11300000E+01           0.72069060E+00
   0.11400000E+01           0.71839100E+00
   0.11500000E+01           0.71671710E+00
   0.11600000E+01           0.71392220E+00
   0.11700000E+01           0.71225540E+00
   0.11800000E+01           0.70896830E+00
   0.11900000E+01           0.70664400E+00
   0.12000000E+01           0.70382720E+00
   0.12100000E+01           0.70145150E+00
   0.12200000E+01           0.69806370E+00
   0.12300000E+01           0.69482260E+00
   0.12400000E+01           0.69149140E+00
   0.12500000E+01           0.68831220E+00
   0.12600000E+01           0.68420770E+00
   0.12700000E+01           0.68099080E+00
   0.12800000E+01           0.67678940E+00
   0.12900000E+01           0.67287300E+00
   0.13000000E+01           0.66867640E+00
   0.13100000E+01           0.66461250E+00
   0.13200000E+01           0.66038390E+00
   0.13300000E+01           0.65558710E+00
   0.13400000E+01           0.65085320E+00
   0.13500000E+01           0.64645750E+00
   0.13600000E+01           0.64231440E+00
   0.13700000E+01           0.63699530E+00
   0.13800000E+01           0.63189730E+00
   0.13900000E+01           0.62696800E+00
   0.14000000E+01           0.62219750E+00
   0.14100000E+01           0.61645910E+00
   0.14200000E+01           0.61093250E+00
   0.14300000E+01           0.60568300E+00
   0.14400000E+01           0.59980270E+00
   0.14500000E+01           0.59416850E+00
   0.14600000E+01           0.58832390E+00
   0.14700000E+01           0.58218890E+00
   0.14800000E+01           0.57670510E+00
   0.14900000E+01           0.57072150E+00
   0.15000000E+01           0.56460540E+00
   0.15100000E+01           0.55833770E+00
   0.15200000E+01           0.55208670E+00
   0.15300000E+01           0.54562560E+00
   0.15400000E+01           0.53931620E+00
   0.15500000E+01           0.53283940E+00
   0.15600000E+01           0.52640350E+00
   0.15700000E+01           0.51981800E+00
   0.15800000E+01           0.51323870E+00
   0.15900000E+01           0.50605590E+00
   0.16000000E+01           0.49925640E+00
   0.16100000E+01           0.49280560E+00
   0.16200000E+01           0.48606230E+00
   0.16300000E+01           0.47885920E+00
   0.16400000E+01           0.47209780E+00
   0.16500000E+01           0.46527300E+00
   0.16600000E+01           0.45798410E+00
   0.16700000E+01           0.45112630E+00
   0.16800000E+01           0.44395960E+00
   0.16900000E+01           0.43678060E+00
   0.17000000E+01           0.42962740E+00
   0.17100000E+01           0.42245410E+00
   0.17200000E+01           0.41551710E+00
   0.17300000E+01           0.40851770E+00
   0.17400000E+01           0.40121550E+00
   0.17500000E+01           0.39374910E+00
   0.17600000E+01           0.38680200E+00
   0.17700000E+01           0.37911370E+00
   0.17800000E+01           0.37179280E+00
   0.17900000E+01           0.36449950E+00
   0.18000000E+01           0.35740380E+00
   0.18100000E+01           0.35006230E+00
   0.18200000E+01           0.34279500E+00
   0.18300000E+01           0.33505770E+00
   0.18400000E+01           0.32802960E+00
   0.18500000E+01           0.32101290E+00
   0.18600000E+01           0.31396220E+00
   0.18700000E+01           0.30633280E+00
   0.18800000E+01           0.29909620E+00
   0.18900000E+01           0.29201010E+00
   0.19000000E+01           0.28482540E+00
   0.19100000E+01           0.27798150E+00
   0.19200000E+01           0.27034880E+00
   0.19300000E+01           0.26341350E+00
   0.19400000E+01           0.25657410E+00
   0.19500000E+01           0.24948830E+00
   0.19600000E+01           0.24248970E+00
   0.19700000E+01           0.23553580E+00
   0.19800000E+01           0.22850190E+00
   0.19900000E+01           0.22168260E+00
   0.20000000E+01           0.10819930E+00
 #T=   389.0000
  -0.20000000E+01           0.00000000E+00
  -0.19900000E+01           0.00000000E+00
  -0.19800000E+01           0.00000000E+00
  -0.19700000E+01           0.00000000E+00
  -0.19600000E+01           0.00000000E+00
  -0.19500000E+01           0.00000000E+00
  -0.19400000E+01           0.00000000E+00
  -0.19300000E+01           0.00000000E+00
  -0.19200000E+01           0.00000000E+00
  -0.19100000E+01           0.00000000E+00
  -0.19000000E+01           0.00000000E+00
  -0.18900000E+01           0.00000000E+00
  -0.18800000E+01           0.00000000E+00
  -0.18700000E+01           0.00000000E+00
  -0.18600000E+01           0.00000000E+00
  -0.18500000E+01           0.00000000E+00
  -0.18400000E+01           0.00000000E+00
  -0.18300000E+01           0.00000000E+00
  -0.18200000E+01           0.00000000E+00
  -0.18100000E+01           0.00000000E+00
  -0.18000000E+01           0.00000000E+00
  -0.17900000E+01           0.00000000E+00
  -0.17800000E+01           0.00000000E+00
  -0.17700000E+01           0.00000000E+00
  -0.17600000E+01           0.00000000E+00
  -0.17500000E+01           0.00000000E+00
  -0.17400000E+01           0.00000000E+00
  -0.17300000E+01           0.00000000E+00
  -0.17200000E+01           0.00000000E+00
  -0.17100000E+01           0.00000000E+00
  -0.17000000E+01           0.00000000E+00
  -0.16900000E+01           0.00000000E+00
  -0.16800000E+01           0.00000000E+00
  -0.16700000E+01           0.00000000E+00
  -0.16600000E+01           0.00000000E+00
  -0.16500000E+01           0.00000000E+00
  -0.16400000E+01           0.00000000E+00
  -0.16300000E+01           0.00000000E+00
  -0.16200000E+01           0.00000000E+00
  -0.16100000E+01           0.00000000E+00
  -0.16000000E+01           0.00000000E+00
  -0.15900000E+01           0.00000000E+00
  -0.15800000E+01           0.00000000E+00
  -0.15700000E+01           0.00000000E+00
  -0.15600000E+01           0.00000000E+00
  -0.15500000E+01           0.00000000E+00
  -0.15400000E+01           0.00000000E+00
  -0.15300000E+01           0.00000000E+00
  -0.15200000E+01           0.00000000E+00
  -0.15100000E+01           0.00000000E+00
  -0.15000000E+01           0.00000000E+00
  -0.14900000E+01           0.00000000E+00
  -0.14800000E+01           0.00000000E+00
  -0.14700000E+01           0.00000000E+00
  -0.14600000E+01           0.00000000E+00
  -0.14500000E+01           0.00000000E+00
  -0.14400000E+01           0.00000000E+00
  -0.14300000E+01           0.00000000E+00
  -0.14200000E+01           0.00000000E+00
  -0.14100000E+01           0.00000000E+00
  -0.14000000E+01           0.00000000E+00
  -0.13900000E+01           0.00000000E+00
  -0.13800000E+01           0.00000000E+00
  -0.13700000E+01           0.00000000E+00
  -0.13600000E+01           0.00000000E+00
  -0.13500000E+01           0.00000000E+00
  -0.13400000E+01           0.00000000E+00
  -0.13300000E+01           0.00000000E+00
  -0.13200000E+01           0.00000000E+00
  -0.13100000E+01           0.00000000E+00
  -0.13000000E+01           0.00000000E+00
  -0.12900000E+01           0.00000000E+00
  -0.12800000E+01           0.00000000E+00
  -0.12700000E+01           0.00000000E+00
  -0.12600000E+01           0.00000000E+00
  -0.12500000E+01           0.00000000E+00
  -0.12400000E+01           0.00000000E+00
  -0.12300000E+01           0.00000000E+00
  -0.12200000E+01           0.00000000E+00
  -0.12100000E+01           0.00000000E+00
  -0.12000000E+01           0.00000000E+00
  -0.11900000E+01           0.00000000E+00
  -0.11800000E+01           0.00000000E+00
  -0.11700000E+01           0.00000000E+00
  -0.11600000E+01           0.00000000E+00
  -0.11500000E+01           0.00000000E+00
  -0.11400000E+01           0.00000000E+00
  -0.11300000E+01           0.00000000E+00
  -0.11200000E+01           0.00000000E+00
  -0.11100000E+01           0.00000000E+00
  -0.11000000E+01           0.00000000E+00
  -0.10900000E+01           0.00000000E+00
  -0.10800000E+01           0.00000000E+00
  -0.10700000E+01           0.00000000E+00
  -0.10600000E+01           0.00000000E+00
  -0.10500000E+01           0.00000000E+00
  -0.10400000E+01           0.00000000E+00
  -0.10300000E+01           0.00000000E+00
  -0.10200000E+01           0.00000000E+00
  -0.10100000E+01           0.00000000E+00
  -0.10000000E+01           0.00000000E+00
  -0.99000000E+00           0.00000000E+00
  -0.98000000E+00           0.00000000E+00
  -0.97000000E+00           0.00000000E+00
  -0.96000000E+00           0.00000000E+00
  -0.95000000E+00           0.00000000E+00
  -0.94000000E+00           0.00000000E+00
  -0.93000000E+00           0.00000000E+00
  -0.92000000E+00           0.00000000E+00
  -0.91000000E+00           0.00000000E+00
  -0.90000000E+00           0.00000000E+00
  -0.89000000E+00           0.00000000E+00
  -0.88000000E+00           0.00000000E+00
  -0.87000000E+00           0.00000000E+00
  -0.86000000E+00           0.00000000E+00
  -0.85000000E+00           0.00000000E+00
  -0.84000000E+00           0.00000000E+00
  -0.83000000E+00           0.00000000E+00
  -0.82000000E+00           0.00000000E+00
  -0.81000000E+00           0.00000000E+00
  -0.80000000E+00           0.00000000E+00
  -0.79000000E+00           0.00000000E+00
  -0.78000000E+00           0.00000000E+00
  -0.77000000E+00           0.00000000E+00
  -0.76000000E+00           0.00000000E+00
  -0.75000000E+00           0.00000000E+00
  -0.74000000E+00           0.00000000E+00
  -0.73000000E+00           0.00000000E+00
  -0.72000000E+00           0.00000000E+00
  -0.71000000E+00           0.00000000E+00
  -0.70000000E+00           0.00000000E+00
  -0.69000000E+00           0.00000000E+00
  -0.68000000E+00           0.00000000E+00
  -0.67000000E+00           0.00000000E+00
  -0.66000000E+00           0.00000000E+00
  -0.65000000E+00           0.00000000E+00
  -0.64000000E+00           0.00000000E+00
  -0.63000000E+00           0.00000000E+00
  -0.62000000E+00           0.00000000E+00
  -0.61000000E+00           0.00000000E+00
  -0.60000000E+00           0.00000000E+00
  -0.59000000E+00           0.00000000E+00
  -0.58000000E+00           0.00000000E+00
  -0.57000000E+00           0.00000000E+00
  -0.56000000E+00           0.00000000E+00
  -0.55000000E+00           0.00000000E+00
  -0.54000000E+00           0.00000000E+00
  -0.53000000E+00           0.00000000E+00
  -0.52000000E+00           0.00000000E+00
  -0.51000000E+00           0.00000000E+00
  -0.50000000E+00           0.00000000E+00
  -0.49000000E+00           0.00000000E+00
  -0.48000000E+00           0.00000000E+00
  -0.47000000E+00           0.00000000E+00
  -0.46000000E+00           0.00000000E+00
  -0.45000000E+00           0.00000000E+00
  -0.44000000E+00           0.00000000E+00
  -0.43000000E+00           0.00000000E+00
  -0.42000000E+00           0.00000000E+00
  -0.41000000E+00           0.00000000E+00
  -0.40000000E+00           0.00000000E+00
  -0.39000000E+00           0.00000000E+00
  -0.38000000E+00           0.00000000E+00
  -0.37000000E+00           0.00000000E+00
  -0.36000000E+00           0.00000000E+00
  -0.35000000E+00           0.00000000E+00
  -0.34000000E+00           0.00000000E+00
  -0.33000000E+00           0.00000000E+00
  -0.32000000E+00           0.00000000E+00
  -0.31000000E+00           0.00000000E+00
  -0.30000000E+00           0.00000000E+00
  -0.29000000E+00           0.00000000E+00
  -0.28000000E+00           0.00000000E+00
  -0.27000000E+00           0.00000000E+00
  -0.26000000E+00           0.00000000E+00
  -0.25000000E+00           0.00000000E+00
  -0.24000000E+00           0.00000000E+00
  -0.23000000E+00           0.00000000E+00
  -0.22000000E+00           0.00000000E+00
  -0.21000000E+00           0.00000000E+00
  -0.20000000E+00           0.00000000E+00
  -0.19000000E+00           0.00000000E+00
  -0.18000000E+00           0.00000000E+00
  -0.17000000E+00           0.00000000E+00
  -0.16000000E+00           0.00000000E+00
  -0.15000000E+00           0.00000000E+00
  -0.14000000E+00           0.00000000E+00
  -0.13000000E+00           0.00000000E+00
  -0.12000000E+00           0.00000000E+00
  -0.11000000E+00           0.00000000E+00
  -0.10000000E+00           0.00000000E+00
  -0.90000000E-01           0.00000000E+00
  -0.80000000E-01           0.00000000E+00
  -0.70000000E-01           0.00000000E+00
  -0.60000000E-01           0.00000000E+00
  -0.50000000E-01           0.00000000E+00
  -0.40000000E-01           0.00000000E+00
  -0.30000000E-01           0.00000000E+00
  -0.20000000E-01           0.00000000E+00
  -0.10000000E-01           0.00000000E+00
   0.00000000E+00           0.14338000E-02
   0.10000000E-01           0.11500500E-01
   0.20000000E-01           0.23036100E-01
   0.30000000E-01           0.34568700E-01
   0.40000000E-01           0.46003900E-01
   0.50000000E-01           0.57626700E-01
   0.60000000E-01           0.69038200E-01
   0.70000000E-01           0.80597300E-01
   0.80000000E-01           0.91844700E-01
   0.90000000E-01           0.10346970E+00
   0.10000000E+00           0.11480320E+00
   0.11000000E+00           0.12610060E+00
   0.12000000E+00           0.13746930E+00
   0.13000000E+00           0.14863180E+00
   0.14000000E+00           0.16000250E+00
   0.15000000E+00           0.17134210E+00
   0.16000000E+00           0.18248680E+00
   0.17000000E+00           0.19336270E+00
   0.18000000E+00           0.20470410E+00
   0.19000000E+00           0.21575440E+00
   0.20000000E+00           0.22697860E+00
   0.21000000E+00           0.23733250E+00
   0.22000000E+00           0.24820060E+00
   0.23000000E+00           0.25921280E+00
   0.24000000E+00           0.26948780E+00
   0.25000000E+00           0.28017390E+00
   0.26000000E+00           0.29090380E+00
   0.27000000E+00           0.30167580E+00
   0.28000000E+00           0.31152310E+00
   0.29000000E+00           0.32210920E+00
   0.30000000E+00           0.33246480E+00
   0.31000000E+00           0.34245920E+00
   0.32000000E+00           0.35261050E+00
   0.33000000E+00           0.36238810E+00
   0.34000000E+00           0.37243120E+00
   0.35000000E+00           0.38289190E+00
   0.36000000E+00           0.39177010E+00
   0.37000000E+00           0.40202160E+00
   0.38000000E+00           0.41104150E+00
   0.39000000E+00           0.42066290E+00
   0.40000000E+00           0.43009430E+00
   0.41000000E+00           0.43891800E+00
   0.42000000E+00           0.44815790E+00
   0.43000000E+00           0.45765050E+00
   0.44000000E+00           0.46628810E+00
   0.45000000E+00           0.47441510E+00
   0.46000000E+00           0.48299710E+00
   0.47000000E+00           0.49176540E+00
   0.48000000E+00           0.50022100E+00
   0.49000000E+00           0.50851740E+00
   0.50000000E+00           0.51622580E+00
   0.51000000E+00           0.52449910E+00
   0.52000000E+00           0.53229830E+00
   0.53000000E+00           0.53952040E+00
   0.54000000E+00           0.54731200E+00
   0.55000000E+00           0.55480350E+00
   0.56000000E+00           0.56210590E+00
   0.57000000E+00           0.56907730E+00
   0.58000000E+00           0.57656030E+00
   0.59000000E+00           0.58349910E+00
   0.60000000E+00           0.58955540E+00
   0.61000000E+00           0.59697910E+00
   0.62000000E+00           0.60293940E+00
   0.63000000E+00           0.60936310E+00
   0.64000000E+00           0.61544570E+00
   0.65000000E+00           0.62153670E+00
   0.66000000E+00           0.62748430E+00
   0.67000000E+00           0.63287850E+00
   0.68000000E+00           0.63835460E+00
   0.69000000E+00           0.64363310E+00
   0.70000000E+00           0.64872910E+00
   0.71000000E+00           0.65383440E+00
   0.72000000E+00           0.65913220E+00
   0.73000000E+00           0.66407620E+00
   0.74000000E+00           0.66864360E+00
   0.75000000E+00           0.67239530E+00
   0.76000000E+00           0.67719750E+00
   0.77000000E+00           0.68100730E+00
   0.78000000E+00           0.68500910E+00
   0.79000000E+00           0.68871950E+00
   0.80000000E+00           0.69272050E+00
   0.81000000E+00           0.69605540E+00
   0.82000000E+00           0.69877350E+00
   0.83000000E+00           0.70239200E+00
   0.84000000E+00           0.70512480E+00
   0.85000000E+00           0.70826160E+00
   0.86000000E+00           0.71052860E+00
   0.87000000E+00           0.71323110E+00
   0.88000000E+00           0.71473880E+00
   0.89000000E+00           0.71780510E+00
   0.90000000E+00           0.71892330E+00
   0.91000000E+00           0.72131770E+00
   0.92000000E+00           0.72279620E+00
   0.93000000E+00           0.72431580E+00
   0.94000000E+00           0.72564590E+00
   0.95000000E+00           0.72669200E+00
   0.96000000E+00           0.72804960E+00
   0.97000000E+00           0.72853820E+00
   0.98000000E+00           0.72919810E+00
   0.99000000E+00           0.73013960E+00
   0.10000000E+01           0.72996470E+00
   0.10100000E+01           0.73000660E+00
   0.10200000E+01           0.73055800E+00
   0.10300000E+01           0.72969710E+00
   0.10400000E+01           0.72975150E+00
   0.10500000E+01           0.72882220E+00
   0.10600000E+01           0.72848700E+00
   0.10700000E+01           0.72742240E+00
   0.10800000E+01           0.72697280E+00
   0.10900000E+01           0.72540950E+00
   0.11000000E+01           0.72428370E+00
   0.11100000E+01           0.72354010E+00
   0.11200000E+01           0.72138390E+00
   0.11300000E+01           0.72027290E+00
   0.11400000E+01           0.71759990E+00
   0.11500000E+01           0.71549160E+00
   0.11600000E+01           0.71413380E+00
   0.11700000E+01           0.71154650E+00
   0.11800000E+01           0.70911290E+00
   0.11900000E+01           0.70672950E+00
   0.12000000E+01           0.70355450E+00
   0.12100000E+01           0.70130380E+00
   0.12200000E+01           0.69813660E+00
   0.12300000E+01           0.69518360E+00
   0.12400000E+01           0.69203080E+00
   0.12500000E+01           0.68853600E+00
   0.12600000E+01           0.68566230E+00
   0.12700000E+01           0.68127300E+00
   0.12800000E+01           0.67764600E+00
   0.12900000E+01           0.67295090E+00
   0.13000000E+01           0.66946200E+00
   0.13100000E+01           0.66515420E+00
   0.13200000E+01           0.66085060E+00
   0.13300000E+01           0.65649410E+00
   0.13400000E+01           0.65231630E+00
   0.13500000E+01           0.64757320E+00
   0.13600000E+01           0.64314590E+00
   0.13700000E+01           0.63819560E+00
   0.13800000E+01           0.63349830E+00
   0.13900000E+01           0.62852280E+00
   0.14000000E+01           0.62293430E+00
   0.14100000E+01           0.61798170E+00
   0.14200000E+01           0.61239970E+00
   0.14300000E+01           0.60738460E+00
   0.14400000E+01           0.60167730E+00
   0.14500000E+01           0.59638890E+00
   0.14600000E+01           0.59053160E+00
   0.14700000E+01           0.58433820E+00
   0.14800000E+01           0.57896370E+00
   0.14900000E+01           0.57280020E+00
   0.15000000E+01           0.56651400E+00
   0.15100000E+01           0.56055960E+00
   0.15200000E+01           0.55426640E+00
   0.15300000E+01           0.54834710E+00
   0.15400000E+01           0.54205690E+00
   0.15500000E+01           0.53534810E+00
   0.15600000E+01           0.52923250E+00
   0.15700000E+01           0.52185480E+00
   0.15800000E+01           0.51627330E+00
   0.15900000E+01           0.50948390E+00
   0.16000000E+01           0.50274010E+00
   0.16100000E+01           0.49572910E+00
   0.16200000E+01           0.48954880E+00
   0.16300000E+01           0.48232920E+00
   0.16400000E+01           0.47508640E+00
   0.16500000E+01           0.46843080E+00
   0.16600000E+01           0.46124010E+00
   0.16700000E+01           0.45464000E+00
   0.16800000E+01           0.44767600E+00
   0.16900000E+01           0.44056690E+00
   0.17000000E+01           0.43318320E+00
   0.17100000E+01           0.42644640E+00
   0.17200000E+01           0.41934370E+00
   0.17300000E+01           0.41126910E+00
   0.17400000E+01           0.40465990E+00
   0.17500000E+01           0.39730530E+00
   0.17600000E+01           0.39005990E+00
   0.17700000E+01           0.38287010E+00
   0.17800000E+01           0.37591350E+00
   0.17900000E+01           0.36844320E+00
   0.18000000E+01           0.36133860E+00
   0.18100000E+01           0.35405460E+00
   0.18200000E+01           0.34678990E+00
   0.18300000E+01           0.33960880E+00
   0.18400000E+01           0.33233620E+00
   0.18500000E+01           0.32522710E+00
   0.18600000E+01           0.31772450E+00
   0.18700000E+01           0.31028070E+00
   0.18800000E+01           0.30354200E+00
   0.18900000E+01           0.29635210E+00
   0.19000000E+01           0.28896250E+00
   0.19100000E+01           0.28208610E+00
   0.19200000E+01           0.27521790E+00
   0.19300000E+01           0.26776300E+00
   0.19400000E+01           0.26081180E+00
   0.19500000E+01           0.25362300E+00
   0.19600000E+01           0.24642790E+00
   0.19700000E+01           0.23983440E+00
   0.19800000E+01           0.23267630E+00
   0.19900000E+01           0.22609690E+00
   0.20000000E+01           0.11054470E+00
 #T=   390.0000
  -0.20000000E+01           0.00000000E+00
  -0.19900000E+01           0.00000000E+00
  -0.19800000E+01           0.00000000E+00
  -0.19700000E+01           0.00000000E+00
  -0.19600000E+01           0.00000000E+00
  -0.19500000E+01           0.00000000E+00
  -0.19400000E+01           0.00000000E+00
  -0.19300000E+01           0.00000000E+00
  -0.19200000E+01           0.00000000E+00
  -0.19100000E+01           0.00000000E+00
  -0.19000000E+01           0.00000000E+00
  -0.18900000E+01           0.00000000E+00
  -0.18800000E+01           0.00000000E+00
  -0.18700000E+01           0.00000000E+00
  -0.18600000E+01           0.00000000E+00
  -0.18500000E+01           0.00000000E+00
  -0.18400000E+01           0.00000000E+00
  -0.18300000E+01           0.00000000E+00
  -0.18200000E+01           0.00000000E+00
  -0.18100000E+01           0.00000000E+00
  -0.18000000E+01           0.00000000E+00
  -0.17900000E+01           0.00000000E+00
  -0.17800000E+01           0.00000000E+00
  -0.17700000E+01           0.00000000E+00
  -0.17600000E+01           0.00000000E+00
  -0.17500000E+01           0.00000000E+00
  -0.17400000E+01           0.00000000E+00
  -0.17300000E+01           0.00000000E+00
  -0.17200000E+01           0.00000000E+00
  -0.17100000E+01           0.00000000E+00
  -0.17000000E+01           0.00000000E+00
  -0.16900000E+01           0.00000000E+00
  -0.16800000E+01           0.00000000E+00
  -0.16700000E+01           0.00000000E+00
  -0.16600000E+01           0.00000000E+00
  -0.16500000E+01           0.00000000E+00
  -0.16400000E+01           0.00000000E+00
  -0.16300000E+01           0.00000000E+00
  -0.16200000E+01           0.00000000E+00
  -0.16100000E+01           0.00000000E+00
  -0.16000000E+01           0.00000000E+00
  -0.15900000E+01           0.00000000E+00
  -0.15800000E+01           0.00000000E+00
  -0.15700000E+01           0.00000000E+00
  -0.15600000E+01           0.00000000E+00
  -0.15500000E+01           0.00000000E+00
  -0.15400000E+01           0.00000000E+00
  -0.15300000E+01           0.00000000E+00
  -0.15200000E+01           0.00000000E+00
  -0.15100000E+01           0.00000000E+00
  -0.15000000E+01           0.00000000E+00
  -0.14900000E+01           0.00000000E+00
  -0.14800000E+01           0.00000000E+00
  -0.14700000E+01           0.00000000E+00
  -0.14600000E+01           0.00000000E+00
  -0.14500000E+01           0.00000000E+00
  -0.14400000E+01           0.00000000E+00
  -0.14300000E+01           0.00000000E+00
  -0.14200000E+01           0.00000000E+00
  -0.14100000E+01           0.00000000E+00
  -0.14000000E+01           0.00000000E+00
  -0.13900000E+01           0.00000000E+00
  -0.13800000E+01           0.00000000E+00
  -0.13700000E+01           0.00000000E+00
  -0.13600000E+01           0.00000000E+00
  -0.13500000E+01           0.00000000E+00
  -0.13400000E+01           0.00000000E+00
  -0.13300000E+01           0.00000000E+00
  -0.13200000E+01           0.00000000E+00
  -0.13100000E+01           0.00000000E+00
  -0.13000000E+01           0.00000000E+00
  -0.12900000E+01           0.00000000E+00
  -0.12800000E+01           0.00000000E+00
  -0.12700000E+01           0.00000000E+00
  -0.12600000E+01           0.00000000E+00
  -0.12500000E+01           0.00000000E+00
  -0.12400000E+01           0.00000000E+00
  -0.12300000E+01           0.00000000E+00
  -0.12200000E+01           0.00000000E+00
  -0.12100000E+01           0.00000000E+00
  -0.12000000E+01           0.00000000E+00
  -0.11900000E+01           0.00000000E+00
  -0.11800000E+01           0.00000000E+00
  -0.11700000E+01           0.00000000E+00
  -0.11600000E+01           0.00000000E+00
  -0.11500000E+01           0.00000000E+00
  -0.11400000E+01           0.00000000E+00
  -0.11300000E+01           0.00000000E+00
  -0.11200000E+01           0.00000000E+00
  -0.11100000E+01           0.00000000E+00
  -0.11000000E+01           0.00000000E+00
  -0.10900000E+01           0.00000000E+00
  -0.10800000E+01           0.00000000E+00
  -0.10700000E+01           0.00000000E+00
  -0.10600000E+01           0.00000000E+00
  -0.10500000E+01           0.00000000E+00
  -0.10400000E+01           0.00000000E+00
  -0.10300000E+01           0.00000000E+00
  -0.10200000E+01           0.00000000E+00
  -0.10100000E+01           0.00000000E+00
  -0.10000000E+01           0.00000000E+00
  -0.99000000E+00           0.00000000E+00
  -0.98000000E+00           0.00000000E+00
  -0.97000000E+00           0.00000000E+00
  -0.96000000E+00           0.00000000E+00
  -0.95000000E+00           0.00000000E+00
  -0.94000000E+00           0.00000000E+00
  -0.93000000E+00           0.00000000E+00
  -0.92000000E+00           0.00000000E+00
  -0.91000000E+00           0.00000000E+00
  -0.90000000E+00           0.00000000E+00
  -0.89000000E+00           0.00000000E+00
  -0.88000000E+00           0.00000000E+00
  -0.87000000E+00           0.00000000E+00
  -0.86000000E+00           0.00000000E+00
  -0.85000000E+00           0.00000000E+00
  -0.84000000E+00           0.00000000E+00
  -0.83000000E+00           0.00000000E+00
  -0.82000000E+00           0.00000000E+00
  -0.81000000E+00           0.00000000E+00
  -0.80000000E+00           0.00000000E+00
  -0.79000000E+00           0.00000000E+00
  -0.78000000E+00           0.00000000E+00
  -0.77000000E+00           0.00000000E+00
  -0.76000000E+00           0.00000000E+00
  -0.75000000E+00           0.00000000E+00
  -0.74000000E+00           0.00000000E+00
  -0.73000000E+00           0.00000000E+00
  -0.72000000E+00           0.00000000E+00
  -0.71000000E+00           0.00000000E+00
  -0.70000000E+00           0.00000000E+00
  -0.69000000E+00           0.00000000E+00
  -0.68000000E+00           0.00000000E+00
  -0.67000000E+00           0.00000000E+00
  -0.66000000E+00           0.00000000E+00
  -0.65000000E+00           0.00000000E+00
  -0.64000000E+00           0.00000000E+00
  -0.63000000E+00           0.00000000E+00
  -0.62000000E+00           0.00000000E+00
  -0.61000000E+00           0.00000000E+00
  -0.60000000E+00           0.00000000E+00
  -0.59000000E+00           0.00000000E+00
  -0.58000000E+00           0.00000000E+00
  -0.57000000E+00           0.00000000E+00
  -0.56000000E+00           0.00000000E+00
  -0.55000000E+00           0.00000000E+00
  -0.54000000E+00           0.00000000E+00
  -0.53000000E+00           0.00000000E+00
  -0.52000000E+00           0.00000000E+00
  -0.51000000E+00           0.00000000E+00
  -0.50000000E+00           0.00000000E+00
  -0.49000000E+00           0.00000000E+00
  -0.48000000E+00           0.00000000E+00
  -0.47000000E+00           0.00000000E+00
  -0.46000000E+00           0.00000000E+00
  -0.45000000E+00           0.00000000E+00
  -0.44000000E+00           0.00000000E+00
  -0.43000000E+00           0.00000000E+00
  -0.42000000E+00           0.00000000E+00
  -0.41000000E+00           0.00000000E+00
  -0.40000000E+00           0.00000000E+00
  -0.39000000E+00           0.00000000E+00
  -0.38000000E+00           0.00000000E+00
  -0.37000000E+00           0.00000000E+00
  -0.36000000E+00           0.00000000E+00
  -0.35000000E+00           0.00000000E+00
  -0.34000000E+00           0.00000000E+00
  -0.33000000E+00           0.00000000E+00
  -0.32000000E+00           0.00000000E+00
  -0.31000000E+00           0.00000000E+00
  -0.30000000E+00           0.00000000E+00
  -0.29000000E+00           0.00000000E+00
  -0.28000000E+00           0.00000000E+00
  -0.27000000E+00           0.00000000E+00
  -0.26000000E+00           0.00000000E+00
  -0.25000000E+00           0.00000000E+00
  -0.24000000E+00           0.00000000E+00
  -0.23000000E+00           0.00000000E+00
  -0.22000000E+00           0.00000000E+00
  -0.21000000E+00           0.00000000E+00
  -0.20000000E+00           0.00000000E+00
  -0.19000000E+00           0.00000000E+00
  -0.18000000E+00           0.00000000E+00
  -0.17000000E+00           0.00000000E+00
  -0.16000000E+00           0.00000000E+00
  -0.15000000E+00           0.00000000E+00
  -0.14000000E+00           0.00000000E+00
  -0.13000000E+00           0.00000000E+00
  -0.12000000E+00           0.00000000E+00
  -0.11000000E+00           0.00000000E+00
  -0.10000000E+00           0.00000000E+00
  -0.90000000E-01           0.00000000E+00
  -0.80000000E-01           0.00000000E+00
  -0.70000000E-01           0.00000000E+00
  -0.60000000E-01           0.00000000E+00
  -0.50000000E-01           0.00000000E+00
  -0.40000000E-01           0.00000000E+00
  -0.30000000E-01           0.00000000E+00
  -0.20000000E-01           0.00000000E+00
  -0.10000000E-01           0.00000000E+00
   0.00000000E+00           0.14327000E-02
   0.10000000E-01           0.11494700E-01
   0.20000000E-01           0.22834200E-01
   0.30000000E-01           0.34287400E-01
   0.40000000E-01           0.45790900E-01
   0.50000000E-01           0.57217200E-01
   0.60000000E-01           0.68477000E-01
   0.70000000E-01           0.80117000E-01
   0.80000000E-01           0.91190700E-01
   0.90000000E-01           0.10255990E+00
   0.10000000E+00           0.11398760E+00
   0.11000000E+00           0.12535200E+00
   0.12000000E+00           0.13647290E+00
   0.13000000E+00           0.14783530E+00
   0.14000000E+00           0.15902350E+00
   0.15000000E+00           0.17021220E+00
   0.16000000E+00           0.18129290E+00
   0.17000000E+00           0.19195780E+00
   0.18000000E+00           0.20338560E+00
   0.19000000E+00           0.21439550E+00
   0.20000000E+00           0.22519910E+00
   0.21000000E+00           0.23578670E+00
   0.22000000E+00           0.24700180E+00
   0.23000000E+00           0.25741580E+00
   0.24000000E+00           0.26811500E+00
   0.25000000E+00           0.27885240E+00
   0.26000000E+00           0.28938850E+00
   0.27000000E+00           0.29954170E+00
   0.28000000E+00           0.31035210E+00
   0.29000000E+00           0.32007230E+00
   0.30000000E+00           0.33057000E+00
   0.31000000E+00           0.34101150E+00
   0.32000000E+00           0.35040890E+00
   0.33000000E+00           0.36027990E+00
   0.34000000E+00           0.37041890E+00
   0.35000000E+00           0.38027430E+00
   0.36000000E+00           0.38974870E+00
   0.37000000E+00           0.39913490E+00
   0.38000000E+00           0.40882720E+00
   0.39000000E+00           0.41849820E+00
   0.40000000E+00           0.42768250E+00
   0.41000000E+00           0.43647980E+00
   0.42000000E+00           0.44543750E+00
   0.43000000E+00           0.45474180E+00
   0.44000000E+00           0.46334090E+00
   0.45000000E+00           0.47209260E+00
   0.46000000E+00           0.48049750E+00
   0.47000000E+00           0.48902990E+00
   0.48000000E+00           0.49782320E+00
   0.49000000E+00           0.50521160E+00
[...]
   0.13800000E+01           0.69082820E+00
   0.13900000E+01           0.69263400E+00
   0.14000000E+01           0.69396880E+00
   0.14100000E+01           0.69512390E+00
   0.14200000E+01           0.69691820E+00
   0.14300000E+01           0.69767710E+00
   0.14400000E+01           0.69958300E+00
   0.14500000E+01           0.70045780E+00
   0.14600000E+01           0.70200600E+00
   0.14700000E+01           0.70307940E+00
   0.14800000E+01           0.70440850E+00
   0.14900000E+01           0.70481760E+00
   0.15000000E+01           0.70592380E+00
   0.15100000E+01           0.70685770E+00
   0.15200000E+01           0.70734700E+00
   0.15300000E+01           0.70845780E+00
   0.15400000E+01           0.70881520E+00
   0.15500000E+01           0.70948740E+00
   0.15600000E+01           0.71017770E+00
   0.15700000E+01           0.71042550E+00
   0.15800000E+01           0.71081290E+00
   0.15900000E+01           0.71155630E+00
   0.16000000E+01           0.71180360E+00
   0.16100000E+01           0.71207340E+00
   0.16200000E+01           0.71210190E+00
   0.16300000E+01           0.71225020E+00
   0.16400000E+01           0.71261120E+00
   0.16500000E+01           0.71287720E+00
   0.16600000E+01           0.71273310E+00
   0.16700000E+01           0.71234920E+00
   0.16800000E+01           0.71229650E+00
   0.16900000E+01           0.71217950E+00
   0.17000000E+01           0.71195450E+00
   0.17100000E+01           0.71179770E+00
   0.17200000E+01           0.71117190E+00
   0.17300000E+01           0.71097720E+00
   0.17400000E+01           0.71037310E+00
   0.17500000E+01           0.71010220E+00
   0.17600000E+01           0.70873870E+00
   0.17700000E+01           0.70844640E+00
   0.17800000E+01           0.70757160E+00
   0.17900000E+01           0.70713650E+00
   0.18000000E+01           0.70599010E+00
   0.18100000E+01           0.70530910E+00
   0.18200000E+01           0.70480830E+00
   0.18300000E+01           0.70391250E+00
   0.18400000E+01           0.70217240E+00
   0.18500000E+01           0.70095360E+00
   0.18600000E+01           0.69999420E+00
   0.18700000E+01           0.69897950E+00
   0.18800000E+01           0.69782550E+00
   0.18900000E+01           0.69618960E+00
   0.19000000E+01           0.69460670E+00
   0.19100000E+01           0.69315590E+00
   0.19200000E+01           0.69184740E+00
   0.19300000E+01           0.69015060E+00
   0.19400000E+01           0.68873080E+00
   0.19500000E+01           0.68757570E+00
   0.19600000E+01           0.68557690E+00
   0.19700000E+01           0.68355390E+00
   0.19800000E+01           0.68156810E+00
   0.19900000E+01           0.68035000E+00
   0.20000000E+01           0.33932750E+00
 #T=   465.0000
  -0.20000000E+01           0.00000000E+00
  -0.19900000E+01           0.00000000E+00
  -0.19800000E+01           0.00000000E+00
  -0.19700000E+01           0.00000000E+00
  -0.19600000E+01           0.00000000E+00
  -0.19500000E+01           0.00000000E+00
  -0.19400000E+01           0.00000000E+00
  -0.19300000E+01           0.00000000E+00
  -0.19200000E+01           0.00000000E+00
  -0.19100000E+01           0.00000000E+00
  -0.19000000E+01           0.00000000E+00
  -0.18900000E+01           0.00000000E+00
  -0.18800000E+01           0.00000000E+00
  -0.18700000E+01           0.00000000E+00
  -0.18600000E+01           0.00000000E+00
  -0.18500000E+01           0.00000000E+00
  -0.18400000E+01           0.00000000E+00
  -0.18300000E+01           0.00000000E+00
  -0.18200000E+01           0.00000000E+00
  -0.18100000E+01           0.00000000E+00
  -0.18000000E+01           0.00000000E+00
  -0.17900000E+01           0.00000000E+00
  -0.17800000E+01           0.00000000E+00
  -0.17700000E+01           0.00000000E+00
  -0.17600000E+01           0.00000000E+00
  -0.17500000E+01           0.00000000E+00
  -0.17400000E+01           0.00000000E+00
  -0.17300000E+01           0.00000000E+00
  -0.17200000E+01           0.00000000E+00
  -0.17100000E+01           0.00000000E+00
  -0.17000000E+01           0.00000000E+00
  -0.16900000E+01           0.00000000E+00
  -0.16800000E+01           0.00000000E+00
  -0.16700000E+01           0.00000000E+00
  -0.16600000E+01           0.00000000E+00
  -0.16500000E+01           0.00000000E+00
  -0.16400000E+01           0.00000000E+00
  -0.16300000E+01           0.00000000E+00
  -0.16200000E+01           0.00000000E+00
  -0.16100000E+01           0.00000000E+00
  -0.16000000E+01           0.00000000E+00
  -0.15900000E+01           0.00000000E+00
  -0.15800000E+01           0.00000000E+00
  -0.15700000E+01           0.00000000E+00
  -0.15600000E+01           0.00000000E+00
  -0.15500000E+01           0.00000000E+00
  -0.15400000E+01           0.00000000E+00
  -0.15300000E+01           0.00000000E+00
  -0.15200000E+01           0.00000000E+00
  -0.15100000E+01           0.00000000E+00
  -0.15000000E+01           0.00000000E+00
  -0.14900000E+01           0.00000000E+00
  -0.14800000E+01           0.00000000E+00
  -0.14700000E+01           0.00000000E+00
  -0.14600000E+01           0.00000000E+00
  -0.14500000E+01           0.00000000E+00
  -0.14400000E+01           0.00000000E+00
  -0.14300000E+01           0.00000000E+00
  -0.14200000E+01           0.00000000E+00
  -0.14100000E+01           0.00000000E+00
  -0.14000000E+01           0.00000000E+00
  -0.13900000E+01           0.00000000E+00
  -0.13800000E+01           0.00000000E+00
  -0.13700000E+01           0.00000000E+00
  -0.13600000E+01           0.00000000E+00
  -0.13500000E+01           0.00000000E+00
  -0.13400000E+01           0.00000000E+00
  -0.13300000E+01           0.00000000E+00
  -0.13200000E+01           0.00000000E+00
  -0.13100000E+01           0.00000000E+00
  -0.13000000E+01           0.00000000E+00
  -0.12900000E+01           0.00000000E+00
  -0.12800000E+01           0.00000000E+00
  -0.12700000E+01           0.00000000E+00
  -0.12600000E+01           0.00000000E+00
  -0.12500000E+01           0.00000000E+00
  -0.12400000E+01           0.00000000E+00
  -0.12300000E+01           0.00000000E+00
  -0.12200000E+01           0.00000000E+00
  -0.12100000E+01           0.00000000E+00
  -0.12000000E+01           0.00000000E+00
  -0.11900000E+01           0.00000000E+00
  -0.11800000E+01           0.00000000E+00
  -0.11700000E+01           0.00000000E+00
  -0.11600000E+01           0.00000000E+00
  -0.11500000E+01           0.00000000E+00
  -0.11400000E+01           0.00000000E+00
  -0.11300000E+01           0.00000000E+00
  -0.11200000E+01           0.00000000E+00
  -0.11100000E+01           0.00000000E+00
  -0.11000000E+01           0.00000000E+00
  -0.10900000E+01           0.00000000E+00
  -0.10800000E+01           0.00000000E+00
  -0.10700000E+01           0.00000000E+00
  -0.10600000E+01           0.00000000E+00
  -0.10500000E+01           0.00000000E+00
  -0.10400000E+01           0.00000000E+00
  -0.10300000E+01           0.00000000E+00
  -0.10200000E+01           0.00000000E+00
  -0.10100000E+01           0.00000000E+00
  -0.10000000E+01           0.00000000E+00
  -0.99000000E+00           0.00000000E+00
  -0.98000000E+00           0.00000000E+00
  -0.97000000E+00           0.00000000E+00
  -0.96000000E+00           0.00000000E+00
  -0.95000000E+00           0.00000000E+00
  -0.94000000E+00           0.00000000E+00
  -0.93000000E+00           0.00000000E+00
  -0.92000000E+00           0.00000000E+00
  -0.91000000E+00           0.00000000E+00
  -0.90000000E+00           0.00000000E+00
  -0.89000000E+00           0.00000000E+00
  -0.88000000E+00           0.00000000E+00
  -0.87000000E+00           0.00000000E+00
  -0.86000000E+00           0.00000000E+00
  -0.85000000E+00           0.00000000E+00
  -0.84000000E+00           0.00000000E+00
  -0.83000000E+00           0.00000000E+00
  -0.82000000E+00           0.00000000E+00
  -0.81000000E+00           0.00000000E+00
  -0.80000000E+00           0.00000000E+00
  -0.79000000E+00           0.00000000E+00
  -0.78000000E+00           0.00000000E+00
  -0.77000000E+00           0.00000000E+00
  -0.76000000E+00           0.00000000E+00
  -0.75000000E+00           0.00000000E+00
  -0.74000000E+00           0.00000000E+00
  -0.73000000E+00           0.00000000E+00
  -0.72000000E+00           0.00000000E+00
  -0.71000000E+00           0.00000000E+00
  -0.70000000E+00           0.00000000E+00
  -0.69000000E+00           0.00000000E+00
  -0.68000000E+00           0.00000000E+00
  -0.67000000E+00           0.00000000E+00
  -0.66000000E+00           0.00000000E+00
  -0.65000000E+00           0.00000000E+00
  -0.64000000E+00           0.00000000E+00
  -0.63000000E+00           0.00000000E+00
  -0.62000000E+00           0.00000000E+00
  -0.61000000E+00           0.00000000E+00
  -0.60000000E+00           0.00000000E+00
  -0.59000000E+00           0.00000000E+00
  -0.58000000E+00           0.00000000E+00
  -0.57000000E+00           0.00000000E+00
  -0.56000000E+00           0.00000000E+00
  -0.55000000E+00           0.00000000E+00
  -0.54000000E+00           0.00000000E+00
  -0.53000000E+00           0.00000000E+00
  -0.52000000E+00           0.00000000E+00
  -0.51000000E+00           0.00000000E+00
  -0.50000000E+00           0.00000000E+00
  -0.49000000E+00           0.00000000E+00
  -0.48000000E+00           0.00000000E+00
  -0.47000000E+00           0.00000000E+00
  -0.46000000E+00           0.00000000E+00
  -0.45000000E+00           0.00000000E+00
  -0.44000000E+00           0.00000000E+00
  -0.43000000E+00           0.00000000E+00
  -0.42000000E+00           0.00000000E+00
  -0.41000000E+00           0.00000000E+00
  -0.40000000E+00           0.00000000E+00
  -0.39000000E+00           0.00000000E+00
  -0.38000000E+00           0.00000000E+00
  -0.37000000E+00           0.00000000E+00
  -0.36000000E+00           0.00000000E+00
  -0.35000000E+00           0.00000000E+00
  -0.34000000E+00           0.00000000E+00
  -0.33000000E+00           0.00000000E+00
  -0.32000000E+00           0.00000000E+00
  -0.31000000E+00           0.00000000E+00
  -0.30000000E+00           0.00000000E+00
  -0.29000000E+00           0.00000000E+00
  -0.28000000E+00           0.00000000E+00
  -0.27000000E+00           0.00000000E+00
  -0.26000000E+00           0.00000000E+00
  -0.25000000E+00           0.00000000E+00
  -0.24000000E+00           0.00000000E+00
  -0.23000000E+00           0.00000000E+00
  -0.22000000E+00           0.00000000E+00
  -0.21000000E+00           0.00000000E+00
  -0.20000000E+00           0.00000000E+00
  -0.19000000E+00           0.00000000E+00
  -0.18000000E+00           0.00000000E+00
  -0.17000000E+00           0.00000000E+00
  -0.16000000E+00           0.00000000E+00
  -0.15000000E+00           0.00000000E+00
  -0.14000000E+00           0.00000000E+00
  -0.13000000E+00           0.00000000E+00
  -0.12000000E+00           0.00000000E+00
  -0.11000000E+00           0.00000000E+00
  -0.10000000E+00           0.00000000E+00
  -0.90000000E-01           0.00000000E+00
  -0.80000000E-01           0.00000000E+00
  -0.70000000E-01           0.00000000E+00
  -0.60000000E-01           0.00000000E+00
  -0.50000000E-01           0.00000000E+00
  -0.40000000E-01           0.00000000E+00
  -0.30000000E-01           0.00000000E+00
  -0.20000000E-01           0.00000000E+00
  -0.10000000E-01           0.00000000E+00
   0.00000000E+00           0.86880000E-03
   0.10000000E-01           0.68980000E-02
   0.20000000E-01           0.13743800E-01
   0.30000000E-01           0.20709200E-01
   0.40000000E-01           0.27509100E-01
   0.50000000E-01           0.34529800E-01
   0.60000000E-01           0.41359700E-01
   0.70000000E-01           0.48277000E-01
   0.80000000E-01           0.55245900E-01
   0.90000000E-01           0.61948100E-01
   0.10000000E+00           0.68872800E-01
   0.11000000E+00           0.75696600E-01
   0.12000000E+00           0.82622500E-01
   0.13000000E+00           0.89344100E-01
   0.14000000E+00           0.96370500E-01
   0.15000000E+00           0.10313580E+00
   0.16000000E+00           0.10981900E+00
   0.17000000E+00           0.11686480E+00
   0.18000000E+00           0.12366650E+00
   0.19000000E+00           0.13015800E+00
   0.20000000E+00           0.13710550E+00
   0.21000000E+00           0.14385800E+00
   0.22000000E+00           0.15042510E+00
   0.23000000E+00           0.15716650E+00
   0.24000000E+00           0.16401610E+00
   0.25000000E+00           0.17070030E+00
   0.26000000E+00           0.17732470E+00
   0.27000000E+00           0.18402830E+00
   0.28000000E+00           0.19078320E+00
   0.29000000E+00           0.19729440E+00
   0.30000000E+00           0.20397770E+00
   0.31000000E+00           0.21062780E+00
   0.32000000E+00           0.21718090E+00
   0.33000000E+00           0.22396650E+00
   0.34000000E+00           0.23045120E+00
   0.35000000E+00           0.23660400E+00
   0.36000000E+00           0.24314340E+00
   0.37000000E+00           0.24957560E+00
   0.38000000E+00           0.25625120E+00
   0.39000000E+00           0.26249340E+00
   0.40000000E+00           0.26858310E+00
   0.41000000E+00           0.27537780E+00
   0.42000000E+00           0.28185310E+00
   0.43000000E+00           0.28781650E+00
   0.44000000E+00           0.29454950E+00
   0.45000000E+00           0.30071470E+00
   0.46000000E+00           0.30651430E+00
   0.47000000E+00           0.31288760E+00
   0.48000000E+00           0.31904980E+00
   0.49000000E+00           0.32527960E+00
   0.50000000E+00           0.33136880E+00
   0.51000000E+00           0.33721550E+00
   0.52000000E+00           0.34328180E+00
   0.53000000E+00           0.34936010E+00
   0.54000000E+00           0.35488760E+00
   0.55000000E+00           0.36149770E+00
   0.56000000E+00           0.36752670E+00
   0.57000000E+00           0.37286820E+00
   0.58000000E+00           0.37834500E+00
   0.59000000E+00           0.38455260E+00
   0.60000000E+00           0.39058710E+00
   0.61000000E+00           0.39621880E+00
   0.62000000E+00           0.40179310E+00
   0.63000000E+00           0.40788840E+00
   0.64000000E+00           0.41271540E+00
   0.65000000E+00           0.41819680E+00
   0.66000000E+00           0.42421660E+00
   0.67000000E+00           0.42974650E+00
   0.68000000E+00           0.43544910E+00
   0.69000000E+00           0.44016350E+00
   0.70000000E+00           0.44511940E+00
   0.71000000E+00           0.45084530E+00
   0.72000000E+00           0.45626790E+00
   0.73000000E+00           0.46143960E+00
   0.74000000E+00           0.46686390E+00
   0.75000000E+00           0.47199040E+00
   0.76000000E+00           0.47690790E+00
   0.77000000E+00           0.48198850E+00
   0.78000000E+00           0.48697990E+00
   0.79000000E+00           0.49209790E+00
   0.80000000E+00           0.49693530E+00
   0.81000000E+00           0.50160080E+00
   0.82000000E+00           0.50625350E+00
   0.83000000E+00           0.51129010E+00
   0.84000000E+00           0.51611010E+00
   0.85000000E+00           0.52117610E+00
   0.86000000E+00           0.52510580E+00
   0.87000000E+00           0.53009670E+00
   0.88000000E+00           0.53412650E+00
   0.89000000E+00           0.53920910E+00
   0.90000000E+00           0.54363250E+00
   0.91000000E+00           0.54793440E+00
   0.92000000E+00           0.55222440E+00
   0.93000000E+00           0.55633630E+00
   0.94000000E+00           0.56040750E+00
   0.95000000E+00           0.56478320E+00
   0.96000000E+00           0.56861290E+00
   0.97000000E+00           0.57282780E+00
   0.98000000E+00           0.57665360E+00
   0.99000000E+00           0.58049930E+00
   0.10000000E+01           0.58475610E+00
   0.10100000E+01           0.58855290E+00
   0.10200000E+01           0.59202840E+00
   0.10300000E+01           0.59602970E+00
   0.10400000E+01           0.60015330E+00
   0.10500000E+01           0.60357900E+00
   0.10600000E+01           0.60717140E+00
   0.10700000E+01           0.61124470E+00
   0.10800000E+01           0.61425990E+00
   0.10900000E+01           0.61740400E+00
   0.11000000E+01           0.62116500E+00
   0.11100000E+01           0.62380700E+00
   0.11200000E+01           0.62747670E+00
   0.11300000E+01           0.62995480E+00
   0.11400000E+01           0.63368870E+00
   0.11500000E+01           0.63597470E+00
   0.11600000E+01           0.63963490E+00
   0.11700000E+01           0.64268670E+00
   0.11800000E+01           0.64546260E+00
   0.11900000E+01           0.64807900E+00
   0.12000000E+01           0.65109260E+00
   0.12100000E+01           0.65375960E+00
   0.12200000E+01           0.65663890E+00
   0.12300000E+01           0.65903290E+00
   0.12400000E+01           0.66147950E+00
   0.12500000E+01           0.66364410E+00
   0.12600000E+01           0.66671790E+00
   0.12700000E+01           0.66930980E+00
   0.12800000E+01           0.67058660E+00
   0.12900000E+01           0.67301970E+00
   0.13000000E+01           0.67512570E+00
   0.13100000E+01           0.67758210E+00
   0.13200000E+01           0.67972380E+00
   0.13300000E+01           0.68208930E+00
   0.13400000E+01           0.68400930E+00
   0.13500000E+01           0.68562900E+00
   0.13600000E+01           0.68712190E+00
   0.13700000E+01           0.68900020E+00
   0.13800000E+01           0.69098940E+00
   0.13900000E+01           0.69249140E+00
   0.14000000E+01           0.69360200E+00
   0.14100000E+01           0.69586280E+00
   0.14200000E+01           0.69716170E+00
   0.14300000E+01           0.69826580E+00
   0.14400000E+01           0.69964440E+00
   0.14500000E+01           0.70091850E+00
   0.14600000E+01           0.70226250E+00
   0.14700000E+01           0.70332860E+00
   0.14800000E+01           0.70499410E+00
   0.14900000E+01           0.70592970E+00
   0.15000000E+01           0.70657130E+00
   0.15100000E+01           0.70761110E+00
   0.15200000E+01           0.70819430E+00
   0.15300000E+01           0.70852480E+00
   0.15400000E+01           0.70965290E+00
   0.15500000E+01           0.71070580E+00
   0.15600000E+01           0.71148910E+00
   0.15700000E+01           0.71166750E+00
   0.15800000E+01           0.71271940E+00
   0.15900000E+01           0.71279960E+00
   0.16000000E+01           0.71278270E+00
   0.16100000E+01           0.71349190E+00
   0.16200000E+01           0.71346630E+00
   0.16300000E+01           0.71382480E+00
   0.16400000E+01           0.71433320E+00
   0.16500000E+01           0.71379160E+00
   0.16600000E+01           0.71419120E+00
   0.16700000E+01           0.71399650E+00
   0.16800000E+01           0.71420610E+00
   0.16900000E+01           0.71391980E+00
   0.17000000E+01           0.71381840E+00
   0.17100000E+01           0.71312500E+00
   0.17200000E+01           0.71315840E+00
   0.17300000E+01           0.71290840E+00
   0.17400000E+01           0.71199660E+00
   0.17500000E+01           0.71166230E+00
   0.17600000E+01           0.71164740E+00
   0.17700000E+01           0.70999970E+00
   0.17800000E+01           0.71018500E+00
   0.17900000E+01           0.70904890E+00
   0.18000000E+01           0.70884870E+00
   0.18100000E+01           0.70730850E+00
   0.18200000E+01           0.70613790E+00
   0.18300000E+01           0.70541370E+00
   0.18400000E+01           0.70497080E+00
   0.18500000E+01           0.70389590E+00
   0.18600000E+01           0.70267880E+00
   0.18700000E+01           0.70125990E+00
   0.18800000E+01           0.70019280E+00
   0.18900000E+01           0.69900920E+00
   0.19000000E+01           0.69771640E+00
   0.19100000E+01           0.69613250E+00
   0.19200000E+01           0.69454400E+00
   0.19300000E+01           0.69334200E+00
   0.19400000E+01           0.69187280E+00
   0.19500000E+01           0.69029160E+00
   0.19600000E+01           0.68875280E+00
   0.19700000E+01           0.68681340E+00
   0.19800000E+01           0.68482830E+00
   0.19900000E+01           0.68360070E+00
   0.20000000E+01           0.34134030E+00
