 #written on 30Jul2024 at 14:47:35 
 #----------------------------------------------- MONTECARLO ---------------------------------------------------#
 # Temp      Magnetization     Energy_ave          C_M              Sus              U_E              U_M       #
 #--------------------------------------------------------------------------------------------------------------#
 386.0000   0.10652515E-01  -0.43516707E+03   0.19488047E+01   0.10557310E-03   0.66564745E+00   0.44160928E+00
 387.0000   0.10675941E-01  -0.43321136E+03   0.19565264E+01   0.10580320E-03   0.66562886E+00   0.44224071E+00
 388.0000   0.10681991E-01  -0.43128898E+03   0.19599922E+01   0.10567816E-03   0.66561221E+00   0.44125269E+00
 389.0000   0.10710904E-01  -0.42932407E+03   0.19720469E+01   0.10556862E-03   0.66559061E+00   0.44262191E+00
 390.0000   0.10715447E-01  -0.42731683E+03   0.19858244E+01   0.10556653E-03   0.66556733E+00   0.44172929E+00
 391.0000   0.10751059E-01  -0.42533413E+03   0.19941432E+01   0.10605773E-03   0.66554684E+00   0.44228747E+00
 392.0000   0.10769870E-01  -0.42337253E+03   0.20006046E+01   0.10596708E-03   0.66552707E+00   0.44218796E+00
 393.0000   0.10787790E-01  -0.42136485E+03   0.20144292E+01   0.10587039E-03   0.66550201E+00   0.44309759E+00
 394.0000   0.10800238E-01  -0.41935929E+03   0.20287960E+01   0.10619297E-03   0.66547665E+00   0.44217554E+00
 395.0000   0.10819447E-01  -0.41727910E+03   0.20336888E+01   0.10640609E-03   0.66545587E+00   0.44177685E+00
 396.0000   0.10848843E-01  -0.41525546E+03   0.20469444E+01   0.10659051E-03   0.66542975E+00   0.44213859E+00
 397.0000   0.10857072E-01  -0.41319200E+03   0.20536549E+01   0.10648554E-03   0.66540702E+00   0.44194334E+00
 398.0000   0.10891225E-01  -0.41117226E+03   0.20578466E+01   0.10662644E-03   0.66538573E+00   0.44296962E+00
 399.0000   0.10902264E-01  -0.40911585E+03   0.20844551E+01   0.10652225E-03   0.66534980E+00   0.44303233E+00
 400.0000   0.10928822E-01  -0.40701177E+03   0.20866398E+01   0.10674161E-03   0.66532791E+00   0.44299047E+00
 401.0000   0.10944329E-01  -0.40490633E+03   0.21019171E+01   0.10681455E-03   0.66529728E+00   0.44296647E+00
 402.0000   0.10962743E-01  -0.40278703E+03   0.21138308E+01   0.10710756E-03   0.66526833E+00   0.44262439E+00
 403.0000   0.10982142E-01  -0.40068933E+03   0.21197488E+01   0.10692409E-03   0.66524250E+00   0.44312617E+00
 404.0000   0.11003383E-01  -0.39854457E+03   0.21312993E+01   0.10719718E-03   0.66521228E+00   0.44282211E+00
 405.0000   0.11020983E-01  -0.39642081E+03   0.21544965E+01   0.10752106E-03   0.66517315E+00   0.44227767E+00
 406.0000   0.11043134E-01  -0.39423038E+03   0.21599238E+01   0.10751090E-03   0.66514524E+00   0.44307416E+00
 407.0000   0.11059121E-01  -0.39207659E+03   0.21722575E+01   0.10756964E-03   0.66511227E+00   0.44330612E+00
 408.0000   0.11084498E-01  -0.38990709E+03   0.21796246E+01   0.10770258E-03   0.66508197E+00   0.44280146E+00
 409.0000   0.11101448E-01  -0.38775363E+03   0.22038867E+01   0.10786668E-03   0.66503859E+00   0.44299007E+00
 410.0000   0.11125419E-01  -0.38550746E+03   0.22179390E+01   0.10798941E-03   0.66500109E+00   0.44295414E+00
 411.0000   0.11149359E-01  -0.38330965E+03   0.22250974E+01   0.10800758E-03   0.66496854E+00   0.44367461E+00
 412.0000   0.11164829E-01  -0.38107370E+03   0.22345850E+01   0.10804338E-03   0.66493304E+00   0.44340154E+00
 413.0000   0.11189353E-01  -0.37885551E+03   0.22469689E+01   0.10826297E-03   0.66489420E+00   0.44339257E+00
 414.0000   0.11208632E-01  -0.37662966E+03   0.22554697E+01   0.10852465E-03   0.66485762E+00   0.44361110E+00
 415.0000   0.11223531E-01  -0.37434235E+03   0.22721567E+01   0.10836724E-03   0.66481304E+00   0.44343361E+00
 416.0000   0.11236254E-01  -0.37198885E+03   0.22963986E+01   0.10850843E-03   0.66476108E+00   0.44332039E+00
 417.0000   0.11268873E-01  -0.36967245E+03   0.23028393E+01   0.10872614E-03   0.66472246E+00   0.44400452E+00
 418.0000   0.11282913E-01  -0.36737175E+03   0.23225129E+01   0.10888695E-03   0.66467182E+00   0.44357417E+00
 419.0000   0.11317168E-01  -0.36511325E+03   0.23425143E+01   0.10906185E-03   0.66462022E+00   0.44376201E+00
 420.0000   0.11330465E-01  -0.36277558E+03   0.23476643E+01   0.10903462E-03   0.66457925E+00   0.44396339E+00
 421.0000   0.11348660E-01  -0.36045629E+03   0.23582345E+01   0.10904575E-03   0.66453257E+00   0.44425586E+00
 422.0000   0.11368656E-01  -0.35804950E+03   0.23751970E+01   0.10930475E-03   0.66447862E+00   0.44385496E+00
 423.0000   0.11391314E-01  -0.35564400E+03   0.24003431E+01   0.10932501E-03   0.66441536E+00   0.44430844E+00
 424.0000   0.11414190E-01  -0.35321251E+03   0.24008974E+01   0.10941196E-03   0.66437218E+00   0.44418547E+00
 425.0000   0.11425403E-01  -0.35088357E+03   0.24118021E+01   0.10937475E-03   0.66432027E+00   0.44425149E+00
 426.0000   0.11443595E-01  -0.34848592E+03   0.24217974E+01   0.10967669E-03   0.66426685E+00   0.44365253E+00
 427.0000   0.11472322E-01  -0.34601404E+03   0.24344229E+01   0.11005622E-03   0.66420787E+00   0.44411429E+00
 428.0000   0.11491567E-01  -0.34360092E+03   0.24516042E+01   0.11017240E-03   0.66414408E+00   0.44375570E+00
 429.0000   0.11508704E-01  -0.34115761E+03   0.24555954E+01   0.11039416E-03   0.66409105E+00   0.44339033E+00
 430.0000   0.11529107E-01  -0.33870770E+03   0.24552974E+01   0.11044627E-03   0.66404117E+00   0.44332876E+00
 431.0000   0.11557151E-01  -0.33626470E+03   0.24510763E+01   0.11069584E-03   0.66399402E+00   0.44388911E+00
 432.0000   0.11575750E-01  -0.33376442E+03   0.24653784E+01   0.11045715E-03   0.66392561E+00   0.44452535E+00
 433.0000   0.11600734E-01  -0.33135195E+03   0.24567310E+01   0.11070984E-03   0.66388197E+00   0.44399640E+00
 434.0000   0.11619024E-01  -0.32883266E+03   0.24626275E+01   0.11104532E-03   0.66381706E+00   0.44380458E+00
 435.0000   0.11634938E-01  -0.32640675E+03   0.24491255E+01   0.11091006E-03   0.66377694E+00   0.44427907E+00
 436.0000   0.11657835E-01  -0.32390229E+03   0.24373449E+01   0.11096330E-03   0.66373015E+00   0.44448558E+00
 437.0000   0.11670113E-01  -0.32144034E+03   0.24172403E+01   0.11086345E-03   0.66369475E+00   0.44478409E+00
 438.0000   0.11705107E-01  -0.31911011E+03   0.23978651E+01   0.11163240E-03   0.66366014E+00   0.44388853E+00
 439.0000   0.11703212E-01  -0.31679748E+03   0.23620949E+01   0.11132769E-03   0.66364582E+00   0.44379090E+00
 440.0000   0.11738912E-01  -0.31448068E+03   0.23321826E+01   0.11181393E-03   0.66362488E+00   0.44407334E+00
 441.0000   0.11750724E-01  -0.31205950E+03   0.22969831E+01   0.11152947E-03   0.66360737E+00   0.44456178E+00
 442.0000   0.11773445E-01  -0.30978911E+03   0.22514914E+01   0.11188886E-03   0.66360861E+00   0.44381319E+00
 443.0000   0.11785805E-01  -0.30755726E+03   0.22147938E+01   0.11197638E-03   0.66359867E+00   0.44374918E+00
 444.0000   0.11813034E-01  -0.30539248E+03   0.21709670E+01   0.11220738E-03   0.66359986E+00   0.44379878E+00
 445.0000   0.11833536E-01  -0.30320492E+03   0.21151953E+01   0.11199320E-03   0.66362001E+00   0.44457498E+00
 446.0000   0.11846955E-01  -0.30112950E+03   0.20664025E+01   0.11230180E-03   0.66363331E+00   0.44381604E+00
 447.0000   0.11876438E-01  -0.29908806E+03   0.20090789E+01   0.11227232E-03   0.66366263E+00   0.44465586E+00
 448.0000   0.11887833E-01  -0.29711353E+03   0.19581094E+01   0.11251659E-03   0.66368514E+00   0.44408273E+00
 449.0000   0.11893366E-01  -0.29516287E+03   0.19000351E+01   0.11230563E-03   0.66371996E+00   0.44425518E+00
 450.0000   0.11919216E-01  -0.29328984E+03   0.18489594E+01   0.11248590E-03   0.66374926E+00   0.44462584E+00
 451.0000   0.11941440E-01  -0.29148177E+03   0.17951542E+01   0.11253516E-03   0.66378527E+00   0.44436127E+00
 452.0000   0.11943458E-01  -0.28970472E+03   0.17375110E+01   0.11230862E-03   0.66383101E+00   0.44484147E+00
 453.0000   0.11965219E-01  -0.28796545E+03   0.16861127E+01   0.11258178E-03   0.66386848E+00   0.44453075E+00
 454.0000   0.11988717E-01  -0.28630095E+03   0.16458298E+01   0.11281522E-03   0.66389159E+00   0.44403657E+00
 455.0000   0.12002608E-01  -0.28468393E+03   0.15929916E+01   0.11267324E-03   0.66393742E+00   0.44464171E+00
 456.0000   0.12023058E-01  -0.28316424E+03   0.15489251E+01   0.11305253E-03   0.66397305E+00   0.44403862E+00
 457.0000   0.12033269E-01  -0.28161887E+03   0.15090811E+01   0.11259765E-03   0.66400246E+00   0.44497867E+00
 458.0000   0.12046385E-01  -0.28014646E+03   0.14660706E+01   0.11320769E-03   0.66404021E+00   0.44352339E+00
 459.0000   0.12060881E-01  -0.27871025E+03   0.14294043E+01   0.11298363E-03   0.66406840E+00   0.44418925E+00
 460.0000   0.12068318E-01  -0.27727342E+03   0.13878103E+01   0.11245298E-03   0.66410700E+00   0.44527888E+00
 461.0000   0.12096879E-01  -0.27590041E+03   0.13573087E+01   0.11302754E-03   0.66412774E+00   0.44454521E+00
 462.0000   0.12109230E-01  -0.27459565E+03   0.13203600E+01   0.11311307E-03   0.66416275E+00   0.44406232E+00
 463.0000   0.12112790E-01  -0.27327382E+03   0.12933759E+01   0.11310105E-03   0.66417982E+00   0.44393730E+00
 464.0000   0.12142409E-01  -0.27198247E+03   0.12631249E+01   0.11349055E-03   0.66420467E+00   0.44372479E+00
 465.0000   0.12143219E-01  -0.27078156E+03   0.12331158E+01   0.11328996E-03   0.66423202E+00   0.44394635E+00
