 #written on 17Jan2025 at 13:48:11 
 #------------------------------------------------- MONTECARLO -------------------------------------------------#
 # Temp      Magnetization     Energy_ave          C_M              Sus              U_E              U_M       #
 #--------------------------------------------------------------------------------------------------------------#
  31.0000   0.96472401E-02  -0.22086230E+03   0.10917687E+01   0.11781153E-02   0.66665362E+00   0.44410595E+00
  32.0000   0.91057640E-02  -0.22093062E+03   0.10880470E+01   0.10561469E-02   0.66665282E+00   0.43006497E+00
  33.0000   0.92379704E-02  -0.21984962E+03   0.10883485E+01   0.10502148E-02   0.66665179E+00   0.43093717E+00
  34.0000   0.93873115E-02  -0.21875718E+03   0.10893542E+01   0.10571282E-02   0.66665070E+00   0.42990143E+00
  35.0000   0.95350574E-02  -0.21766918E+03   0.10932380E+01   0.10563247E-02   0.66664952E+00   0.43077568E+00
  36.0000   0.96627580E-02  -0.21657019E+03   0.10992693E+01   0.10580934E-02   0.66664824E+00   0.42977977E+00
  37.0000   0.10551383E-01  -0.21424007E+03   0.11158661E+01   0.11762994E-02   0.66664647E+00   0.44431175E+00
  38.0000   0.99416218E-02  -0.21436510E+03   0.11055646E+01   0.10581270E-02   0.66664559E+00   0.43101372E+00
  39.0000   0.10831905E-01  -0.21200519E+03   0.11289834E+01   0.11807528E-02   0.66664349E+00   0.44336882E+00
  40.0000   0.10237137E-01  -0.21214407E+03   0.11147379E+01   0.10617326E-02   0.66664262E+00   0.43165994E+00
  41.0000   0.10351371E-01  -0.21102423E+03   0.11173104E+01   0.10585774E-02   0.66664108E+00   0.43187527E+00
  42.0000   0.10494339E-01  -0.20990144E+03   0.11237395E+01   0.10634677E-02   0.66663937E+00   0.43224163E+00
  43.0000   0.10622372E-01  -0.20877933E+03   0.11322375E+01   0.10610840E-02   0.66663752E+00   0.43278268E+00
  44.0000   0.10745001E-01  -0.20764954E+03   0.11392010E+01   0.10630645E-02   0.66663563E+00   0.43257054E+00
  45.0000   0.10877710E-01  -0.20651779E+03   0.11408375E+01   0.10657501E-02   0.66663380E+00   0.43223325E+00
  46.0000   0.10998952E-01  -0.20537506E+03   0.11428654E+01   0.10638389E-02   0.66663188E+00   0.43253608E+00
  47.0000   0.11138985E-01  -0.20422562E+03   0.11515372E+01   0.10710792E-02   0.66662966E+00   0.43224265E+00
  48.0000   0.12048727E-01  -0.20166075E+03   0.11733001E+01   0.11831232E-02   0.66662634E+00   0.44452445E+00
  49.0000   0.11381261E-01  -0.20191236E+03   0.11581814E+01   0.10694663E-02   0.66662528E+00   0.43235040E+00
  50.0000   0.11515339E-01  -0.20075821E+03   0.11632039E+01   0.10714640E-02   0.66662289E+00   0.43324604E+00
  51.0000   0.11623743E-01  -0.19958785E+03   0.11693230E+01   0.10736615E-02   0.66662035E+00   0.43242084E+00
  52.0000   0.11755270E-01  -0.19841207E+03   0.11807660E+01   0.10707314E-02   0.66661746E+00   0.43421822E+00
  53.0000   0.11892575E-01  -0.19722932E+03   0.11836501E+01   0.10722360E-02   0.66661481E+00   0.43500737E+00
  54.0000   0.12819784E-01  -0.19450050E+03   0.12112024E+01   0.11886755E-02   0.66661003E+00   0.44496673E+00
  55.0000   0.12129531E-01  -0.19484975E+03   0.11959314E+01   0.10778889E-02   0.66660886E+00   0.43411947E+00
  56.0000   0.12254321E-01  -0.19365015E+03   0.12011212E+01   0.10771437E-02   0.66660573E+00   0.43476142E+00
  57.0000   0.13175405E-01  -0.19083360E+03   0.12373387E+01   0.11931750E-02   0.66659970E+00   0.44383053E+00
  58.0000   0.12481971E-01  -0.19123198E+03   0.12201424E+01   0.10810260E-02   0.66659858E+00   0.43478798E+00
  59.0000   0.12613957E-01  -0.19000448E+03   0.12245968E+01   0.10819551E-02   0.66659504E+00   0.43581073E+00
  60.0000   0.12727113E-01  -0.18878006E+03   0.12358447E+01   0.10868990E-02   0.66659093E+00   0.43461334E+00
  61.0000   0.12849883E-01  -0.18754923E+03   0.12426959E+01   0.10883468E-02   0.66658693E+00   0.43562924E+00
  62.0000   0.12960741E-01  -0.18629783E+03   0.12488067E+01   0.10898290E-02   0.66658277E+00   0.43524885E+00
  63.0000   0.13086451E-01  -0.18503950E+03   0.12553334E+01   0.10912706E-02   0.66657839E+00   0.43518323E+00
  64.0000   0.13205128E-01  -0.18377283E+03   0.12677856E+01   0.10960762E-02   0.66657340E+00   0.43527994E+00
  65.0000   0.13329401E-01  -0.18250453E+03   0.12769895E+01   0.10935843E-02   0.66656841E+00   0.43640100E+00
  66.0000   0.14250404E-01  -0.17935923E+03   0.13207031E+01   0.12027113E-02   0.66655820E+00   0.44467992E+00
  67.0000   0.13565732E-01  -0.17992489E+03   0.12962754E+01   0.11000393E-02   0.66655764E+00   0.43647010E+00
  68.0000   0.13673549E-01  -0.17863363E+03   0.13116579E+01   0.10984155E-02   0.66655138E+00   0.43738354E+00
  69.0000   0.14597668E-01  -0.17536325E+03   0.13496636E+01   0.12079210E-02   0.66653993E+00   0.44400681E+00
  70.0000   0.13909505E-01  -0.17599537E+03   0.13281739E+01   0.11056397E-02   0.66653923E+00   0.43673299E+00
  71.0000   0.14804114E-01  -0.17263914E+03   0.13710434E+01   0.12084195E-02   0.66652602E+00   0.44440977E+00
  72.0000   0.14158418E-01  -0.17331223E+03   0.13556636E+01   0.11126431E-02   0.66652477E+00   0.43662111E+00
  73.0000   0.14264598E-01  -0.17195465E+03   0.13669323E+01   0.11096794E-02   0.66651726E+00   0.43829039E+00
  74.0000   0.14397326E-01  -0.17057796E+03   0.13746703E+01   0.11167832E-02   0.66650977E+00   0.43817516E+00
  75.0000   0.14511569E-01  -0.16919915E+03   0.13939350E+01   0.11194726E-02   0.66650057E+00   0.43805414E+00
  76.0000   0.14635257E-01  -0.16780138E+03   0.14057159E+01   0.11242184E-02   0.66649180E+00   0.43760633E+00
  77.0000   0.15500091E-01  -0.16417185E+03   0.14553775E+01   0.12225856E-02   0.66647253E+00   0.44392161E+00
  78.0000   0.14883485E-01  -0.16495531E+03   0.14353482E+01   0.11301876E-02   0.66647205E+00   0.43889249E+00
  79.0000   0.15737568E-01  -0.16122508E+03   0.14855188E+01   0.12261948E-02   0.66645038E+00   0.44435643E+00
  80.0000   0.15122868E-01  -0.16206025E+03   0.14679660E+01   0.11373375E-02   0.66644978E+00   0.43928999E+00
  81.0000   0.15232683E-01  -0.16057996E+03   0.14857656E+01   0.11399426E-02   0.66643747E+00   0.43857832E+00
  82.0000   0.15372485E-01  -0.15909342E+03   0.14983436E+01   0.11456922E-02   0.66642531E+00   0.43905860E+00
  83.0000   0.15489316E-01  -0.15758421E+03   0.15179223E+01   0.11493808E-02   0.66641137E+00   0.43913569E+00
  84.0000   0.15606598E-01  -0.15606290E+03   0.15374168E+01   0.11505578E-02   0.66639663E+00   0.43961396E+00
  85.0000   0.15748554E-01  -0.15451054E+03   0.15549165E+01   0.11557594E-02   0.66638138E+00   0.44039139E+00
  86.0000   0.15870082E-01  -0.15293217E+03   0.15733787E+01   0.11593426E-02   0.66636508E+00   0.44020265E+00
  87.0000   0.16000597E-01  -0.15135840E+03   0.15962937E+01   0.11656562E-02   0.66634698E+00   0.44031072E+00
  88.0000   0.16131646E-01  -0.14974692E+03   0.16207272E+01   0.11719433E-02   0.66632743E+00   0.44025497E+00
  89.0000   0.16279507E-01  -0.14810703E+03   0.16416335E+01   0.11768877E-02   0.66630735E+00   0.44069357E+00
  90.0000   0.16390954E-01  -0.14646738E+03   0.16647745E+01   0.11782253E-02   0.66628570E+00   0.44131833E+00
  91.0000   0.16520759E-01  -0.14477926E+03   0.16951604E+01   0.11869229E-02   0.66626081E+00   0.44041998E+00
  92.0000   0.16670899E-01  -0.14306696E+03   0.17154875E+01   0.11940579E-02   0.66623679E+00   0.44109138E+00
  93.0000   0.16809580E-01  -0.14133549E+03   0.17477132E+01   0.11975279E-02   0.66620814E+00   0.44173096E+00
  94.0000   0.16943075E-01  -0.13958708E+03   0.17842637E+01   0.12073512E-02   0.66617644E+00   0.44122785E+00
  95.0000   0.17075343E-01  -0.13778534E+03   0.18111791E+01   0.12096763E-02   0.66614508E+00   0.44174912E+00
  96.0000   0.17228263E-01  -0.13597160E+03   0.18355483E+01   0.12195177E-02   0.66611239E+00   0.44170682E+00
  97.0000   0.17371330E-01  -0.13412206E+03   0.18817194E+01   0.12271509E-02   0.66607057E+00   0.44230737E+00
  98.0000   0.17534085E-01  -0.13220485E+03   0.19254577E+01   0.12352609E-02   0.66602598E+00   0.44221639E+00
  99.0000   0.17692072E-01  -0.13023236E+03   0.19993781E+01   0.12453790E-02   0.66596733E+00   0.44220499E+00
 100.0000   0.17839668E-01  -0.12815490E+03   0.21145271E+01   0.12521497E-02   0.66588813E+00   0.44248442E+00
 101.0000   0.18030642E-01  -0.12604193E+03   0.22102203E+01   0.12654039E-02   0.66580899E+00   0.44260306E+00
 102.0000   0.18253135E-01  -0.12369553E+03   0.24408296E+01   0.12872609E-02   0.66566454E+00   0.44190575E+00
 103.0000   0.18470127E-01  -0.12120821E+03   0.26084672E+01   0.13033676E-02   0.66552878E+00   0.44262192E+00
 104.0000   0.18711689E-01  -0.11855431E+03   0.27141224E+01   0.13233515E-02   0.66540230E+00   0.44304389E+00
 105.0000   0.18975508E-01  -0.11578566E+03   0.26253483E+01   0.13463621E-02   0.66535606E+00   0.44315254E+00
 106.0000   0.19172437E-01  -0.11330694E+03   0.24464461E+01   0.13603796E-02   0.66536592E+00   0.44340563E+00
 107.0000   0.19355190E-01  -0.11095346E+03   0.22893430E+01   0.13736267E-02   0.66537329E+00   0.44378824E+00
 108.0000   0.19517746E-01  -0.10871405E+03   0.21466754E+01   0.13753689E-02   0.66538060E+00   0.44526822E+00
 109.0000   0.19636141E-01  -0.10663112E+03   0.20581937E+01   0.13838879E-02   0.66536196E+00   0.44449025E+00
 110.0000   0.19750787E-01  -0.10460214E+03   0.20021514E+01   0.13894395E-02   0.66532426E+00   0.44419041E+00
 111.0000   0.19859244E-01  -0.10260937E+03   0.19473645E+01   0.13921640E-02   0.66528541E+00   0.44415843E+00
 112.0000   0.19958475E-01  -0.10069621E+03   0.19143549E+01   0.13960246E-02   0.66523148E+00   0.44324637E+00
 113.0000   0.20065214E-01  -0.98788893E+02   0.18814473E+01   0.13952360E-02   0.66517536E+00   0.44414564E+00
 114.0000   0.20140191E-01  -0.96936244E+02   0.18421463E+01   0.13949955E-02   0.66512301E+00   0.44421705E+00
 115.0000   0.20233089E-01  -0.95090782E+02   0.18009955E+01   0.13877923E-02   0.66507048E+00   0.44532491E+00
 116.0000   0.20298153E-01  -0.93328218E+02   0.17697939E+01   0.13910060E-02   0.66500987E+00   0.44466172E+00
 117.0000   0.20368108E-01  -0.91578094E+02   0.17314353E+01   0.13877533E-02   0.66495368E+00   0.44433847E+00
 118.0000   0.20408737E-01  -0.89872331E+02   0.16842100E+01   0.13784321E-02   0.66490683E+00   0.44474580E+00
 119.0000   0.20505319E-01  -0.88214924E+02   0.16360531E+01   0.13829032E-02   0.66486220E+00   0.44442971E+00
 120.0000   0.20585232E-01  -0.86588446E+02   0.15928133E+01   0.13834433E-02   0.66481219E+00   0.44434964E+00
 121.0000   0.20635373E-01  -0.85009505E+02   0.15384951E+01   0.13765495E-02   0.66477653E+00   0.44454222E+00
 122.0000   0.20689899E-01  -0.83506105E+02   0.15008749E+01   0.13723300E-02   0.66472393E+00   0.44464071E+00
 123.0000   0.20746435E-01  -0.82024933E+02   0.14421392E+01   0.13712310E-02   0.66469972E+00   0.44384946E+00
 124.0000   0.20804548E-01  -0.80606389E+02   0.13878089E+01   0.13692264E-02   0.66467420E+00   0.44397095E+00
 125.0000   0.20865065E-01  -0.79245952E+02   0.13355279E+01   0.13647962E-02   0.66465022E+00   0.44393881E+00
 126.0000   0.20896128E-01  -0.77934326E+02   0.12829139E+01   0.13586371E-02   0.66463112E+00   0.44396452E+00
 127.0000   0.20950075E-01  -0.76694835E+02   0.12254474E+01   0.13535508E-02   0.66462646E+00   0.44427471E+00
 128.0000   0.20980283E-01  -0.75494647E+02   0.11728023E+01   0.13473411E-02   0.66461897E+00   0.44403549E+00
 129.0000   0.21026283E-01  -0.74349423E+02   0.11159578E+01   0.13403569E-02   0.66462610E+00   0.44432963E+00
 130.0000   0.21067417E-01  -0.73242218E+02   0.10680171E+01   0.13350127E-02   0.66462229E+00   0.44456327E+00
 131.0000   0.21104264E-01  -0.72205064E+02   0.10170387E+01   0.13288799E-02   0.66463207E+00   0.44469629E+00
 132.0000   0.21124621E-01  -0.71211835E+02   0.96968095E+00   0.13215886E-02   0.66464192E+00   0.44441982E+00
 133.0000   0.21174795E-01  -0.70260785E+02   0.92340068E+00   0.13188070E-02   0.66465538E+00   0.44470052E+00
 134.0000   0.21205922E-01  -0.69353348E+02   0.87626235E+00   0.13142025E-02   0.66467777E+00   0.44407991E+00
 135.0000   0.21206052E-01  -0.68507552E+02   0.83819319E+00   0.13022494E-02   0.66468751E+00   0.44485103E+00
 136.0000   0.21251996E-01  -0.67696217E+02   0.79858921E+00   0.13029261E-02   0.66470667E+00   0.44368752E+00
 137.0000   0.21281787E-01  -0.66912828E+02   0.75941558E+00   0.12958512E-02   0.66473071E+00   0.44381232E+00
 138.0000   0.21287164E-01  -0.66170661E+02   0.72383407E+00   0.12858243E-02   0.66475201E+00   0.44415402E+00
 139.0000   0.21313329E-01  -0.65457769E+02   0.68992546E+00   0.12783693E-02   0.66477440E+00   0.44451590E+00
 140.0000   0.21352684E-01  -0.64788617E+02   0.65987348E+00   0.12736213E-02   0.66479289E+00   0.44457094E+00
 141.0000   0.21373216E-01  -0.64145678E+02   0.63120572E+00   0.12673262E-02   0.66481182E+00   0.44443550E+00
 142.0000   0.21380346E-01  -0.63526452E+02   0.60281857E+00   0.12598795E-02   0.66483484E+00   0.44456651E+00
 143.0000   0.21393157E-01  -0.62932693E+02   0.57762713E+00   0.12482667E-02   0.66485270E+00   0.44503262E+00
 144.0000   0.21413176E-01  -0.62363515E+02   0.55488098E+00   0.12447246E-02   0.66486775E+00   0.44457129E+00
 145.0000   0.21432768E-01  -0.61823370E+02   0.53340794E+00   0.12385798E-02   0.66488260E+00   0.44474595E+00
 146.0000   0.21422536E-01  -0.61299440E+02   0.51182775E+00   0.12279230E-02   0.66490107E+00   0.44511329E+00
 147.0000   0.21440077E-01  -0.60792073E+02   0.49380127E+00   0.12245507E-02   0.66491118E+00   0.44394298E+00
 148.0000   0.21463756E-01  -0.60310479E+02   0.47617980E+00   0.12182295E-02   0.66492313E+00   0.44451341E+00
 149.0000   0.21465484E-01  -0.59841429E+02   0.45861066E+00   0.12126722E-02   0.66493822E+00   0.44411309E+00
 150.0000   0.21482679E-01  -0.59391931E+02   0.44406746E+00   0.12045516E-02   0.66494501E+00   0.44452265E+00
