 #written on 30Jan2025 at 13:59:19 
 #----------------- MONTECARLO -------------------#
 #        M                      P(M)             #
 #------------------------------------------------#
 #T=    11.0000
  -0.20000000E+01           0.00000000E+00
  -0.19900000E+01           0.00000000E+00
  -0.19800000E+01           0.00000000E+00
  -0.19700000E+01           0.00000000E+00
  -0.19600000E+01           0.00000000E+00
  -0.19500000E+01           0.00000000E+00
  -0.19400000E+01           0.00000000E+00
  -0.19300000E+01           0.00000000E+00
  -0.19200000E+01           0.00000000E+00
  -0.19100000E+01           0.00000000E+00
  -0.19000000E+01           0.00000000E+00
  -0.18900000E+01           0.00000000E+00
  -0.18800000E+01           0.00000000E+00
  -0.18700000E+01           0.00000000E+00
  -0.18600000E+01           0.00000000E+00
  -0.18500000E+01           0.00000000E+00
  -0.18400000E+01           0.00000000E+00
  -0.18300000E+01           0.00000000E+00
  -0.18200000E+01           0.00000000E+00
  -0.18100000E+01           0.00000000E+00
  -0.18000000E+01           0.00000000E+00
  -0.17900000E+01           0.00000000E+00
  -0.17800000E+01           0.00000000E+00
  -0.17700000E+01           0.00000000E+00
  -0.17600000E+01           0.00000000E+00
  -0.17500000E+01           0.00000000E+00
  -0.17400000E+01           0.00000000E+00
  -0.17300000E+01           0.00000000E+00
  -0.17200000E+01           0.00000000E+00
  -0.17100000E+01           0.00000000E+00
  -0.17000000E+01           0.00000000E+00
  -0.16900000E+01           0.00000000E+00
  -0.16800000E+01           0.00000000E+00
  -0.16700000E+01           0.00000000E+00
  -0.16600000E+01           0.00000000E+00
  -0.16500000E+01           0.00000000E+00
  -0.16400000E+01           0.00000000E+00
  -0.16300000E+01           0.00000000E+00
  -0.16200000E+01           0.00000000E+00
  -0.16100000E+01           0.00000000E+00
  -0.16000000E+01           0.00000000E+00
  -0.15900000E+01           0.00000000E+00
  -0.15800000E+01           0.00000000E+00
  -0.15700000E+01           0.00000000E+00
  -0.15600000E+01           0.00000000E+00
  -0.15500000E+01           0.00000000E+00
  -0.15400000E+01           0.00000000E+00
  -0.15300000E+01           0.00000000E+00
  -0.15200000E+01           0.00000000E+00
  -0.15100000E+01           0.00000000E+00
  -0.15000000E+01           0.00000000E+00
  -0.14900000E+01           0.00000000E+00
  -0.14800000E+01           0.00000000E+00
  -0.14700000E+01           0.00000000E+00
  -0.14600000E+01           0.00000000E+00
  -0.14500000E+01           0.00000000E+00
  -0.14400000E+01           0.00000000E+00
  -0.14300000E+01           0.00000000E+00
  -0.14200000E+01           0.00000000E+00
  -0.14100000E+01           0.00000000E+00
  -0.14000000E+01           0.00000000E+00
  -0.13900000E+01           0.00000000E+00
  -0.13800000E+01           0.00000000E+00
  -0.13700000E+01           0.00000000E+00
  -0.13600000E+01           0.00000000E+00
  -0.13500000E+01           0.00000000E+00
  -0.13400000E+01           0.00000000E+00
  -0.13300000E+01           0.00000000E+00
  -0.13200000E+01           0.00000000E+00
  -0.13100000E+01           0.00000000E+00
  -0.13000000E+01           0.00000000E+00
  -0.12900000E+01           0.00000000E+00
  -0.12800000E+01           0.00000000E+00
  -0.12700000E+01           0.00000000E+00
  -0.12600000E+01           0.00000000E+00
  -0.12500000E+01           0.00000000E+00
  -0.12400000E+01           0.00000000E+00
  -0.12300000E+01           0.00000000E+00
  -0.12200000E+01           0.00000000E+00
  -0.12100000E+01           0.00000000E+00
  -0.12000000E+01           0.00000000E+00
  -0.11900000E+01           0.00000000E+00
  -0.11800000E+01           0.00000000E+00
  -0.11700000E+01           0.00000000E+00
  -0.11600000E+01           0.00000000E+00
  -0.11500000E+01           0.00000000E+00
  -0.11400000E+01           0.00000000E+00
  -0.11300000E+01           0.00000000E+00
  -0.11200000E+01           0.00000000E+00
  -0.11100000E+01           0.00000000E+00
  -0.11000000E+01           0.00000000E+00
  -0.10900000E+01           0.00000000E+00
  -0.10800000E+01           0.00000000E+00
  -0.10700000E+01           0.00000000E+00
  -0.10600000E+01           0.00000000E+00
  -0.10500000E+01           0.00000000E+00
  -0.10400000E+01           0.00000000E+00
  -0.10300000E+01           0.00000000E+00
  -0.10200000E+01           0.00000000E+00
  -0.10100000E+01           0.00000000E+00
  -0.10000000E+01           0.00000000E+00
  -0.99000000E+00           0.00000000E+00
  -0.98000000E+00           0.00000000E+00
  -0.97000000E+00           0.00000000E+00
  -0.96000000E+00           0.00000000E+00
  -0.95000000E+00           0.00000000E+00
  -0.94000000E+00           0.00000000E+00
  -0.93000000E+00           0.00000000E+00
  -0.92000000E+00           0.00000000E+00
  -0.91000000E+00           0.00000000E+00
  -0.90000000E+00           0.00000000E+00
  -0.89000000E+00           0.00000000E+00
  -0.88000000E+00           0.00000000E+00
  -0.87000000E+00           0.00000000E+00
  -0.86000000E+00           0.00000000E+00
  -0.85000000E+00           0.00000000E+00
  -0.84000000E+00           0.00000000E+00
  -0.83000000E+00           0.00000000E+00
  -0.82000000E+00           0.00000000E+00
  -0.81000000E+00           0.00000000E+00
  -0.80000000E+00           0.00000000E+00
  -0.79000000E+00           0.00000000E+00
  -0.78000000E+00           0.00000000E+00
  -0.77000000E+00           0.00000000E+00
  -0.76000000E+00           0.00000000E+00
  -0.75000000E+00           0.00000000E+00
  -0.74000000E+00           0.00000000E+00
  -0.73000000E+00           0.00000000E+00
  -0.72000000E+00           0.00000000E+00
  -0.71000000E+00           0.00000000E+00
  -0.70000000E+00           0.00000000E+00
  -0.69000000E+00           0.00000000E+00
  -0.68000000E+00           0.00000000E+00
  -0.67000000E+00           0.00000000E+00
  -0.66000000E+00           0.00000000E+00
  -0.65000000E+00           0.00000000E+00
  -0.64000000E+00           0.00000000E+00
  -0.63000000E+00           0.00000000E+00
  -0.62000000E+00           0.00000000E+00
  -0.61000000E+00           0.00000000E+00
  -0.60000000E+00           0.00000000E+00
  -0.59000000E+00           0.00000000E+00
  -0.58000000E+00           0.00000000E+00
  -0.57000000E+00           0.00000000E+00
  -0.56000000E+00           0.00000000E+00
  -0.55000000E+00           0.00000000E+00
  -0.54000000E+00           0.00000000E+00
  -0.53000000E+00           0.00000000E+00
  -0.52000000E+00           0.00000000E+00
  -0.51000000E+00           0.00000000E+00
  -0.50000000E+00           0.00000000E+00
  -0.49000000E+00           0.00000000E+00
  -0.48000000E+00           0.00000000E+00
  -0.47000000E+00           0.00000000E+00
  -0.46000000E+00           0.00000000E+00
  -0.45000000E+00           0.00000000E+00
  -0.44000000E+00           0.00000000E+00
  -0.43000000E+00           0.00000000E+00
  -0.42000000E+00           0.00000000E+00
  -0.41000000E+00           0.00000000E+00
  -0.40000000E+00           0.00000000E+00
  -0.39000000E+00           0.00000000E+00
  -0.38000000E+00           0.00000000E+00
  -0.37000000E+00           0.00000000E+00
  -0.36000000E+00           0.00000000E+00
  -0.35000000E+00           0.00000000E+00
  -0.34000000E+00           0.00000000E+00
  -0.33000000E+00           0.00000000E+00
  -0.32000000E+00           0.00000000E+00
  -0.31000000E+00           0.00000000E+00
  -0.30000000E+00           0.00000000E+00
  -0.29000000E+00           0.00000000E+00
  -0.28000000E+00           0.00000000E+00
  -0.27000000E+00           0.00000000E+00
  -0.26000000E+00           0.00000000E+00
  -0.25000000E+00           0.00000000E+00
  -0.24000000E+00           0.00000000E+00
  -0.23000000E+00           0.00000000E+00
  -0.22000000E+00           0.00000000E+00
  -0.21000000E+00           0.00000000E+00
  -0.20000000E+00           0.00000000E+00
  -0.19000000E+00           0.00000000E+00
  -0.18000000E+00           0.00000000E+00
  -0.17000000E+00           0.00000000E+00
  -0.16000000E+00           0.00000000E+00
  -0.15000000E+00           0.00000000E+00
  -0.14000000E+00           0.00000000E+00
  -0.13000000E+00           0.00000000E+00
  -0.12000000E+00           0.00000000E+00
  -0.11000000E+00           0.00000000E+00
  -0.10000000E+00           0.00000000E+00
  -0.90000000E-01           0.00000000E+00
  -0.80000000E-01           0.00000000E+00
  -0.70000000E-01           0.00000000E+00
  -0.60000000E-01           0.00000000E+00
  -0.50000000E-01           0.00000000E+00
  -0.40000000E-01           0.00000000E+00
  -0.30000000E-01           0.00000000E+00
  -0.20000000E-01           0.00000000E+00
  -0.10000000E-01           0.00000000E+00
   0.00000000E+00           0.25117659E-01
   0.10000000E-01           0.20062421E+00
   0.20000000E-01           0.40106121E+00
   0.30000000E-01           0.59749147E+00
   0.40000000E-01           0.79384851E+00
   0.50000000E-01           0.98380933E+00
   0.60000000E-01           0.11677094E+01
   0.70000000E-01           0.13449803E+01
   0.80000000E-01           0.15142842E+01
   0.90000000E-01           0.16738982E+01
   0.10000000E+00           0.18226201E+01
   0.11000000E+00           0.19637867E+01
   0.12000000E+00           0.20950590E+01
   0.13000000E+00           0.22103522E+01
   0.14000000E+00           0.23201473E+01
   0.15000000E+00           0.24123077E+01
   0.16000000E+00           0.24942257E+01
   0.17000000E+00           0.25670232E+01
   0.18000000E+00           0.26249630E+01
   0.19000000E+00           0.26655494E+01
   0.20000000E+00           0.26989211E+01
   0.21000000E+00           0.27192959E+01
   0.22000000E+00           0.27323908E+01
   0.23000000E+00           0.27288685E+01
   0.24000000E+00           0.27156233E+01
   0.25000000E+00           0.26917005E+01
   0.26000000E+00           0.26546842E+01
   0.27000000E+00           0.26112369E+01
   0.28000000E+00           0.25670585E+01
   0.29000000E+00           0.25102389E+01
   0.30000000E+00           0.24465793E+01
   0.31000000E+00           0.23821766E+01
   0.32000000E+00           0.23036501E+01
   0.33000000E+00           0.22242770E+01
   0.34000000E+00           0.21424448E+01
   0.35000000E+00           0.20543405E+01
   0.36000000E+00           0.19667216E+01
   0.37000000E+00           0.18806519E+01
   0.38000000E+00           0.17898883E+01
   0.39000000E+00           0.16972068E+01
   0.40000000E+00           0.16078758E+01
   0.41000000E+00           0.15200839E+01
   0.42000000E+00           0.14298243E+01
   0.43000000E+00           0.13450318E+01
   0.44000000E+00           0.12606149E+01
   0.45000000E+00           0.11784843E+01
   0.46000000E+00           0.10961185E+01
   0.47000000E+00           0.10188647E+01
   0.48000000E+00           0.94552421E+00
   0.49000000E+00           0.87507202E+00
   0.50000000E+00           0.80835089E+00
   0.51000000E+00           0.74315149E+00
   0.52000000E+00           0.68291468E+00
   0.53000000E+00           0.62571726E+00
   0.54000000E+00           0.57142351E+00
   0.55000000E+00           0.52144028E+00
   0.56000000E+00           0.47398700E+00
   0.57000000E+00           0.43039167E+00
   0.58000000E+00           0.38839802E+00
   0.59000000E+00           0.35171002E+00
   0.60000000E+00           0.31624633E+00
   0.61000000E+00           0.28478343E+00
   0.62000000E+00           0.25472321E+00
   0.63000000E+00           0.22730228E+00
   0.64000000E+00           0.20343204E+00
   0.65000000E+00           0.18060258E+00
   0.66000000E+00           0.15983859E+00
   0.67000000E+00           0.14166339E+00
   0.68000000E+00           0.12554573E+00
   0.69000000E+00           0.11047798E+00
   0.70000000E+00           0.97342460E-01
   0.71000000E+00           0.85164087E-01
   0.72000000E+00           0.74862202E-01
   0.73000000E+00           0.65292659E-01
   0.74000000E+00           0.56986111E-01
   0.75000000E+00           0.49437202E-01
   0.76000000E+00           0.42766964E-01
   0.77000000E+00           0.37317758E-01
   0.78000000E+00           0.31941468E-01
   0.79000000E+00           0.27676389E-01
   0.80000000E+00           0.23688095E-01
   0.81000000E+00           0.20245536E-01
   0.82000000E+00           0.17418353E-01
   0.83000000E+00           0.14763690E-01
   0.84000000E+00           0.12688393E-01
   0.85000000E+00           0.10773016E-01
   0.86000000E+00           0.91527778E-02
   0.87000000E+00           0.76233135E-02
   0.88000000E+00           0.65096230E-02
   0.89000000E+00           0.54809524E-02
   0.90000000E+00           0.45189484E-02
   0.91000000E+00           0.38316468E-02
   0.92000000E+00           0.31964286E-02
   0.93000000E+00           0.27168651E-02
   0.94000000E+00           0.21743056E-02
   0.95000000E+00           0.18232143E-02
   0.96000000E+00           0.15172619E-02
   0.97000000E+00           0.12191468E-02
   0.98000000E+00           0.98750000E-03
   0.99000000E+00           0.86845238E-03
   0.10000000E+01           0.71765873E-03
   0.10100000E+01           0.56259921E-03
   0.10200000E+01           0.46240079E-03
   0.10300000E+01           0.37351190E-03
   0.10400000E+01           0.30406746E-03
   0.10500000E+01           0.22857143E-03
   0.10600000E+01           0.19672619E-03
   0.10700000E+01           0.15694444E-03
   0.10800000E+01           0.13095238E-03
   0.10900000E+01           0.90575397E-04
   0.11000000E+01           0.78075397E-04
   0.11100000E+01           0.57242063E-04
   0.11200000E+01           0.57142857E-04
   0.11300000E+01           0.37301587E-04
   0.11400000E+01           0.36408730E-04
   0.11500000E+01           0.21825397E-04
   0.11600000E+01           0.21230159E-04
   0.11700000E+01           0.16170635E-04
   0.11800000E+01           0.13095238E-04
   0.11900000E+01           0.97222222E-05
   0.12000000E+01           0.65476190E-05
   0.12100000E+01           0.51587302E-05
   0.12200000E+01           0.44642857E-05
   0.12300000E+01           0.46626984E-05
   0.12400000E+01           0.31746032E-05
   0.12500000E+01           0.22817460E-05
   0.12600000E+01           0.17857143E-05
   0.12700000E+01           0.13888889E-05
   0.12800000E+01           0.89285714E-06
   0.12900000E+01           0.79365079E-06
   0.13000000E+01           0.39682540E-06
   0.13100000E+01           0.39682540E-06
   0.13200000E+01           0.19841270E-06
   0.13300000E+01           0.89285714E-06
   0.13400000E+01           0.99206349E-07
   0.13500000E+01           0.00000000E+00
   0.13600000E+01           0.19841270E-06
   0.13700000E+01           0.19841270E-06
   0.13800000E+01           0.00000000E+00
   0.13900000E+01           0.00000000E+00
   0.14000000E+01           0.99206349E-07
   0.14100000E+01           0.00000000E+00
   0.14200000E+01           0.00000000E+00
   0.14300000E+01           0.00000000E+00
   0.14400000E+01           0.00000000E+00
   0.14500000E+01           0.00000000E+00
   0.14600000E+01           0.00000000E+00
   0.14700000E+01           0.00000000E+00
   0.14800000E+01           0.00000000E+00
   0.14900000E+01           0.00000000E+00
   0.15000000E+01           0.00000000E+00
   0.15100000E+01           0.00000000E+00
   0.15200000E+01           0.00000000E+00
   0.15300000E+01           0.00000000E+00
   0.15400000E+01           0.00000000E+00
   0.15500000E+01           0.00000000E+00
   0.15600000E+01           0.00000000E+00
   0.15700000E+01           0.00000000E+00
   0.15800000E+01           0.00000000E+00
   0.15900000E+01           0.00000000E+00
   0.16000000E+01           0.00000000E+00
   0.16100000E+01           0.00000000E+00
   0.16200000E+01           0.00000000E+00
   0.16300000E+01           0.00000000E+00
   0.16400000E+01           0.00000000E+00
   0.16500000E+01           0.00000000E+00
   0.16600000E+01           0.00000000E+00
   0.16700000E+01           0.00000000E+00
   0.16800000E+01           0.00000000E+00
   0.16900000E+01           0.00000000E+00
   0.17000000E+01           0.00000000E+00
   0.17100000E+01           0.00000000E+00
   0.17200000E+01           0.00000000E+00
   0.17300000E+01           0.00000000E+00
   0.17400000E+01           0.00000000E+00
   0.17500000E+01           0.00000000E+00
   0.17600000E+01           0.00000000E+00
   0.17700000E+01           0.00000000E+00
   0.17800000E+01           0.00000000E+00
   0.17900000E+01           0.00000000E+00
   0.18000000E+01           0.00000000E+00
   0.18100000E+01           0.00000000E+00
   0.18200000E+01           0.00000000E+00
   0.18300000E+01           0.00000000E+00
   0.18400000E+01           0.00000000E+00
   0.18500000E+01           0.00000000E+00
   0.18600000E+01           0.00000000E+00
   0.18700000E+01           0.00000000E+00
   0.18800000E+01           0.00000000E+00
   0.18900000E+01           0.00000000E+00
   0.19000000E+01           0.00000000E+00
   0.19100000E+01           0.00000000E+00
   0.19200000E+01           0.00000000E+00
   0.19300000E+01           0.00000000E+00
   0.19400000E+01           0.00000000E+00
   0.19500000E+01           0.00000000E+00
   0.19600000E+01           0.00000000E+00
   0.19700000E+01           0.00000000E+00
   0.19800000E+01           0.00000000E+00
   0.19900000E+01           0.00000000E+00
   0.20000000E+01           0.00000000E+00
 #T=    12.0000
  -0.20000000E+01           0.00000000E+00
  -0.19900000E+01           0.00000000E+00
  -0.19800000E+01           0.00000000E+00
  -0.19700000E+01           0.00000000E+00
  -0.19600000E+01           0.00000000E+00
  -0.19500000E+01           0.00000000E+00
  -0.19400000E+01           0.00000000E+00
  -0.19300000E+01           0.00000000E+00
  -0.19200000E+01           0.00000000E+00
  -0.19100000E+01           0.00000000E+00
  -0.19000000E+01           0.00000000E+00
  -0.18900000E+01           0.00000000E+00
  -0.18800000E+01           0.00000000E+00
  -0.18700000E+01           0.00000000E+00
  -0.18600000E+01           0.00000000E+00
  -0.18500000E+01           0.00000000E+00
  -0.18400000E+01           0.00000000E+00
  -0.18300000E+01           0.00000000E+00
  -0.18200000E+01           0.00000000E+00
  -0.18100000E+01           0.00000000E+00
  -0.18000000E+01           0.00000000E+00
  -0.17900000E+01           0.00000000E+00
  -0.17800000E+01           0.00000000E+00
  -0.17700000E+01           0.00000000E+00
  -0.17600000E+01           0.00000000E+00
  -0.17500000E+01           0.00000000E+00
  -0.17400000E+01           0.00000000E+00
  -0.17300000E+01           0.00000000E+00
  -0.17200000E+01           0.00000000E+00
  -0.17100000E+01           0.00000000E+00
  -0.17000000E+01           0.00000000E+00
  -0.16900000E+01           0.00000000E+00
  -0.16800000E+01           0.00000000E+00
  -0.16700000E+01           0.00000000E+00
  -0.16600000E+01           0.00000000E+00
  -0.16500000E+01           0.00000000E+00
  -0.16400000E+01           0.00000000E+00
  -0.16300000E+01           0.00000000E+00
  -0.16200000E+01           0.00000000E+00
  -0.16100000E+01           0.00000000E+00
  -0.16000000E+01           0.00000000E+00
  -0.15900000E+01           0.00000000E+00
  -0.15800000E+01           0.00000000E+00
  -0.15700000E+01           0.00000000E+00
  -0.15600000E+01           0.00000000E+00
  -0.15500000E+01           0.00000000E+00
  -0.15400000E+01           0.00000000E+00
  -0.15300000E+01           0.00000000E+00
  -0.15200000E+01           0.00000000E+00
  -0.15100000E+01           0.00000000E+00
  -0.15000000E+01           0.00000000E+00
  -0.14900000E+01           0.00000000E+00
  -0.14800000E+01           0.00000000E+00
  -0.14700000E+01           0.00000000E+00
  -0.14600000E+01           0.00000000E+00
  -0.14500000E+01           0.00000000E+00
  -0.14400000E+01           0.00000000E+00
  -0.14300000E+01           0.00000000E+00
  -0.14200000E+01           0.00000000E+00
  -0.14100000E+01           0.00000000E+00
  -0.14000000E+01           0.00000000E+00
  -0.13900000E+01           0.00000000E+00
  -0.13800000E+01           0.00000000E+00
  -0.13700000E+01           0.00000000E+00
  -0.13600000E+01           0.00000000E+00
  -0.13500000E+01           0.00000000E+00
  -0.13400000E+01           0.00000000E+00
  -0.13300000E+01           0.00000000E+00
  -0.13200000E+01           0.00000000E+00
  -0.13100000E+01           0.00000000E+00
  -0.13000000E+01           0.00000000E+00
  -0.12900000E+01           0.00000000E+00
  -0.12800000E+01           0.00000000E+00
  -0.12700000E+01           0.00000000E+00
  -0.12600000E+01           0.00000000E+00
  -0.12500000E+01           0.00000000E+00
  -0.12400000E+01           0.00000000E+00
  -0.12300000E+01           0.00000000E+00
  -0.12200000E+01           0.00000000E+00
  -0.12100000E+01           0.00000000E+00
  -0.12000000E+01           0.00000000E+00
  -0.11900000E+01           0.00000000E+00
  -0.11800000E+01           0.00000000E+00
  -0.11700000E+01           0.00000000E+00
  -0.11600000E+01           0.00000000E+00
  -0.11500000E+01           0.00000000E+00
  -0.11400000E+01           0.00000000E+00
  -0.11300000E+01           0.00000000E+00
  -0.11200000E+01           0.00000000E+00
  -0.11100000E+01           0.00000000E+00
  -0.11000000E+01           0.00000000E+00
  -0.10900000E+01           0.00000000E+00
  -0.10800000E+01           0.00000000E+00
  -0.10700000E+01           0.00000000E+00
  -0.10600000E+01           0.00000000E+00
  -0.10500000E+01           0.00000000E+00
  -0.10400000E+01           0.00000000E+00
  -0.10300000E+01           0.00000000E+00
  -0.10200000E+01           0.00000000E+00
  -0.10100000E+01           0.00000000E+00
  -0.10000000E+01           0.00000000E+00
  -0.99000000E+00           0.00000000E+00
  -0.98000000E+00           0.00000000E+00
  -0.97000000E+00           0.00000000E+00
  -0.96000000E+00           0.00000000E+00
  -0.95000000E+00           0.00000000E+00
  -0.94000000E+00           0.00000000E+00
  -0.93000000E+00           0.00000000E+00
  -0.92000000E+00           0.00000000E+00
  -0.91000000E+00           0.00000000E+00
  -0.90000000E+00           0.00000000E+00
  -0.89000000E+00           0.00000000E+00
  -0.88000000E+00           0.00000000E+00
  -0.87000000E+00           0.00000000E+00
  -0.86000000E+00           0.00000000E+00
  -0.85000000E+00           0.00000000E+00
  -0.84000000E+00           0.00000000E+00
  -0.83000000E+00           0.00000000E+00
  -0.82000000E+00           0.00000000E+00
  -0.81000000E+00           0.00000000E+00
  -0.80000000E+00           0.00000000E+00
  -0.79000000E+00           0.00000000E+00
  -0.78000000E+00           0.00000000E+00
  -0.77000000E+00           0.00000000E+00
  -0.76000000E+00           0.00000000E+00
  -0.75000000E+00           0.00000000E+00
  -0.74000000E+00           0.00000000E+00
  -0.73000000E+00           0.00000000E+00
  -0.72000000E+00           0.00000000E+00
  -0.71000000E+00           0.00000000E+00
  -0.70000000E+00           0.00000000E+00
  -0.69000000E+00           0.00000000E+00
  -0.68000000E+00           0.00000000E+00
  -0.67000000E+00           0.00000000E+00
  -0.66000000E+00           0.00000000E+00
  -0.65000000E+00           0.00000000E+00
  -0.64000000E+00           0.00000000E+00
  -0.63000000E+00           0.00000000E+00
  -0.62000000E+00           0.00000000E+00
  -0.61000000E+00           0.00000000E+00
  -0.60000000E+00           0.00000000E+00
  -0.59000000E+00           0.00000000E+00
  -0.58000000E+00           0.00000000E+00
  -0.57000000E+00           0.00000000E+00
  -0.56000000E+00           0.00000000E+00
  -0.55000000E+00           0.00000000E+00
  -0.54000000E+00           0.00000000E+00
  -0.53000000E+00           0.00000000E+00
  -0.52000000E+00           0.00000000E+00
  -0.51000000E+00           0.00000000E+00
  -0.50000000E+00           0.00000000E+00
  -0.49000000E+00           0.00000000E+00
  -0.48000000E+00           0.00000000E+00
  -0.47000000E+00           0.00000000E+00
  -0.46000000E+00           0.00000000E+00
  -0.45000000E+00           0.00000000E+00
  -0.44000000E+00           0.00000000E+00
  -0.43000000E+00           0.00000000E+00
  -0.42000000E+00           0.00000000E+00
  -0.41000000E+00           0.00000000E+00
  -0.40000000E+00           0.00000000E+00
  -0.39000000E+00           0.00000000E+00
  -0.38000000E+00           0.00000000E+00
  -0.37000000E+00           0.00000000E+00
  -0.36000000E+00           0.00000000E+00
  -0.35000000E+00           0.00000000E+00
  -0.34000000E+00           0.00000000E+00
  -0.33000000E+00           0.00000000E+00
  -0.32000000E+00           0.00000000E+00
  -0.31000000E+00           0.00000000E+00
  -0.30000000E+00           0.00000000E+00
  -0.29000000E+00           0.00000000E+00
  -0.28000000E+00           0.00000000E+00
  -0.27000000E+00           0.00000000E+00
  -0.26000000E+00           0.00000000E+00
  -0.25000000E+00           0.00000000E+00
  -0.24000000E+00           0.00000000E+00
  -0.23000000E+00           0.00000000E+00
  -0.22000000E+00           0.00000000E+00
  -0.21000000E+00           0.00000000E+00
  -0.20000000E+00           0.00000000E+00
  -0.19000000E+00           0.00000000E+00
  -0.18000000E+00           0.00000000E+00
  -0.17000000E+00           0.00000000E+00
  -0.16000000E+00           0.00000000E+00
  -0.15000000E+00           0.00000000E+00
  -0.14000000E+00           0.00000000E+00
  -0.13000000E+00           0.00000000E+00
  -0.12000000E+00           0.00000000E+00
  -0.11000000E+00           0.00000000E+00
  -0.10000000E+00           0.00000000E+00
  -0.90000000E-01           0.00000000E+00
  -0.80000000E-01           0.00000000E+00
  -0.70000000E-01           0.00000000E+00
  -0.60000000E-01           0.00000000E+00
  -0.50000000E-01           0.00000000E+00
  -0.40000000E-01           0.00000000E+00
  -0.30000000E-01           0.00000000E+00
  -0.20000000E-01           0.00000000E+00
  -0.10000000E-01           0.00000000E+00
   0.00000000E+00           0.23232937E-01
   0.10000000E-01           0.18535982E+00
   0.20000000E-01           0.36781498E+00
   0.30000000E-01           0.55120843E+00
   0.40000000E-01           0.72800169E+00
   0.50000000E-01           0.90276994E+00
   0.60000000E-01           0.10753599E+01
   0.70000000E-01           0.12378697E+01
   0.80000000E-01           0.13956263E+01
   0.90000000E-01           0.15444704E+01
   0.10000000E+00           0.16886097E+01
   0.11000000E+00           0.18181137E+01
   0.12000000E+00           0.19441308E+01
   0.13000000E+00           0.20569475E+01
   0.14000000E+00           0.21600966E+01
   0.15000000E+00           0.22541667E+01
   0.16000000E+00           0.23370326E+01
   0.17000000E+00           0.24114094E+01
   0.18000000E+00           0.24718861E+01
   0.19000000E+00           0.25159638E+01
   0.20000000E+00           0.25593185E+01
   0.21000000E+00           0.25868790E+01
   0.22000000E+00           0.26078571E+01
   0.23000000E+00           0.26093860E+01
   0.24000000E+00           0.26084684E+01
   0.25000000E+00           0.25988140E+01
   0.26000000E+00           0.25778806E+01
   0.27000000E+00           0.25502752E+01
   0.28000000E+00           0.25115445E+01
   0.29000000E+00           0.24695070E+01
   0.30000000E+00           0.24199502E+01
   0.31000000E+00           0.23638505E+01
   0.32000000E+00           0.23021926E+01
   0.33000000E+00           0.22333115E+01
   0.34000000E+00           0.21638285E+01
   0.35000000E+00           0.20891121E+01
   0.36000000E+00           0.20131709E+01
   0.37000000E+00           0.19334488E+01
   0.38000000E+00           0.18547845E+01
   0.39000000E+00           0.17696545E+01
   0.40000000E+00           0.16871400E+01
   0.41000000E+00           0.16052110E+01
   0.42000000E+00           0.15260152E+01
   0.43000000E+00           0.14411418E+01
   0.44000000E+00           0.13593855E+01
   0.45000000E+00           0.12804279E+01
   0.46000000E+00           0.12026305E+01
   0.47000000E+00           0.11257021E+01
   0.48000000E+00           0.10538108E+01
   0.49000000E+00           0.98229653E+00
   0.50000000E+00           0.91473819E+00
   0.51000000E+00           0.85031647E+00
   0.52000000E+00           0.78644107E+00
   0.53000000E+00           0.72655764E+00
   0.54000000E+00           0.66946448E+00
   0.55000000E+00           0.61702688E+00
   0.56000000E+00           0.56693631E+00
   0.57000000E+00           0.51901419E+00
   0.58000000E+00           0.47416250E+00
   0.59000000E+00           0.43250020E+00
   0.60000000E+00           0.39360060E+00
   0.61000000E+00           0.35672996E+00
   0.62000000E+00           0.32302669E+00
   0.63000000E+00           0.29241796E+00
   0.64000000E+00           0.26388175E+00
   0.65000000E+00           0.23726587E+00
   0.66000000E+00           0.21282103E+00
   0.67000000E+00           0.19117748E+00
   0.68000000E+00           0.17089256E+00
   0.69000000E+00           0.15218145E+00
   0.70000000E+00           0.13551696E+00
   0.71000000E+00           0.12039583E+00
   0.72000000E+00           0.10664940E+00
   0.73000000E+00           0.94301786E-01
   0.74000000E+00           0.83098115E-01
   0.75000000E+00           0.73014087E-01
   0.76000000E+00           0.64391567E-01
   0.77000000E+00           0.56510020E-01
   0.78000000E+00           0.49281349E-01
   0.79000000E+00           0.42937798E-01
   0.80000000E+00           0.37496627E-01
   0.81000000E+00           0.32693353E-01
   0.82000000E+00           0.28443552E-01
   0.83000000E+00           0.24664683E-01
   0.84000000E+00           0.21114087E-01
   0.85000000E+00           0.18107937E-01
   0.86000000E+00           0.15638591E-01
   0.87000000E+00           0.13517163E-01
   0.88000000E+00           0.11439881E-01
   0.89000000E+00           0.99704365E-02
   0.90000000E+00           0.83240079E-02
   0.91000000E+00           0.70662698E-02
   0.92000000E+00           0.60795635E-02
   0.93000000E+00           0.51137897E-02
   0.94000000E+00           0.42906746E-02
   0.95000000E+00           0.36280754E-02
   0.96000000E+00           0.30781746E-02
   0.97000000E+00           0.25524802E-02
   0.98000000E+00           0.21630952E-02
   0.99000000E+00           0.18085317E-02
   0.10000000E+01           0.14734127E-02
   0.10100000E+01           0.12467262E-02
   0.10200000E+01           0.10573413E-02
   0.10300000E+01           0.86557540E-03
   0.10400000E+01           0.72242063E-03
   0.10500000E+01           0.58769841E-03
   0.10600000E+01           0.49494048E-03
   0.10700000E+01           0.38561508E-03
   0.10800000E+01           0.29980159E-03
   0.10900000E+01           0.25902778E-03
   0.11000000E+01           0.21865079E-03
   0.11100000E+01           0.17777778E-03
   0.11200000E+01           0.13432540E-03
   0.11300000E+01           0.10446429E-03
   0.11400000E+01           0.96329365E-04
   0.11500000E+01           0.75198413E-04
   0.11600000E+01           0.63789683E-04
   0.11700000E+01           0.49305556E-04
   0.11800000E+01           0.33531746E-04
   0.11900000E+01           0.34126984E-04
   0.12000000E+01           0.19841270E-04
   0.12100000E+01           0.20436508E-04
   0.12200000E+01           0.15476190E-04
   0.12300000E+01           0.11111111E-04
   0.12400000E+01           0.11904762E-04
   0.12500000E+01           0.63492063E-05
   0.12600000E+01           0.46626984E-05
   0.12700000E+01           0.59523810E-05
   0.12800000E+01           0.32738095E-05
   0.12900000E+01           0.26785714E-05
   0.13000000E+01           0.24801587E-05
   0.13100000E+01           0.18849206E-05
   0.13200000E+01           0.13888889E-05
   0.13300000E+01           0.10912698E-05
   0.13400000E+01           0.69444444E-06
   0.13500000E+01           0.10912698E-05
   0.13600000E+01           0.49603175E-06
   0.13700000E+01           0.99206349E-07
   0.13800000E+01           0.99206349E-07
   0.13900000E+01           0.19841270E-06
   0.14000000E+01           0.49603175E-06
   0.14100000E+01           0.19841270E-06
   0.14200000E+01           0.99206349E-07
   0.14300000E+01           0.00000000E+00
   0.14400000E+01           0.00000000E+00
   0.14500000E+01           0.00000000E+00
   0.14600000E+01           0.00000000E+00
   0.14700000E+01           0.99206349E-07
   0.14800000E+01           0.00000000E+00
   0.14900000E+01           0.00000000E+00
   0.15000000E+01           0.00000000E+00
   0.15100000E+01           0.00000000E+00
   0.15200000E+01           0.00000000E+00
   0.15300000E+01           0.00000000E+00
   0.15400000E+01           0.00000000E+00
   0.15500000E+01           0.00000000E+00
   0.15600000E+01           0.00000000E+00
   0.15700000E+01           0.00000000E+00
   0.15800000E+01           0.00000000E+00
   0.15900000E+01           0.00000000E+00
   0.16000000E+01           0.00000000E+00
   0.16100000E+01           0.00000000E+00
   0.16200000E+01           0.00000000E+00
   0.16300000E+01           0.00000000E+00
   0.16400000E+01           0.00000000E+00
   0.16500000E+01           0.00000000E+00
   0.16600000E+01           0.00000000E+00
   0.16700000E+01           0.00000000E+00
   0.16800000E+01           0.00000000E+00
   0.16900000E+01           0.00000000E+00
   0.17000000E+01           0.00000000E+00
   0.17100000E+01           0.00000000E+00
   0.17200000E+01           0.00000000E+00
   0.17300000E+01           0.00000000E+00
   0.17400000E+01           0.00000000E+00
   0.17500000E+01           0.00000000E+00
   0.17600000E+01           0.00000000E+00
   0.17700000E+01           0.00000000E+00
   0.17800000E+01           0.00000000E+00
   0.17900000E+01           0.00000000E+00
   0.18000000E+01           0.00000000E+00
   0.18100000E+01           0.00000000E+00
   0.18200000E+01           0.00000000E+00
   0.18300000E+01           0.00000000E+00
   0.18400000E+01           0.00000000E+00
   0.18500000E+01           0.00000000E+00
   0.18600000E+01           0.00000000E+00
   0.18700000E+01           0.00000000E+00
   0.18800000E+01           0.00000000E+00
   0.18900000E+01           0.00000000E+00
   0.19000000E+01           0.00000000E+00
   0.19100000E+01           0.00000000E+00
   0.19200000E+01           0.00000000E+00
   0.19300000E+01           0.00000000E+00
   0.19400000E+01           0.00000000E+00
   0.19500000E+01           0.00000000E+00
   0.19600000E+01           0.00000000E+00
   0.19700000E+01           0.00000000E+00
   0.19800000E+01           0.00000000E+00
   0.19900000E+01           0.00000000E+00
   0.20000000E+01           0.00000000E+00
 #T=    13.0000
  -0.20000000E+01           0.00000000E+00
  -0.19900000E+01           0.00000000E+00
  -0.19800000E+01           0.00000000E+00
  -0.19700000E+01           0.00000000E+00
  -0.19600000E+01           0.00000000E+00
  -0.19500000E+01           0.00000000E+00
  -0.19400000E+01           0.00000000E+00
  -0.19300000E+01           0.00000000E+00
  -0.19200000E+01           0.00000000E+00
  -0.19100000E+01           0.00000000E+00
  -0.19000000E+01           0.00000000E+00
  -0.18900000E+01           0.00000000E+00
  -0.18800000E+01           0.00000000E+00
  -0.18700000E+01           0.00000000E+00
  -0.18600000E+01           0.00000000E+00
  -0.18500000E+01           0.00000000E+00
  -0.18400000E+01           0.00000000E+00
  -0.18300000E+01           0.00000000E+00
  -0.18200000E+01           0.00000000E+00
  -0.18100000E+01           0.00000000E+00
  -0.18000000E+01           0.00000000E+00
  -0.17900000E+01           0.00000000E+00
  -0.17800000E+01           0.00000000E+00
  -0.17700000E+01           0.00000000E+00
  -0.17600000E+01           0.00000000E+00
  -0.17500000E+01           0.00000000E+00
  -0.17400000E+01           0.00000000E+00
  -0.17300000E+01           0.00000000E+00
  -0.17200000E+01           0.00000000E+00
  -0.17100000E+01           0.00000000E+00
  -0.17000000E+01           0.00000000E+00
  -0.16900000E+01           0.00000000E+00
  -0.16800000E+01           0.00000000E+00
  -0.16700000E+01           0.00000000E+00
  -0.16600000E+01           0.00000000E+00
  -0.16500000E+01           0.00000000E+00
  -0.16400000E+01           0.00000000E+00
  -0.16300000E+01           0.00000000E+00
  -0.16200000E+01           0.00000000E+00
  -0.16100000E+01           0.00000000E+00
  -0.16000000E+01           0.00000000E+00
  -0.15900000E+01           0.00000000E+00
  -0.15800000E+01           0.00000000E+00
  -0.15700000E+01           0.00000000E+00
  -0.15600000E+01           0.00000000E+00
  -0.15500000E+01           0.00000000E+00
  -0.15400000E+01           0.00000000E+00
  -0.15300000E+01           0.00000000E+00
  -0.15200000E+01           0.00000000E+00
  -0.15100000E+01           0.00000000E+00
  -0.15000000E+01           0.00000000E+00
  -0.14900000E+01           0.00000000E+00
  -0.14800000E+01           0.00000000E+00
  -0.14700000E+01           0.00000000E+00
  -0.14600000E+01           0.00000000E+00
  -0.14500000E+01           0.00000000E+00
  -0.14400000E+01           0.00000000E+00
  -0.14300000E+01           0.00000000E+00
  -0.14200000E+01           0.00000000E+00
  -0.14100000E+01           0.00000000E+00
  -0.14000000E+01           0.00000000E+00
  -0.13900000E+01           0.00000000E+00
  -0.13800000E+01           0.00000000E+00
  -0.13700000E+01           0.00000000E+00
  -0.13600000E+01           0.00000000E+00
  -0.13500000E+01           0.00000000E+00
  -0.13400000E+01           0.00000000E+00
  -0.13300000E+01           0.00000000E+00
  -0.13200000E+01           0.00000000E+00
  -0.13100000E+01           0.00000000E+00
  -0.13000000E+01           0.00000000E+00
  -0.12900000E+01           0.00000000E+00
  -0.12800000E+01           0.00000000E+00
  -0.12700000E+01           0.00000000E+00
  -0.12600000E+01           0.00000000E+00
  -0.12500000E+01           0.00000000E+00
  -0.12400000E+01           0.00000000E+00
  -0.12300000E+01           0.00000000E+00
  -0.12200000E+01           0.00000000E+00
  -0.12100000E+01           0.00000000E+00
  -0.12000000E+01           0.00000000E+00
  -0.11900000E+01           0.00000000E+00
  -0.11800000E+01           0.00000000E+00
  -0.11700000E+01           0.00000000E+00
  -0.11600000E+01           0.00000000E+00
  -0.11500000E+01           0.00000000E+00
  -0.11400000E+01           0.00000000E+00
  -0.11300000E+01           0.00000000E+00
  -0.11200000E+01           0.00000000E+00
  -0.11100000E+01           0.00000000E+00
  -0.11000000E+01           0.00000000E+00
  -0.10900000E+01           0.00000000E+00
  -0.10800000E+01           0.00000000E+00
  -0.10700000E+01           0.00000000E+00
  -0.10600000E+01           0.00000000E+00
  -0.10500000E+01           0.00000000E+00
  -0.10400000E+01           0.00000000E+00
  -0.10300000E+01           0.00000000E+00
  -0.10200000E+01           0.00000000E+00
  -0.10100000E+01           0.00000000E+00
  -0.10000000E+01           0.00000000E+00
  -0.99000000E+00           0.00000000E+00
  -0.98000000E+00           0.00000000E+00
  -0.97000000E+00           0.00000000E+00
  -0.96000000E+00           0.00000000E+00
  -0.95000000E+00           0.00000000E+00
  -0.94000000E+00           0.00000000E+00
  -0.93000000E+00           0.00000000E+00
  -0.92000000E+00           0.00000000E+00
  -0.91000000E+00           0.00000000E+00
  -0.90000000E+00           0.00000000E+00
  -0.89000000E+00           0.00000000E+00
  -0.88000000E+00           0.00000000E+00
  -0.87000000E+00           0.00000000E+00
  -0.86000000E+00           0.00000000E+00
  -0.85000000E+00           0.00000000E+00
  -0.84000000E+00           0.00000000E+00
  -0.83000000E+00           0.00000000E+00
  -0.82000000E+00           0.00000000E+00
  -0.81000000E+00           0.00000000E+00
  -0.80000000E+00           0.00000000E+00
  -0.79000000E+00           0.00000000E+00
  -0.78000000E+00           0.00000000E+00
  -0.77000000E+00           0.00000000E+00
  -0.76000000E+00           0.00000000E+00
  -0.75000000E+00           0.00000000E+00
  -0.74000000E+00           0.00000000E+00
  -0.73000000E+00           0.00000000E+00
  -0.72000000E+00           0.00000000E+00
  -0.71000000E+00           0.00000000E+00
  -0.70000000E+00           0.00000000E+00
  -0.69000000E+00           0.00000000E+00
  -0.68000000E+00           0.00000000E+00
  -0.67000000E+00           0.00000000E+00
  -0.66000000E+00           0.00000000E+00
  -0.65000000E+00           0.00000000E+00
  -0.64000000E+00           0.00000000E+00
  -0.63000000E+00           0.00000000E+00
  -0.62000000E+00           0.00000000E+00
  -0.61000000E+00           0.00000000E+00
  -0.60000000E+00           0.00000000E+00
  -0.59000000E+00           0.00000000E+00
  -0.58000000E+00           0.00000000E+00
  -0.57000000E+00           0.00000000E+00
  -0.56000000E+00           0.00000000E+00
  -0.55000000E+00           0.00000000E+00
  -0.54000000E+00           0.00000000E+00
  -0.53000000E+00           0.00000000E+00
  -0.52000000E+00           0.00000000E+00
  -0.51000000E+00           0.00000000E+00
  -0.50000000E+00           0.00000000E+00
  -0.49000000E+00           0.00000000E+00
  -0.48000000E+00           0.00000000E+00
  -0.47000000E+00           0.00000000E+00
  -0.46000000E+00           0.00000000E+00
  -0.45000000E+00           0.00000000E+00
  -0.44000000E+00           0.00000000E+00
  -0.43000000E+00           0.00000000E+00
  -0.42000000E+00           0.00000000E+00
  -0.41000000E+00           0.00000000E+00
  -0.40000000E+00           0.00000000E+00
  -0.39000000E+00           0.00000000E+00
  -0.38000000E+00           0.00000000E+00
  -0.37000000E+00           0.00000000E+00
  -0.36000000E+00           0.00000000E+00
  -0.35000000E+00           0.00000000E+00
  -0.34000000E+00           0.00000000E+00
  -0.33000000E+00           0.00000000E+00
  -0.32000000E+00           0.00000000E+00
  -0.31000000E+00           0.00000000E+00
  -0.30000000E+00           0.00000000E+00
  -0.29000000E+00           0.00000000E+00
  -0.28000000E+00           0.00000000E+00
  -0.27000000E+00           0.00000000E+00
  -0.26000000E+00           0.00000000E+00
  -0.25000000E+00           0.00000000E+00
  -0.24000000E+00           0.00000000E+00
  -0.23000000E+00           0.00000000E+00
  -0.22000000E+00           0.00000000E+00
  -0.21000000E+00           0.00000000E+00
  -0.20000000E+00           0.00000000E+00
  -0.19000000E+00           0.00000000E+00
  -0.18000000E+00           0.00000000E+00
  -0.17000000E+00           0.00000000E+00
  -0.16000000E+00           0.00000000E+00
  -0.15000000E+00           0.00000000E+00
  -0.14000000E+00           0.00000000E+00
  -0.13000000E+00           0.00000000E+00
  -0.12000000E+00           0.00000000E+00
  -0.11000000E+00           0.00000000E+00
  -0.10000000E+00           0.00000000E+00
  -0.90000000E-01           0.00000000E+00
  -0.80000000E-01           0.00000000E+00
  -0.70000000E-01           0.00000000E+00
  -0.60000000E-01           0.00000000E+00
  -0.50000000E-01           0.00000000E+00
  -0.40000000E-01           0.00000000E+00
  -0.30000000E-01           0.00000000E+00
  -0.20000000E-01           0.00000000E+00
  -0.10000000E-01           0.00000000E+00
   0.00000000E+00           0.21308135E-01
   0.10000000E-01           0.17128323E+00
   0.20000000E-01           0.34080258E+00
   0.30000000E-01           0.50928353E+00
   0.40000000E-01           0.67342450E+00
   0.50000000E-01           0.83729851E+00
   0.60000000E-01           0.99443442E+00
   0.70000000E-01           0.11485020E+01
   0.80000000E-01           0.12941183E+01
   0.90000000E-01           0.14335147E+01
   0.10000000E+00           0.15709068E+01
   0.11000000E+00           0.16937115E+01
   0.12000000E+00           0.18142248E+01
   0.13000000E+00           0.19235853E+01
   0.14000000E+00           0.20211617E+01
   0.15000000E+00           0.21173039E+01
   0.16000000E+00           0.21991574E+01
   0.17000000E+00           0.22715902E+01
   0.18000000E+00           0.23343403E+01
   0.19000000E+00           0.23898836E+01
   0.20000000E+00           0.24299538E+01
   0.21000000E+00           0.24638923E+01
   0.22000000E+00           0.24898155E+01
   0.23000000E+00           0.25042822E+01
   0.24000000E+00           0.25132220E+01
   0.25000000E+00           0.25097964E+01
   0.26000000E+00           0.24982446E+01
   0.27000000E+00           0.24802322E+01
   0.28000000E+00           0.24547779E+01
   0.29000000E+00           0.24174543E+01
   0.30000000E+00           0.23812232E+01
   0.31000000E+00           0.23375666E+01
   0.32000000E+00           0.22846611E+01
   0.33000000E+00           0.22292728E+01
   0.34000000E+00           0.21700996E+01
   0.35000000E+00           0.21069874E+01
   0.36000000E+00           0.20391139E+01
   0.37000000E+00           0.19691805E+01
   0.38000000E+00           0.18958479E+01
   0.39000000E+00           0.18217983E+01
   0.40000000E+00           0.17460869E+01
   0.41000000E+00           0.16701550E+01
   0.42000000E+00           0.15923691E+01
   0.43000000E+00           0.15163007E+01
   0.44000000E+00           0.14414678E+01
   0.45000000E+00           0.13648007E+01
   0.46000000E+00           0.12895723E+01
   0.47000000E+00           0.12183139E+01
   0.48000000E+00           0.11461650E+01
   0.49000000E+00           0.10765122E+01
   0.50000000E+00           0.10076036E+01
   0.51000000E+00           0.94442490E+00
   0.52000000E+00           0.87936200E+00
   0.53000000E+00           0.81894296E+00
   0.54000000E+00           0.76051974E+00
   0.55000000E+00           0.70670784E+00
   0.56000000E+00           0.65366845E+00
   0.57000000E+00           0.60290933E+00
   0.58000000E+00           0.55542937E+00
   0.59000000E+00           0.51034067E+00
   0.60000000E+00           0.46905685E+00
   0.61000000E+00           0.42920813E+00
   0.62000000E+00           0.39375873E+00
   0.63000000E+00           0.35838343E+00
   0.64000000E+00           0.32558790E+00
   0.65000000E+00           0.29530258E+00
   0.66000000E+00           0.26833482E+00
   0.67000000E+00           0.24309812E+00
   0.68000000E+00           0.21899276E+00
   0.69000000E+00           0.19713224E+00
   0.70000000E+00           0.17714038E+00
   0.71000000E+00           0.15932242E+00
   0.72000000E+00           0.14314772E+00
   0.73000000E+00           0.12770704E+00
   0.74000000E+00           0.11394802E+00
   0.75000000E+00           0.10101359E+00
   0.76000000E+00           0.90137996E-01
   0.77000000E+00           0.79389484E-01
   0.78000000E+00           0.70625893E-01
   0.79000000E+00           0.62434425E-01
   0.80000000E+00           0.54825595E-01
   0.81000000E+00           0.48399702E-01
   0.82000000E+00           0.42161806E-01
   0.83000000E+00           0.37050198E-01
   0.84000000E+00           0.32166567E-01
   0.85000000E+00           0.28284623E-01
   0.86000000E+00           0.24758829E-01
   0.87000000E+00           0.21318849E-01
   0.88000000E+00           0.18325992E-01
   0.89000000E+00           0.16108929E-01
   0.90000000E+00           0.13857639E-01
   0.91000000E+00           0.12023710E-01
   0.92000000E+00           0.10271230E-01
   0.93000000E+00           0.89071429E-02
   0.94000000E+00           0.75400794E-02
   0.95000000E+00           0.65656746E-02
   0.96000000E+00           0.54433532E-02
   0.97000000E+00           0.47037698E-02
   0.98000000E+00           0.39796627E-02
   0.99000000E+00           0.33759921E-02
   0.10000000E+01           0.28842262E-02
   0.10100000E+01           0.23865079E-02
   0.10200000E+01           0.20331349E-02
   0.10300000E+01           0.16815476E-02
   0.10400000E+01           0.14457341E-02
   0.10500000E+01           0.12277778E-02
   0.10600000E+01           0.97619048E-03
   0.10700000E+01           0.82906746E-03
   0.10800000E+01           0.66250000E-03
   0.10900000E+01           0.56686508E-03
   0.11000000E+01           0.46944444E-03
   0.11100000E+01           0.39890873E-03
   0.11200000E+01           0.31170635E-03
   0.11300000E+01           0.25882937E-03
   0.11400000E+01           0.22638889E-03
   0.11500000E+01           0.17539683E-03
   0.11600000E+01           0.14761905E-03
   0.11700000E+01           0.11517857E-03
   0.11800000E+01           0.99900794E-04
   0.11900000E+01           0.83432540E-04
   0.12000000E+01           0.55753968E-04
   0.12100000E+01           0.54761905E-04
   0.12200000E+01           0.44345238E-04
   0.12300000E+01           0.31547619E-04
   0.12400000E+01           0.23115079E-04
   0.12500000E+01           0.24900794E-04
   0.12600000E+01           0.18948413E-04
   0.12700000E+01           0.10615079E-04
   0.12800000E+01           0.10912698E-04
   0.12900000E+01           0.86309524E-05
   0.13000000E+01           0.56547619E-05
   0.13100000E+01           0.78373016E-05
   0.13200000E+01           0.54563492E-05
   0.13300000E+01           0.38690476E-05
   0.13400000E+01           0.15873016E-05
   0.13500000E+01           0.24801587E-05
   0.13600000E+01           0.21825397E-05
   0.13700000E+01           0.13888889E-05
   0.13800000E+01           0.99206349E-06
   0.13900000E+01           0.49603175E-06
   0.14000000E+01           0.19841270E-06
   0.14100000E+01           0.69444444E-06
   0.14200000E+01           0.29761905E-06
   0.14300000E+01           0.19841270E-06
   0.14400000E+01           0.00000000E+00
   0.14500000E+01           0.00000000E+00
   0.14600000E+01           0.49603175E-06
   0.14700000E+01           0.00000000E+00
   0.14800000E+01           0.00000000E+00
   0.14900000E+01           0.00000000E+00
   0.15000000E+01           0.00000000E+00
   0.15100000E+01           0.00000000E+00
   0.15200000E+01           0.00000000E+00
   0.15300000E+01           0.00000000E+00
   0.15400000E+01           0.99206349E-07
   0.15500000E+01           0.00000000E+00
   0.15600000E+01           0.00000000E+00
   0.15700000E+01           0.00000000E+00
   0.15800000E+01           0.00000000E+00
   0.15900000E+01           0.00000000E+00
   0.16000000E+01           0.00000000E+00
   0.16100000E+01           0.00000000E+00
   0.16200000E+01           0.00000000E+00
   0.16300000E+01           0.00000000E+00
   0.16400000E+01           0.00000000E+00
   0.16500000E+01           0.00000000E+00
   0.16600000E+01           0.00000000E+00
   0.16700000E+01           0.00000000E+00
   0.16800000E+01           0.00000000E+00
   0.16900000E+01           0.00000000E+00
   0.17000000E+01           0.00000000E+00
   0.17100000E+01           0.00000000E+00
   0.17200000E+01           0.00000000E+00
   0.17300000E+01           0.00000000E+00
   0.17400000E+01           0.00000000E+00
   0.17500000E+01           0.00000000E+00
   0.17600000E+01           0.00000000E+00
   0.17700000E+01           0.00000000E+00
   0.17800000E+01           0.00000000E+00
   0.17900000E+01           0.00000000E+00
   0.18000000E+01           0.00000000E+00
   0.18100000E+01           0.00000000E+00
   0.18200000E+01           0.00000000E+00
   0.18300000E+01           0.00000000E+00
   0.18400000E+01           0.00000000E+00
   0.18500000E+01           0.00000000E+00
   0.18600000E+01           0.00000000E+00
   0.18700000E+01           0.00000000E+00
   0.18800000E+01           0.00000000E+00
   0.18900000E+01           0.00000000E+00
   0.19000000E+01           0.00000000E+00
   0.19100000E+01           0.00000000E+00
   0.19200000E+01           0.00000000E+00
   0.19300000E+01           0.00000000E+00
   0.19400000E+01           0.00000000E+00
   0.19500000E+01           0.00000000E+00
   0.19600000E+01           0.00000000E+00
   0.19700000E+01           0.00000000E+00
   0.19800000E+01           0.00000000E+00
   0.19900000E+01           0.00000000E+00
   0.20000000E+01           0.00000000E+00
 #T=    14.0000
  -0.20000000E+01           0.00000000E+00
  -0.19900000E+01           0.00000000E+00
  -0.19800000E+01           0.00000000E+00
  -0.19700000E+01           0.00000000E+00
  -0.19600000E+01           0.00000000E+00
  -0.19500000E+01           0.00000000E+00
  -0.19400000E+01           0.00000000E+00
  -0.19300000E+01           0.00000000E+00
  -0.19200000E+01           0.00000000E+00
  -0.19100000E+01           0.00000000E+00
  -0.19000000E+01           0.00000000E+00
  -0.18900000E+01           0.00000000E+00
  -0.18800000E+01           0.00000000E+00
  -0.18700000E+01           0.00000000E+00
  -0.18600000E+01           0.00000000E+00
  -0.18500000E+01           0.00000000E+00
  -0.18400000E+01           0.00000000E+00
  -0.18300000E+01           0.00000000E+00
  -0.18200000E+01           0.00000000E+00
  -0.18100000E+01           0.00000000E+00
  -0.18000000E+01           0.00000000E+00
  -0.17900000E+01           0.00000000E+00
  -0.17800000E+01           0.00000000E+00
  -0.17700000E+01           0.00000000E+00
  -0.17600000E+01           0.00000000E+00
  -0.17500000E+01           0.00000000E+00
  -0.17400000E+01           0.00000000E+00
  -0.17300000E+01           0.00000000E+00
  -0.17200000E+01           0.00000000E+00
  -0.17100000E+01           0.00000000E+00
  -0.17000000E+01           0.00000000E+00
  -0.16900000E+01           0.00000000E+00
  -0.16800000E+01           0.00000000E+00
  -0.16700000E+01           0.00000000E+00
  -0.16600000E+01           0.00000000E+00
  -0.16500000E+01           0.00000000E+00
  -0.16400000E+01           0.00000000E+00
  -0.16300000E+01           0.00000000E+00
  -0.16200000E+01           0.00000000E+00
  -0.16100000E+01           0.00000000E+00
  -0.16000000E+01           0.00000000E+00
  -0.15900000E+01           0.00000000E+00
  -0.15800000E+01           0.00000000E+00
  -0.15700000E+01           0.00000000E+00
  -0.15600000E+01           0.00000000E+00
  -0.15500000E+01           0.00000000E+00
  -0.15400000E+01           0.00000000E+00
  -0.15300000E+01           0.00000000E+00
  -0.15200000E+01           0.00000000E+00
  -0.15100000E+01           0.00000000E+00
  -0.15000000E+01           0.00000000E+00
  -0.14900000E+01           0.00000000E+00
  -0.14800000E+01           0.00000000E+00
  -0.14700000E+01           0.00000000E+00
  -0.14600000E+01           0.00000000E+00
  -0.14500000E+01           0.00000000E+00
  -0.14400000E+01           0.00000000E+00
  -0.14300000E+01           0.00000000E+00
  -0.14200000E+01           0.00000000E+00
  -0.14100000E+01           0.00000000E+00
  -0.14000000E+01           0.00000000E+00
  -0.13900000E+01           0.00000000E+00
  -0.13800000E+01           0.00000000E+00
  -0.13700000E+01           0.00000000E+00
  -0.13600000E+01           0.00000000E+00
  -0.13500000E+01           0.00000000E+00
  -0.13400000E+01           0.00000000E+00
  -0.13300000E+01           0.00000000E+00
  -0.13200000E+01           0.00000000E+00
  -0.13100000E+01           0.00000000E+00
  -0.13000000E+01           0.00000000E+00
  -0.12900000E+01           0.00000000E+00
  -0.12800000E+01           0.00000000E+00
  -0.12700000E+01           0.00000000E+00
  -0.12600000E+01           0.00000000E+00
  -0.12500000E+01           0.00000000E+00
  -0.12400000E+01           0.00000000E+00
  -0.12300000E+01           0.00000000E+00
  -0.12200000E+01           0.00000000E+00
  -0.12100000E+01           0.00000000E+00
  -0.12000000E+01           0.00000000E+00
  -0.11900000E+01           0.00000000E+00
  -0.11800000E+01           0.00000000E+00
  -0.11700000E+01           0.00000000E+00
  -0.11600000E+01           0.00000000E+00
  -0.11500000E+01           0.00000000E+00
  -0.11400000E+01           0.00000000E+00
  -0.11300000E+01           0.00000000E+00
  -0.11200000E+01           0.00000000E+00
  -0.11100000E+01           0.00000000E+00
  -0.11000000E+01           0.00000000E+00
  -0.10900000E+01           0.00000000E+00
  -0.10800000E+01           0.00000000E+00
  -0.10700000E+01           0.00000000E+00
  -0.10600000E+01           0.00000000E+00
  -0.10500000E+01           0.00000000E+00
  -0.10400000E+01           0.00000000E+00
  -0.10300000E+01           0.00000000E+00
  -0.10200000E+01           0.00000000E+00
  -0.10100000E+01           0.00000000E+00
  -0.10000000E+01           0.00000000E+00
  -0.99000000E+00           0.00000000E+00
  -0.98000000E+00           0.00000000E+00
  -0.97000000E+00           0.00000000E+00
  -0.96000000E+00           0.00000000E+00
  -0.95000000E+00           0.00000000E+00
  -0.94000000E+00           0.00000000E+00
  -0.93000000E+00           0.00000000E+00
  -0.92000000E+00           0.00000000E+00
  -0.91000000E+00           0.00000000E+00
  -0.90000000E+00           0.00000000E+00
  -0.89000000E+00           0.00000000E+00
  -0.88000000E+00           0.00000000E+00
  -0.87000000E+00           0.00000000E+00
  -0.86000000E+00           0.00000000E+00
  -0.85000000E+00           0.00000000E+00
  -0.84000000E+00           0.00000000E+00
  -0.83000000E+00           0.00000000E+00
  -0.82000000E+00           0.00000000E+00
  -0.81000000E+00           0.00000000E+00
  -0.80000000E+00           0.00000000E+00
  -0.79000000E+00           0.00000000E+00
  -0.78000000E+00           0.00000000E+00
  -0.77000000E+00           0.00000000E+00
  -0.76000000E+00           0.00000000E+00
  -0.75000000E+00           0.00000000E+00
  -0.74000000E+00           0.00000000E+00
  -0.73000000E+00           0.00000000E+00
  -0.72000000E+00           0.00000000E+00
  -0.71000000E+00           0.00000000E+00
  -0.70000000E+00           0.00000000E+00
  -0.69000000E+00           0.00000000E+00
  -0.68000000E+00           0.00000000E+00
  -0.67000000E+00           0.00000000E+00
  -0.66000000E+00           0.00000000E+00
  -0.65000000E+00           0.00000000E+00
  -0.64000000E+00           0.00000000E+00
  -0.63000000E+00           0.00000000E+00
  -0.62000000E+00           0.00000000E+00
  -0.61000000E+00           0.00000000E+00
  -0.60000000E+00           0.00000000E+00
  -0.59000000E+00           0.00000000E+00
  -0.58000000E+00           0.00000000E+00
  -0.57000000E+00           0.00000000E+00
  -0.56000000E+00           0.00000000E+00
  -0.55000000E+00           0.00000000E+00
  -0.54000000E+00           0.00000000E+00
  -0.53000000E+00           0.00000000E+00
  -0.52000000E+00           0.00000000E+00
  -0.51000000E+00           0.00000000E+00
  -0.50000000E+00           0.00000000E+00
  -0.49000000E+00           0.00000000E+00
  -0.48000000E+00           0.00000000E+00
  -0.47000000E+00           0.00000000E+00
  -0.46000000E+00           0.00000000E+00
  -0.45000000E+00           0.00000000E+00
  -0.44000000E+00           0.00000000E+00
  -0.43000000E+00           0.00000000E+00
  -0.42000000E+00           0.00000000E+00
  -0.41000000E+00           0.00000000E+00
  -0.40000000E+00           0.00000000E+00
  -0.39000000E+00           0.00000000E+00
  -0.38000000E+00           0.00000000E+00
  -0.37000000E+00           0.00000000E+00
  -0.36000000E+00           0.00000000E+00
  -0.35000000E+00           0.00000000E+00
  -0.34000000E+00           0.00000000E+00
  -0.33000000E+00           0.00000000E+00
  -0.32000000E+00           0.00000000E+00
  -0.31000000E+00           0.00000000E+00
  -0.30000000E+00           0.00000000E+00
  -0.29000000E+00           0.00000000E+00
  -0.28000000E+00           0.00000000E+00
  -0.27000000E+00           0.00000000E+00
  -0.26000000E+00           0.00000000E+00
  -0.25000000E+00           0.00000000E+00
  -0.24000000E+00           0.00000000E+00
  -0.23000000E+00           0.00000000E+00
  -0.22000000E+00           0.00000000E+00
  -0.21000000E+00           0.00000000E+00
  -0.20000000E+00           0.00000000E+00
  -0.19000000E+00           0.00000000E+00
  -0.18000000E+00           0.00000000E+00
  -0.17000000E+00           0.00000000E+00
  -0.16000000E+00           0.00000000E+00
  -0.15000000E+00           0.00000000E+00
  -0.14000000E+00           0.00000000E+00
  -0.13000000E+00           0.00000000E+00
  -0.12000000E+00           0.00000000E+00
  -0.11000000E+00           0.00000000E+00
  -0.10000000E+00           0.00000000E+00
  -0.90000000E-01           0.00000000E+00
  -0.80000000E-01           0.00000000E+00
  -0.70000000E-01           0.00000000E+00
  -0.60000000E-01           0.00000000E+00
  -0.50000000E-01           0.00000000E+00
  -0.40000000E-01           0.00000000E+00
  -0.30000000E-01           0.00000000E+00
  -0.20000000E-01           0.00000000E+00
  -0.10000000E-01           0.00000000E+00
   0.00000000E+00           0.19823512E-01
   0.10000000E-01           0.15894732E+00
   0.20000000E-01           0.31730546E+00
   0.30000000E-01           0.47254742E+00
   0.40000000E-01           0.62614087E+00
   0.50000000E-01           0.77822371E+00
   0.60000000E-01           0.92602639E+00
   0.70000000E-01           0.10691030E+01
   0.80000000E-01           0.12071813E+01
   0.90000000E-01           0.13406772E+01
   0.10000000E+00           0.14667843E+01
   0.11000000E+00           0.15870829E+01
   0.12000000E+00           0.16985590E+01
   0.13000000E+00           0.18086234E+01
   0.14000000E+00           0.19023001E+01
   0.15000000E+00           0.19957742E+01
   0.16000000E+00           0.20741457E+01
   0.17000000E+00           0.21479063E+01
   0.18000000E+00           0.22131085E+01
   0.19000000E+00           0.22664035E+01
   0.20000000E+00           0.23117772E+01
   0.21000000E+00           0.23504047E+01
   0.22000000E+00           0.23830765E+01
   0.23000000E+00           0.24035560E+01
   0.24000000E+00           0.24175379E+01
   0.25000000E+00           0.24188539E+01
   0.26000000E+00           0.24163190E+01
   0.27000000E+00           0.24089409E+01
   0.28000000E+00           0.23879169E+01
   0.29000000E+00           0.23669811E+01
   0.30000000E+00           0.23358513E+01
   0.31000000E+00           0.23014203E+01
   0.32000000E+00           0.22594642E+01
   0.33000000E+00           0.22153283E+01
   0.34000000E+00           0.21594997E+01
   0.35000000E+00           0.21088319E+01
   0.36000000E+00           0.20504964E+01
   0.37000000E+00           0.19885364E+01
   0.38000000E+00           0.19225263E+01
   0.39000000E+00           0.18575590E+01
   0.40000000E+00           0.17894740E+01
   0.41000000E+00           0.17176091E+01
   0.42000000E+00           0.16474881E+01
   0.43000000E+00           0.15760711E+01
   0.44000000E+00           0.15064769E+01
   0.45000000E+00           0.14340990E+01
   0.46000000E+00           0.13639577E+01
   0.47000000E+00           0.12930533E+01
   0.48000000E+00           0.12247162E+01
   0.49000000E+00           0.11577029E+01
   0.50000000E+00           0.10909689E+01
   0.51000000E+00           0.10247755E+01
   0.52000000E+00           0.96427629E+00
   0.53000000E+00           0.90322738E+00
   0.54000000E+00           0.84531101E+00
   0.55000000E+00           0.79007391E+00
   0.56000000E+00           0.73515675E+00
   0.57000000E+00           0.68447460E+00
   0.58000000E+00           0.63344405E+00
   0.59000000E+00           0.58805446E+00
   0.60000000E+00           0.54293433E+00
   0.61000000E+00           0.50182073E+00
   0.62000000E+00           0.46126399E+00
   0.63000000E+00           0.42422857E+00
   0.64000000E+00           0.38936746E+00
   0.65000000E+00           0.35587679E+00
   0.66000000E+00           0.32539921E+00
   0.67000000E+00           0.29698671E+00
   0.68000000E+00           0.27028353E+00
   0.69000000E+00           0.24540704E+00
   0.70000000E+00           0.22266944E+00
   0.71000000E+00           0.20159871E+00
   0.72000000E+00           0.18229980E+00
   0.73000000E+00           0.16446706E+00
   0.74000000E+00           0.14812034E+00
   0.75000000E+00           0.13281181E+00
   0.76000000E+00           0.11896984E+00
   0.77000000E+00           0.10670367E+00
   0.78000000E+00           0.95341270E-01
   0.79000000E+00           0.85039980E-01
   0.80000000E+00           0.76069544E-01
   0.81000000E+00           0.67125694E-01
   0.82000000E+00           0.59608631E-01
   0.83000000E+00           0.52883135E-01
   0.84000000E+00           0.46420139E-01
   0.85000000E+00           0.41095734E-01
   0.86000000E+00           0.36124901E-01
   0.87000000E+00           0.31516468E-01
   0.88000000E+00           0.27867063E-01
   0.89000000E+00           0.24363988E-01
   0.90000000E+00           0.21401885E-01
   0.91000000E+00           0.18470437E-01
   0.92000000E+00           0.16072024E-01
   0.93000000E+00           0.13918948E-01
   0.94000000E+00           0.12102381E-01
   0.95000000E+00           0.10336607E-01
   0.96000000E+00           0.89761905E-02
   0.97000000E+00           0.77430556E-02
   0.98000000E+00           0.66126984E-02
   0.99000000E+00           0.57346230E-02
   0.10000000E+01           0.49202381E-02
   0.10100000E+01           0.41996032E-02
   0.10200000E+01           0.35751984E-02
   0.10300000E+01           0.31000000E-02
   0.10400000E+01           0.26091270E-02
   0.10500000E+01           0.22020833E-02
   0.10600000E+01           0.18606151E-02
   0.10700000E+01           0.15473214E-02
   0.10800000E+01           0.13625992E-02
   0.10900000E+01           0.11599206E-02
   0.11000000E+01           0.91706349E-03
   0.11100000E+01           0.79285714E-03
   0.11200000E+01           0.63869048E-03
   0.11300000E+01           0.52807540E-03
   0.11400000E+01           0.47162698E-03
   0.11500000E+01           0.36984127E-03
   0.11600000E+01           0.31428571E-03
   0.11700000E+01           0.25009921E-03
   0.11800000E+01           0.20753968E-03
   0.11900000E+01           0.17896825E-03
   0.12000000E+01           0.15307540E-03
   0.12100000E+01           0.11448413E-03
   0.12200000E+01           0.10476190E-03
   0.12300000E+01           0.85912698E-04
   0.12400000E+01           0.68551587E-04
   0.12500000E+01           0.57539683E-04
   0.12600000E+01           0.43948413E-04
   0.12700000E+01           0.35119048E-04
   0.12800000E+01           0.30357143E-04
   0.12900000E+01           0.25198413E-04
   0.13000000E+01           0.16468254E-04
   0.13100000E+01           0.17857143E-04
   0.13200000E+01           0.10515873E-04
   0.13300000E+01           0.82341270E-05
   0.13400000E+01           0.61507937E-05
   0.13500000E+01           0.65476190E-05
   0.13600000E+01           0.50595238E-05
   0.13700000E+01           0.39682540E-05
   0.13800000E+01           0.26785714E-05
   0.13900000E+01           0.23809524E-05
   0.14000000E+01           0.11904762E-05
   0.14100000E+01           0.17857143E-05
   0.14200000E+01           0.12896825E-05
   0.14300000E+01           0.13888889E-05
   0.14400000E+01           0.29761905E-06
   0.14500000E+01           0.39682540E-06
   0.14600000E+01           0.59523810E-06
   0.14700000E+01           0.99206349E-07
   0.14800000E+01           0.99206349E-07
   0.14900000E+01           0.19841270E-06
   0.15000000E+01           0.19841270E-06
   0.15100000E+01           0.00000000E+00
   0.15200000E+01           0.00000000E+00
   0.15300000E+01           0.19841270E-06
   0.15400000E+01           0.00000000E+00
   0.15500000E+01           0.00000000E+00
   0.15600000E+01           0.00000000E+00
   0.15700000E+01           0.00000000E+00
   0.15800000E+01           0.00000000E+00
   0.15900000E+01           0.00000000E+00
   0.16000000E+01           0.00000000E+00
   0.16100000E+01           0.00000000E+00
   0.16200000E+01           0.00000000E+00
   0.16300000E+01           0.00000000E+00
   0.16400000E+01           0.00000000E+00
   0.16500000E+01           0.00000000E+00
   0.16600000E+01           0.00000000E+00
   0.16700000E+01           0.00000000E+00
   0.16800000E+01           0.00000000E+00
   0.16900000E+01           0.00000000E+00
   0.17000000E+01           0.00000000E+00
   0.17100000E+01           0.00000000E+00
   0.17200000E+01           0.00000000E+00
   0.17300000E+01           0.00000000E+00
   0.17400000E+01           0.99206349E-07
   0.17500000E+01           0.00000000E+00
   0.17600000E+01           0.00000000E+00
   0.17700000E+01           0.00000000E+00
   0.17800000E+01           0.00000000E+00
   0.17900000E+01           0.00000000E+00
   0.18000000E+01           0.00000000E+00
   0.18100000E+01           0.00000000E+00
   0.18200000E+01           0.00000000E+00
   0.18300000E+01           0.00000000E+00
   0.18400000E+01           0.00000000E+00
   0.18500000E+01           0.00000000E+00
   0.18600000E+01           0.00000000E+00
   0.18700000E+01           0.00000000E+00
   0.18800000E+01           0.00000000E+00
   0.18900000E+01           0.00000000E+00
   0.19000000E+01           0.00000000E+00
   0.19100000E+01           0.00000000E+00
   0.19200000E+01           0.00000000E+00
   0.19300000E+01           0.00000000E+00
   0.19400000E+01           0.00000000E+00
   0.19500000E+01           0.00000000E+00
   0.19600000E+01           0.00000000E+00
   0.19700000E+01           0.00000000E+00
   0.19800000E+01           0.00000000E+00
   0.19900000E+01           0.00000000E+00
   0.20000000E+01           0.00000000E+00
 #T=    15.0000
  -0.20000000E+01           0.00000000E+00
  -0.19900000E+01           0.00000000E+00
  -0.19800000E+01           0.00000000E+00
  -0.19700000E+01           0.00000000E+00
  -0.19600000E+01           0.00000000E+00
  -0.19500000E+01           0.00000000E+00
  -0.19400000E+01           0.00000000E+00
  -0.19300000E+01           0.00000000E+00
  -0.19200000E+01           0.00000000E+00
  -0.19100000E+01           0.00000000E+00
  -0.19000000E+01           0.00000000E+00
  -0.18900000E+01           0.00000000E+00
  -0.18800000E+01           0.00000000E+00
  -0.18700000E+01           0.00000000E+00
  -0.18600000E+01           0.00000000E+00
  -0.18500000E+01           0.00000000E+00
  -0.18400000E+01           0.00000000E+00
  -0.18300000E+01           0.00000000E+00
  -0.18200000E+01           0.00000000E+00
  -0.18100000E+01           0.00000000E+00
  -0.18000000E+01           0.00000000E+00
  -0.17900000E+01           0.00000000E+00
  -0.17800000E+01           0.00000000E+00
  -0.17700000E+01           0.00000000E+00
  -0.17600000E+01           0.00000000E+00
  -0.17500000E+01           0.00000000E+00
  -0.17400000E+01           0.00000000E+00
  -0.17300000E+01           0.00000000E+00
  -0.17200000E+01           0.00000000E+00
  -0.17100000E+01           0.00000000E+00
  -0.17000000E+01           0.00000000E+00
  -0.16900000E+01           0.00000000E+00
  -0.16800000E+01           0.00000000E+00
  -0.16700000E+01           0.00000000E+00
  -0.16600000E+01           0.00000000E+00
  -0.16500000E+01           0.00000000E+00
  -0.16400000E+01           0.00000000E+00
  -0.16300000E+01           0.00000000E+00
  -0.16200000E+01           0.00000000E+00
  -0.16100000E+01           0.00000000E+00
  -0.16000000E+01           0.00000000E+00
  -0.15900000E+01           0.00000000E+00
  -0.15800000E+01           0.00000000E+00
  -0.15700000E+01           0.00000000E+00
  -0.15600000E+01           0.00000000E+00
  -0.15500000E+01           0.00000000E+00
  -0.15400000E+01           0.00000000E+00
  -0.15300000E+01           0.00000000E+00
  -0.15200000E+01           0.00000000E+00
  -0.15100000E+01           0.00000000E+00
  -0.15000000E+01           0.00000000E+00
  -0.14900000E+01           0.00000000E+00
  -0.14800000E+01           0.00000000E+00
  -0.14700000E+01           0.00000000E+00
  -0.14600000E+01           0.00000000E+00
  -0.14500000E+01           0.00000000E+00
  -0.14400000E+01           0.00000000E+00
  -0.14300000E+01           0.00000000E+00
  -0.14200000E+01           0.00000000E+00
  -0.14100000E+01           0.00000000E+00
  -0.14000000E+01           0.00000000E+00
  -0.13900000E+01           0.00000000E+00
  -0.13800000E+01           0.00000000E+00
  -0.13700000E+01           0.00000000E+00
  -0.13600000E+01           0.00000000E+00
  -0.13500000E+01           0.00000000E+00
  -0.13400000E+01           0.00000000E+00
  -0.13300000E+01           0.00000000E+00
  -0.13200000E+01           0.00000000E+00
  -0.13100000E+01           0.00000000E+00
  -0.13000000E+01           0.00000000E+00
  -0.12900000E+01           0.00000000E+00
  -0.12800000E+01           0.00000000E+00
  -0.12700000E+01           0.00000000E+00
  -0.12600000E+01           0.00000000E+00
  -0.12500000E+01           0.00000000E+00
  -0.12400000E+01           0.00000000E+00
  -0.12300000E+01           0.00000000E+00
  -0.12200000E+01           0.00000000E+00
  -0.12100000E+01           0.00000000E+00
  -0.12000000E+01           0.00000000E+00
  -0.11900000E+01           0.00000000E+00
  -0.11800000E+01           0.00000000E+00
  -0.11700000E+01           0.00000000E+00
  -0.11600000E+01           0.00000000E+00
  -0.11500000E+01           0.00000000E+00
  -0.11400000E+01           0.00000000E+00
  -0.11300000E+01           0.00000000E+00
  -0.11200000E+01           0.00000000E+00
  -0.11100000E+01           0.00000000E+00
  -0.11000000E+01           0.00000000E+00
  -0.10900000E+01           0.00000000E+00
  -0.10800000E+01           0.00000000E+00
  -0.10700000E+01           0.00000000E+00
  -0.10600000E+01           0.00000000E+00
  -0.10500000E+01           0.00000000E+00
  -0.10400000E+01           0.00000000E+00
  -0.10300000E+01           0.00000000E+00
  -0.10200000E+01           0.00000000E+00
  -0.10100000E+01           0.00000000E+00
  -0.10000000E+01           0.00000000E+00
  -0.99000000E+00           0.00000000E+00
  -0.98000000E+00           0.00000000E+00
  -0.97000000E+00           0.00000000E+00
  -0.96000000E+00           0.00000000E+00
  -0.95000000E+00           0.00000000E+00
  -0.94000000E+00           0.00000000E+00
  -0.93000000E+00           0.00000000E+00
  -0.92000000E+00           0.00000000E+00
  -0.91000000E+00           0.00000000E+00
  -0.90000000E+00           0.00000000E+00
  -0.89000000E+00           0.00000000E+00
  -0.88000000E+00           0.00000000E+00
  -0.87000000E+00           0.00000000E+00
  -0.86000000E+00           0.00000000E+00
  -0.85000000E+00           0.00000000E+00
  -0.84000000E+00           0.00000000E+00
  -0.83000000E+00           0.00000000E+00
  -0.82000000E+00           0.00000000E+00
  -0.81000000E+00           0.00000000E+00
  -0.80000000E+00           0.00000000E+00
  -0.79000000E+00           0.00000000E+00
  -0.78000000E+00           0.00000000E+00
  -0.77000000E+00           0.00000000E+00
  -0.76000000E+00           0.00000000E+00
  -0.75000000E+00           0.00000000E+00
  -0.74000000E+00           0.00000000E+00
  -0.73000000E+00           0.00000000E+00
  -0.72000000E+00           0.00000000E+00
  -0.71000000E+00           0.00000000E+00
  -0.70000000E+00           0.00000000E+00
  -0.69000000E+00           0.00000000E+00
  -0.68000000E+00           0.00000000E+00
  -0.67000000E+00           0.00000000E+00
  -0.66000000E+00           0.00000000E+00
  -0.65000000E+00           0.00000000E+00
  -0.64000000E+00           0.00000000E+00
  -0.63000000E+00           0.00000000E+00
  -0.62000000E+00           0.00000000E+00
  -0.61000000E+00           0.00000000E+00
  -0.60000000E+00           0.00000000E+00
  -0.59000000E+00           0.00000000E+00
  -0.58000000E+00           0.00000000E+00
  -0.57000000E+00           0.00000000E+00
  -0.56000000E+00           0.00000000E+00
  -0.55000000E+00           0.00000000E+00
  -0.54000000E+00           0.00000000E+00
  -0.53000000E+00           0.00000000E+00
  -0.52000000E+00           0.00000000E+00
  -0.51000000E+00           0.00000000E+00
  -0.50000000E+00           0.00000000E+00
  -0.49000000E+00           0.00000000E+00
  -0.48000000E+00           0.00000000E+00
  -0.47000000E+00           0.00000000E+00
  -0.46000000E+00           0.00000000E+00
  -0.45000000E+00           0.00000000E+00
  -0.44000000E+00           0.00000000E+00
  -0.43000000E+00           0.00000000E+00
  -0.42000000E+00           0.00000000E+00
  -0.41000000E+00           0.00000000E+00
  -0.40000000E+00           0.00000000E+00
  -0.39000000E+00           0.00000000E+00
  -0.38000000E+00           0.00000000E+00
  -0.37000000E+00           0.00000000E+00
  -0.36000000E+00           0.00000000E+00
  -0.35000000E+00           0.00000000E+00
  -0.34000000E+00           0.00000000E+00
  -0.33000000E+00           0.00000000E+00
  -0.32000000E+00           0.00000000E+00
  -0.31000000E+00           0.00000000E+00
  -0.30000000E+00           0.00000000E+00
  -0.29000000E+00           0.00000000E+00
  -0.28000000E+00           0.00000000E+00
  -0.27000000E+00           0.00000000E+00
  -0.26000000E+00           0.00000000E+00
  -0.25000000E+00           0.00000000E+00
  -0.24000000E+00           0.00000000E+00
  -0.23000000E+00           0.00000000E+00
  -0.22000000E+00           0.00000000E+00
  -0.21000000E+00           0.00000000E+00
  -0.20000000E+00           0.00000000E+00
  -0.19000000E+00           0.00000000E+00
  -0.18000000E+00           0.00000000E+00
  -0.17000000E+00           0.00000000E+00
  -0.16000000E+00           0.00000000E+00
  -0.15000000E+00           0.00000000E+00
  -0.14000000E+00           0.00000000E+00
  -0.13000000E+00           0.00000000E+00
  -0.12000000E+00           0.00000000E+00
  -0.11000000E+00           0.00000000E+00
  -0.10000000E+00           0.00000000E+00
  -0.90000000E-01           0.00000000E+00
  -0.80000000E-01           0.00000000E+00
  -0.70000000E-01           0.00000000E+00
  -0.60000000E-01           0.00000000E+00
  -0.50000000E-01           0.00000000E+00
  -0.40000000E-01           0.00000000E+00
  -0.30000000E-01           0.00000000E+00
  -0.20000000E-01           0.00000000E+00
  -0.10000000E-01           0.00000000E+00
   0.00000000E+00           0.18567361E-01
   0.10000000E-01           0.14760764E+00
   0.20000000E-01           0.29543502E+00
   0.30000000E-01           0.44217450E+00
   0.40000000E-01           0.58531111E+00
   0.50000000E-01           0.72657470E+00
   0.60000000E-01           0.86589127E+00
   0.70000000E-01           0.10005750E+01
   0.80000000E-01           0.11305554E+01
   0.90000000E-01           0.12552290E+01
   0.10000000E+00           0.13755981E+01
   0.11000000E+00           0.14902226E+01
   0.12000000E+00           0.15987481E+01
   0.13000000E+00           0.16990312E+01
   0.14000000E+00           0.17975367E+01
   0.15000000E+00           0.18837004E+01
   0.16000000E+00           0.19641936E+01
   0.17000000E+00           0.20353933E+01
   0.18000000E+00           0.20994844E+01
   0.19000000E+00           0.21580728E+01
   0.20000000E+00           0.22037821E+01
   0.21000000E+00           0.22489184E+01
   0.22000000E+00           0.22810490E+01
   0.23000000E+00           0.23073307E+01
   0.24000000E+00           0.23258216E+01
   0.25000000E+00           0.23334471E+01
   0.26000000E+00           0.23386953E+01
   0.27000000E+00           0.23364335E+01
   0.28000000E+00           0.23252966E+01
   0.29000000E+00           0.23092110E+01
   0.30000000E+00           0.22843284E+01
   0.31000000E+00           0.22609144E+01
   0.32000000E+00           0.22291402E+01
   0.33000000E+00           0.21885064E+01
   0.34000000E+00           0.21457564E+01
   0.35000000E+00           0.20974712E+01
   0.36000000E+00           0.20493561E+01
   0.37000000E+00           0.19959129E+01
   0.38000000E+00           0.19367056E+01
   0.39000000E+00           0.18774592E+01
   0.40000000E+00           0.18167035E+01
   0.41000000E+00           0.17519306E+01
   0.42000000E+00           0.16886375E+01
   0.43000000E+00           0.16211755E+01
   0.44000000E+00           0.15562757E+01
   0.45000000E+00           0.14918193E+01
   0.46000000E+00           0.14252519E+01
   0.47000000E+00           0.13577932E+01
   0.48000000E+00           0.12922624E+01
   0.49000000E+00           0.12269819E+01
[...]
   0.13800000E+01           0.41613800E+00
   0.13900000E+01           0.40711101E+00
   0.14000000E+01           0.39848294E+00
   0.14100000E+01           0.38976617E+00
   0.14200000E+01           0.38183304E+00
   0.14300000E+01           0.37308175E+00
   0.14400000E+01           0.36484524E+00
   0.14500000E+01           0.35697252E+00
   0.14600000E+01           0.34866399E+00
   0.14700000E+01           0.34066815E+00
   0.14800000E+01           0.33304177E+00
   0.14900000E+01           0.32526349E+00
   0.15000000E+01           0.31773363E+00
   0.15100000E+01           0.30992143E+00
   0.15200000E+01           0.30247391E+00
   0.15300000E+01           0.29526637E+00
   0.15400000E+01           0.28775655E+00
   0.15500000E+01           0.28084296E+00
   0.15600000E+01           0.27356012E+00
   0.15700000E+01           0.26680446E+00
   0.15800000E+01           0.26000476E+00
   0.15900000E+01           0.25313542E+00
   0.16000000E+01           0.24644196E+00
   0.16100000E+01           0.24001419E+00
   0.16200000E+01           0.23389940E+00
   0.16300000E+01           0.22735278E+00
   0.16400000E+01           0.22135218E+00
   0.16500000E+01           0.21496845E+00
   0.16600000E+01           0.20944831E+00
   0.16700000E+01           0.20353740E+00
   0.16800000E+01           0.19754296E+00
   0.16900000E+01           0.19191052E+00
   0.17000000E+01           0.18658800E+00
   0.17100000E+01           0.18113026E+00
   0.17200000E+01           0.17601885E+00
   0.17300000E+01           0.17067232E+00
   0.17400000E+01           0.16570526E+00
   0.17500000E+01           0.16079732E+00
   0.17600000E+01           0.15587758E+00
   0.17700000E+01           0.15124454E+00
   0.17800000E+01           0.14617946E+00
   0.17900000E+01           0.14223929E+00
   0.18000000E+01           0.13769286E+00
   0.18100000E+01           0.13323532E+00
   0.18200000E+01           0.12919633E+00
   0.18300000E+01           0.12514196E+00
   0.18400000E+01           0.12085357E+00
   0.18500000E+01           0.11699286E+00
   0.18600000E+01           0.11331577E+00
   0.18700000E+01           0.10938442E+00
   0.18800000E+01           0.10599603E+00
   0.18900000E+01           0.10243135E+00
   0.19000000E+01           0.98936012E-01
   0.19100000E+01           0.95533036E-01
   0.19200000E+01           0.92331647E-01
   0.19300000E+01           0.89202778E-01
   0.19400000E+01           0.86059821E-01
   0.19500000E+01           0.83254167E-01
   0.19600000E+01           0.80137302E-01
   0.19700000E+01           0.77325595E-01
   0.19800000E+01           0.74712698E-01
   0.19900000E+01           0.71947718E-01
   0.20000000E+01           0.34911806E-01
 #T=    90.0000
  -0.20000000E+01           0.00000000E+00
  -0.19900000E+01           0.00000000E+00
  -0.19800000E+01           0.00000000E+00
  -0.19700000E+01           0.00000000E+00
  -0.19600000E+01           0.00000000E+00
  -0.19500000E+01           0.00000000E+00
  -0.19400000E+01           0.00000000E+00
  -0.19300000E+01           0.00000000E+00
  -0.19200000E+01           0.00000000E+00
  -0.19100000E+01           0.00000000E+00
  -0.19000000E+01           0.00000000E+00
  -0.18900000E+01           0.00000000E+00
  -0.18800000E+01           0.00000000E+00
  -0.18700000E+01           0.00000000E+00
  -0.18600000E+01           0.00000000E+00
  -0.18500000E+01           0.00000000E+00
  -0.18400000E+01           0.00000000E+00
  -0.18300000E+01           0.00000000E+00
  -0.18200000E+01           0.00000000E+00
  -0.18100000E+01           0.00000000E+00
  -0.18000000E+01           0.00000000E+00
  -0.17900000E+01           0.00000000E+00
  -0.17800000E+01           0.00000000E+00
  -0.17700000E+01           0.00000000E+00
  -0.17600000E+01           0.00000000E+00
  -0.17500000E+01           0.00000000E+00
  -0.17400000E+01           0.00000000E+00
  -0.17300000E+01           0.00000000E+00
  -0.17200000E+01           0.00000000E+00
  -0.17100000E+01           0.00000000E+00
  -0.17000000E+01           0.00000000E+00
  -0.16900000E+01           0.00000000E+00
  -0.16800000E+01           0.00000000E+00
  -0.16700000E+01           0.00000000E+00
  -0.16600000E+01           0.00000000E+00
  -0.16500000E+01           0.00000000E+00
  -0.16400000E+01           0.00000000E+00
  -0.16300000E+01           0.00000000E+00
  -0.16200000E+01           0.00000000E+00
  -0.16100000E+01           0.00000000E+00
  -0.16000000E+01           0.00000000E+00
  -0.15900000E+01           0.00000000E+00
  -0.15800000E+01           0.00000000E+00
  -0.15700000E+01           0.00000000E+00
  -0.15600000E+01           0.00000000E+00
  -0.15500000E+01           0.00000000E+00
  -0.15400000E+01           0.00000000E+00
  -0.15300000E+01           0.00000000E+00
  -0.15200000E+01           0.00000000E+00
  -0.15100000E+01           0.00000000E+00
  -0.15000000E+01           0.00000000E+00
  -0.14900000E+01           0.00000000E+00
  -0.14800000E+01           0.00000000E+00
  -0.14700000E+01           0.00000000E+00
  -0.14600000E+01           0.00000000E+00
  -0.14500000E+01           0.00000000E+00
  -0.14400000E+01           0.00000000E+00
  -0.14300000E+01           0.00000000E+00
  -0.14200000E+01           0.00000000E+00
  -0.14100000E+01           0.00000000E+00
  -0.14000000E+01           0.00000000E+00
  -0.13900000E+01           0.00000000E+00
  -0.13800000E+01           0.00000000E+00
  -0.13700000E+01           0.00000000E+00
  -0.13600000E+01           0.00000000E+00
  -0.13500000E+01           0.00000000E+00
  -0.13400000E+01           0.00000000E+00
  -0.13300000E+01           0.00000000E+00
  -0.13200000E+01           0.00000000E+00
  -0.13100000E+01           0.00000000E+00
  -0.13000000E+01           0.00000000E+00
  -0.12900000E+01           0.00000000E+00
  -0.12800000E+01           0.00000000E+00
  -0.12700000E+01           0.00000000E+00
  -0.12600000E+01           0.00000000E+00
  -0.12500000E+01           0.00000000E+00
  -0.12400000E+01           0.00000000E+00
  -0.12300000E+01           0.00000000E+00
  -0.12200000E+01           0.00000000E+00
  -0.12100000E+01           0.00000000E+00
  -0.12000000E+01           0.00000000E+00
  -0.11900000E+01           0.00000000E+00
  -0.11800000E+01           0.00000000E+00
  -0.11700000E+01           0.00000000E+00
  -0.11600000E+01           0.00000000E+00
  -0.11500000E+01           0.00000000E+00
  -0.11400000E+01           0.00000000E+00
  -0.11300000E+01           0.00000000E+00
  -0.11200000E+01           0.00000000E+00
  -0.11100000E+01           0.00000000E+00
  -0.11000000E+01           0.00000000E+00
  -0.10900000E+01           0.00000000E+00
  -0.10800000E+01           0.00000000E+00
  -0.10700000E+01           0.00000000E+00
  -0.10600000E+01           0.00000000E+00
  -0.10500000E+01           0.00000000E+00
  -0.10400000E+01           0.00000000E+00
  -0.10300000E+01           0.00000000E+00
  -0.10200000E+01           0.00000000E+00
  -0.10100000E+01           0.00000000E+00
  -0.10000000E+01           0.00000000E+00
  -0.99000000E+00           0.00000000E+00
  -0.98000000E+00           0.00000000E+00
  -0.97000000E+00           0.00000000E+00
  -0.96000000E+00           0.00000000E+00
  -0.95000000E+00           0.00000000E+00
  -0.94000000E+00           0.00000000E+00
  -0.93000000E+00           0.00000000E+00
  -0.92000000E+00           0.00000000E+00
  -0.91000000E+00           0.00000000E+00
  -0.90000000E+00           0.00000000E+00
  -0.89000000E+00           0.00000000E+00
  -0.88000000E+00           0.00000000E+00
  -0.87000000E+00           0.00000000E+00
  -0.86000000E+00           0.00000000E+00
  -0.85000000E+00           0.00000000E+00
  -0.84000000E+00           0.00000000E+00
  -0.83000000E+00           0.00000000E+00
  -0.82000000E+00           0.00000000E+00
  -0.81000000E+00           0.00000000E+00
  -0.80000000E+00           0.00000000E+00
  -0.79000000E+00           0.00000000E+00
  -0.78000000E+00           0.00000000E+00
  -0.77000000E+00           0.00000000E+00
  -0.76000000E+00           0.00000000E+00
  -0.75000000E+00           0.00000000E+00
  -0.74000000E+00           0.00000000E+00
  -0.73000000E+00           0.00000000E+00
  -0.72000000E+00           0.00000000E+00
  -0.71000000E+00           0.00000000E+00
  -0.70000000E+00           0.00000000E+00
  -0.69000000E+00           0.00000000E+00
  -0.68000000E+00           0.00000000E+00
  -0.67000000E+00           0.00000000E+00
  -0.66000000E+00           0.00000000E+00
  -0.65000000E+00           0.00000000E+00
  -0.64000000E+00           0.00000000E+00
  -0.63000000E+00           0.00000000E+00
  -0.62000000E+00           0.00000000E+00
  -0.61000000E+00           0.00000000E+00
  -0.60000000E+00           0.00000000E+00
  -0.59000000E+00           0.00000000E+00
  -0.58000000E+00           0.00000000E+00
  -0.57000000E+00           0.00000000E+00
  -0.56000000E+00           0.00000000E+00
  -0.55000000E+00           0.00000000E+00
  -0.54000000E+00           0.00000000E+00
  -0.53000000E+00           0.00000000E+00
  -0.52000000E+00           0.00000000E+00
  -0.51000000E+00           0.00000000E+00
  -0.50000000E+00           0.00000000E+00
  -0.49000000E+00           0.00000000E+00
  -0.48000000E+00           0.00000000E+00
  -0.47000000E+00           0.00000000E+00
  -0.46000000E+00           0.00000000E+00
  -0.45000000E+00           0.00000000E+00
  -0.44000000E+00           0.00000000E+00
  -0.43000000E+00           0.00000000E+00
  -0.42000000E+00           0.00000000E+00
  -0.41000000E+00           0.00000000E+00
  -0.40000000E+00           0.00000000E+00
  -0.39000000E+00           0.00000000E+00
  -0.38000000E+00           0.00000000E+00
  -0.37000000E+00           0.00000000E+00
  -0.36000000E+00           0.00000000E+00
  -0.35000000E+00           0.00000000E+00
  -0.34000000E+00           0.00000000E+00
  -0.33000000E+00           0.00000000E+00
  -0.32000000E+00           0.00000000E+00
  -0.31000000E+00           0.00000000E+00
  -0.30000000E+00           0.00000000E+00
  -0.29000000E+00           0.00000000E+00
  -0.28000000E+00           0.00000000E+00
  -0.27000000E+00           0.00000000E+00
  -0.26000000E+00           0.00000000E+00
  -0.25000000E+00           0.00000000E+00
  -0.24000000E+00           0.00000000E+00
  -0.23000000E+00           0.00000000E+00
  -0.22000000E+00           0.00000000E+00
  -0.21000000E+00           0.00000000E+00
  -0.20000000E+00           0.00000000E+00
  -0.19000000E+00           0.00000000E+00
  -0.18000000E+00           0.00000000E+00
  -0.17000000E+00           0.00000000E+00
  -0.16000000E+00           0.00000000E+00
  -0.15000000E+00           0.00000000E+00
  -0.14000000E+00           0.00000000E+00
  -0.13000000E+00           0.00000000E+00
  -0.12000000E+00           0.00000000E+00
  -0.11000000E+00           0.00000000E+00
  -0.10000000E+00           0.00000000E+00
  -0.90000000E-01           0.00000000E+00
  -0.80000000E-01           0.00000000E+00
  -0.70000000E-01           0.00000000E+00
  -0.60000000E-01           0.00000000E+00
  -0.50000000E-01           0.00000000E+00
  -0.40000000E-01           0.00000000E+00
  -0.30000000E-01           0.00000000E+00
  -0.20000000E-01           0.00000000E+00
  -0.10000000E-01           0.00000000E+00
   0.00000000E+00           0.25485119E-02
   0.10000000E-01           0.20291369E-01
   0.20000000E-01           0.40556746E-01
   0.30000000E-01           0.60758532E-01
   0.40000000E-01           0.80855060E-01
   0.50000000E-01           0.10102560E+00
   0.60000000E-01           0.12090258E+00
   0.70000000E-01           0.14120437E+00
   0.80000000E-01           0.16097966E+00
   0.90000000E-01           0.18088631E+00
   0.10000000E+00           0.20053571E+00
   0.11000000E+00           0.22001032E+00
   0.12000000E+00           0.23999891E+00
   0.13000000E+00           0.25922143E+00
   0.14000000E+00           0.27824524E+00
   0.15000000E+00           0.29721052E+00
   0.16000000E+00           0.31621429E+00
   0.17000000E+00           0.33445833E+00
   0.18000000E+00           0.35330645E+00
   0.19000000E+00           0.37140933E+00
   0.20000000E+00           0.38981706E+00
   0.21000000E+00           0.40689821E+00
   0.22000000E+00           0.42454097E+00
   0.23000000E+00           0.44195248E+00
   0.24000000E+00           0.45923919E+00
   0.25000000E+00           0.47611409E+00
   0.26000000E+00           0.49283135E+00
   0.27000000E+00           0.50906240E+00
   0.28000000E+00           0.52479375E+00
   0.29000000E+00           0.54108304E+00
   0.30000000E+00           0.55603879E+00
   0.31000000E+00           0.57156835E+00
   0.32000000E+00           0.58581349E+00
   0.33000000E+00           0.60021240E+00
   0.34000000E+00           0.61451081E+00
   0.35000000E+00           0.62833115E+00
   0.36000000E+00           0.64215794E+00
   0.37000000E+00           0.65545466E+00
   0.38000000E+00           0.66756488E+00
   0.39000000E+00           0.67974871E+00
   0.40000000E+00           0.69200437E+00
   0.41000000E+00           0.70420982E+00
   0.42000000E+00           0.71526429E+00
   0.43000000E+00           0.72604623E+00
   0.44000000E+00           0.73634196E+00
   0.45000000E+00           0.74717192E+00
   0.46000000E+00           0.75641181E+00
   0.47000000E+00           0.76612550E+00
   0.48000000E+00           0.77470446E+00
   0.49000000E+00           0.78395407E+00
   0.50000000E+00           0.79202877E+00
   0.51000000E+00           0.79884593E+00
   0.52000000E+00           0.80727054E+00
   0.53000000E+00           0.81401895E+00
   0.54000000E+00           0.82025992E+00
   0.55000000E+00           0.82646627E+00
   0.56000000E+00           0.83235000E+00
   0.57000000E+00           0.83802917E+00
   0.58000000E+00           0.84315169E+00
   0.59000000E+00           0.84824405E+00
   0.60000000E+00           0.85261488E+00
   0.61000000E+00           0.85598690E+00
   0.62000000E+00           0.85942371E+00
   0.63000000E+00           0.86294425E+00
   0.64000000E+00           0.86574177E+00
   0.65000000E+00           0.86811895E+00
   0.66000000E+00           0.87051220E+00
   0.67000000E+00           0.87133631E+00
   0.68000000E+00           0.87283085E+00
   0.69000000E+00           0.87431776E+00
   0.70000000E+00           0.87415089E+00
   0.71000000E+00           0.87447401E+00
   0.72000000E+00           0.87441835E+00
   0.73000000E+00           0.87378760E+00
   0.74000000E+00           0.87338552E+00
   0.75000000E+00           0.87218542E+00
   0.76000000E+00           0.87097312E+00
   0.77000000E+00           0.86903284E+00
   0.78000000E+00           0.86636280E+00
   0.79000000E+00           0.86455367E+00
   0.80000000E+00           0.86126905E+00
   0.81000000E+00           0.85874544E+00
   0.82000000E+00           0.85513353E+00
   0.83000000E+00           0.85133234E+00
   0.84000000E+00           0.84814623E+00
   0.85000000E+00           0.84367589E+00
   0.86000000E+00           0.83894375E+00
   0.87000000E+00           0.83417480E+00
   0.88000000E+00           0.82980813E+00
   0.89000000E+00           0.82491776E+00
   0.90000000E+00           0.81857817E+00
   0.91000000E+00           0.81300079E+00
   0.92000000E+00           0.80688919E+00
   0.93000000E+00           0.80085099E+00
   0.94000000E+00           0.79460397E+00
   0.95000000E+00           0.78848165E+00
   0.96000000E+00           0.78176597E+00
   0.97000000E+00           0.77455099E+00
   0.98000000E+00           0.76781786E+00
   0.99000000E+00           0.76023393E+00
   0.10000000E+01           0.75294216E+00
   0.10100000E+01           0.74583790E+00
   0.10200000E+01           0.73746964E+00
   0.10300000E+01           0.73033859E+00
   0.10400000E+01           0.72168353E+00
   0.10500000E+01           0.71344792E+00
   0.10600000E+01           0.70584067E+00
   0.10700000E+01           0.69703581E+00
   0.10800000E+01           0.68923899E+00
   0.10900000E+01           0.68043978E+00
   0.11000000E+01           0.67189762E+00
   0.11100000E+01           0.66309732E+00
   0.11200000E+01           0.65431954E+00
   0.11300000E+01           0.64564573E+00
   0.11400000E+01           0.63652312E+00
   0.11500000E+01           0.62759067E+00
   0.11600000E+01           0.61848899E+00
   0.11700000E+01           0.60979246E+00
   0.11800000E+01           0.60058204E+00
   0.11900000E+01           0.59173671E+00
   0.12000000E+01           0.58242510E+00
   0.12100000E+01           0.57327232E+00
   0.12200000E+01           0.56385357E+00
   0.12300000E+01           0.55482024E+00
   0.12400000E+01           0.54575635E+00
   0.12500000E+01           0.53615139E+00
   0.12600000E+01           0.52752788E+00
   0.12700000E+01           0.51819077E+00
   0.12800000E+01           0.50947976E+00
   0.12900000E+01           0.49976052E+00
   0.13000000E+01           0.49073274E+00
   0.13100000E+01           0.48191081E+00
   0.13200000E+01           0.47325605E+00
   0.13300000E+01           0.46437520E+00
   0.13400000E+01           0.45530694E+00
   0.13500000E+01           0.44650982E+00
   0.13600000E+01           0.43716200E+00
   0.13700000E+01           0.42851567E+00
   0.13800000E+01           0.41995853E+00
   0.13900000E+01           0.41156567E+00
   0.14000000E+01           0.40282500E+00
   0.14100000E+01           0.39433145E+00
   0.14200000E+01           0.38637123E+00
   0.14300000E+01           0.37762996E+00
   0.14400000E+01           0.36975526E+00
   0.14500000E+01           0.36161240E+00
   0.14600000E+01           0.35349712E+00
   0.14700000E+01           0.34546994E+00
   0.14800000E+01           0.33755308E+00
   0.14900000E+01           0.32981865E+00
   0.15000000E+01           0.32230397E+00
   0.15100000E+01           0.31458165E+00
   0.15200000E+01           0.30707381E+00
   0.15300000E+01           0.29956220E+00
   0.15400000E+01           0.29219395E+00
   0.15500000E+01           0.28530794E+00
   0.15600000E+01           0.27782708E+00
   0.15700000E+01           0.27139692E+00
   0.15800000E+01           0.26402619E+00
   0.15900000E+01           0.25783978E+00
   0.16000000E+01           0.25084633E+00
   0.16100000E+01           0.24440734E+00
   0.16200000E+01           0.23839494E+00
   0.16300000E+01           0.23159663E+00
   0.16400000E+01           0.22530456E+00
   0.16500000E+01           0.21916081E+00
   0.16600000E+01           0.21369861E+00
   0.16700000E+01           0.20742093E+00
   0.16800000E+01           0.20192748E+00
   0.16900000E+01           0.19634593E+00
   0.17000000E+01           0.19038482E+00
   0.17100000E+01           0.18521240E+00
   0.17200000E+01           0.17991905E+00
   0.17300000E+01           0.17461379E+00
   0.17400000E+01           0.16955030E+00
   0.17500000E+01           0.16461181E+00
   0.17600000E+01           0.15959563E+00
   0.17700000E+01           0.15500972E+00
   0.17800000E+01           0.15021607E+00
   0.17900000E+01           0.14557629E+00
   0.18000000E+01           0.14108393E+00
   0.18100000E+01           0.13682123E+00
   0.18200000E+01           0.13261597E+00
   0.18300000E+01           0.12857391E+00
   0.18400000E+01           0.12426835E+00
   0.18500000E+01           0.12044256E+00
   0.18600000E+01           0.11636458E+00
   0.18700000E+01           0.11253879E+00
   0.18800000E+01           0.10889931E+00
   0.18900000E+01           0.10548304E+00
   0.19000000E+01           0.10185347E+00
   0.19100000E+01           0.98341468E-01
   0.19200000E+01           0.95180853E-01
   0.19300000E+01           0.92072817E-01
   0.19400000E+01           0.88765675E-01
   0.19500000E+01           0.85641369E-01
   0.19600000E+01           0.82777877E-01
   0.19700000E+01           0.79894147E-01
   0.19800000E+01           0.77086607E-01
   0.19900000E+01           0.74539385E-01
   0.20000000E+01           0.36178175E-01
