 #written on 14Nov2024 at 13:06:53 
 #----------------- MONTECARLO -------------------#
 #        M                      P(M)             #
 #------------------------------------------------#
 #T=   200.0000
  -0.40000000E+01           0.00000000E+00
  -0.39900000E+01           0.00000000E+00
  -0.39800000E+01           0.00000000E+00
  -0.39700000E+01           0.00000000E+00
  -0.39600000E+01           0.00000000E+00
  -0.39500000E+01           0.00000000E+00
  -0.39400000E+01           0.00000000E+00
  -0.39300000E+01           0.00000000E+00
  -0.39200000E+01           0.00000000E+00
  -0.39100000E+01           0.00000000E+00
  -0.39000000E+01           0.00000000E+00
  -0.38900000E+01           0.00000000E+00
  -0.38800000E+01           0.00000000E+00
  -0.38700000E+01           0.00000000E+00
  -0.38600000E+01           0.00000000E+00
  -0.38500000E+01           0.00000000E+00
  -0.38400000E+01           0.00000000E+00
  -0.38300000E+01           0.00000000E+00
  -0.38200000E+01           0.00000000E+00
  -0.38100000E+01           0.00000000E+00
  -0.38000000E+01           0.00000000E+00
  -0.37900000E+01           0.00000000E+00
  -0.37800000E+01           0.00000000E+00
  -0.37700000E+01           0.00000000E+00
  -0.37600000E+01           0.00000000E+00
  -0.37500000E+01           0.00000000E+00
  -0.37400000E+01           0.00000000E+00
  -0.37300000E+01           0.00000000E+00
  -0.37200000E+01           0.00000000E+00
  -0.37100000E+01           0.00000000E+00
  -0.37000000E+01           0.00000000E+00
  -0.36900000E+01           0.00000000E+00
  -0.36800000E+01           0.00000000E+00
  -0.36700000E+01           0.00000000E+00
  -0.36600000E+01           0.00000000E+00
  -0.36500000E+01           0.00000000E+00
  -0.36400000E+01           0.00000000E+00
  -0.36300000E+01           0.00000000E+00
  -0.36200000E+01           0.00000000E+00
  -0.36100000E+01           0.00000000E+00
  -0.36000000E+01           0.00000000E+00
  -0.35900000E+01           0.00000000E+00
  -0.35800000E+01           0.00000000E+00
  -0.35700000E+01           0.00000000E+00
  -0.35600000E+01           0.00000000E+00
  -0.35500000E+01           0.00000000E+00
  -0.35400000E+01           0.00000000E+00
  -0.35300000E+01           0.00000000E+00
  -0.35200000E+01           0.00000000E+00
  -0.35100000E+01           0.00000000E+00
  -0.35000000E+01           0.00000000E+00
  -0.34900000E+01           0.00000000E+00
  -0.34800000E+01           0.00000000E+00
  -0.34700000E+01           0.00000000E+00
  -0.34600000E+01           0.00000000E+00
  -0.34500000E+01           0.00000000E+00
  -0.34400000E+01           0.00000000E+00
  -0.34300000E+01           0.00000000E+00
  -0.34200000E+01           0.00000000E+00
  -0.34100000E+01           0.00000000E+00
  -0.34000000E+01           0.00000000E+00
  -0.33900000E+01           0.00000000E+00
  -0.33800000E+01           0.00000000E+00
  -0.33700000E+01           0.00000000E+00
  -0.33600000E+01           0.00000000E+00
  -0.33500000E+01           0.00000000E+00
  -0.33400000E+01           0.00000000E+00
  -0.33300000E+01           0.00000000E+00
  -0.33200000E+01           0.00000000E+00
  -0.33100000E+01           0.00000000E+00
  -0.33000000E+01           0.00000000E+00
  -0.32900000E+01           0.00000000E+00
  -0.32800000E+01           0.00000000E+00
  -0.32700000E+01           0.00000000E+00
  -0.32600000E+01           0.00000000E+00
  -0.32500000E+01           0.00000000E+00
  -0.32400000E+01           0.00000000E+00
  -0.32300000E+01           0.00000000E+00
  -0.32200000E+01           0.00000000E+00
  -0.32100000E+01           0.00000000E+00
  -0.32000000E+01           0.00000000E+00
  -0.31900000E+01           0.00000000E+00
  -0.31800000E+01           0.00000000E+00
  -0.31700000E+01           0.00000000E+00
  -0.31600000E+01           0.00000000E+00
  -0.31500000E+01           0.00000000E+00
  -0.31400000E+01           0.00000000E+00
  -0.31300000E+01           0.00000000E+00
  -0.31200000E+01           0.00000000E+00
  -0.31100000E+01           0.00000000E+00
  -0.31000000E+01           0.00000000E+00
  -0.30900000E+01           0.00000000E+00
  -0.30800000E+01           0.00000000E+00
  -0.30700000E+01           0.00000000E+00
  -0.30600000E+01           0.00000000E+00
  -0.30500000E+01           0.00000000E+00
  -0.30400000E+01           0.00000000E+00
  -0.30300000E+01           0.00000000E+00
  -0.30200000E+01           0.00000000E+00
  -0.30100000E+01           0.00000000E+00
  -0.30000000E+01           0.00000000E+00
  -0.29900000E+01           0.00000000E+00
  -0.29800000E+01           0.00000000E+00
  -0.29700000E+01           0.00000000E+00
  -0.29600000E+01           0.00000000E+00
  -0.29500000E+01           0.00000000E+00
  -0.29400000E+01           0.00000000E+00
  -0.29300000E+01           0.00000000E+00
  -0.29200000E+01           0.00000000E+00
  -0.29100000E+01           0.00000000E+00
  -0.29000000E+01           0.00000000E+00
  -0.28900000E+01           0.00000000E+00
  -0.28800000E+01           0.00000000E+00
  -0.28700000E+01           0.00000000E+00
  -0.28600000E+01           0.00000000E+00
  -0.28500000E+01           0.00000000E+00
  -0.28400000E+01           0.00000000E+00
  -0.28300000E+01           0.00000000E+00
  -0.28200000E+01           0.00000000E+00
  -0.28100000E+01           0.00000000E+00
  -0.28000000E+01           0.00000000E+00
  -0.27900000E+01           0.00000000E+00
  -0.27800000E+01           0.00000000E+00
  -0.27700000E+01           0.00000000E+00
  -0.27600000E+01           0.00000000E+00
  -0.27500000E+01           0.00000000E+00
  -0.27400000E+01           0.00000000E+00
  -0.27300000E+01           0.00000000E+00
  -0.27200000E+01           0.00000000E+00
  -0.27100000E+01           0.00000000E+00
  -0.27000000E+01           0.00000000E+00
  -0.26900000E+01           0.00000000E+00
  -0.26800000E+01           0.00000000E+00
  -0.26700000E+01           0.00000000E+00
  -0.26600000E+01           0.00000000E+00
  -0.26500000E+01           0.00000000E+00
  -0.26400000E+01           0.00000000E+00
  -0.26300000E+01           0.00000000E+00
  -0.26200000E+01           0.00000000E+00
  -0.26100000E+01           0.00000000E+00
  -0.26000000E+01           0.00000000E+00
  -0.25900000E+01           0.00000000E+00
  -0.25800000E+01           0.00000000E+00
  -0.25700000E+01           0.00000000E+00
  -0.25600000E+01           0.00000000E+00
  -0.25500000E+01           0.00000000E+00
  -0.25400000E+01           0.00000000E+00
  -0.25300000E+01           0.00000000E+00
  -0.25200000E+01           0.00000000E+00
  -0.25100000E+01           0.00000000E+00
  -0.25000000E+01           0.00000000E+00
  -0.24900000E+01           0.00000000E+00
  -0.24800000E+01           0.00000000E+00
  -0.24700000E+01           0.00000000E+00
  -0.24600000E+01           0.00000000E+00
  -0.24500000E+01           0.00000000E+00
  -0.24400000E+01           0.00000000E+00
  -0.24300000E+01           0.00000000E+00
  -0.24200000E+01           0.00000000E+00
  -0.24100000E+01           0.00000000E+00
  -0.24000000E+01           0.00000000E+00
  -0.23900000E+01           0.00000000E+00
  -0.23800000E+01           0.00000000E+00
  -0.23700000E+01           0.00000000E+00
  -0.23600000E+01           0.00000000E+00
  -0.23500000E+01           0.00000000E+00
  -0.23400000E+01           0.00000000E+00
  -0.23300000E+01           0.00000000E+00
  -0.23200000E+01           0.00000000E+00
  -0.23100000E+01           0.00000000E+00
  -0.23000000E+01           0.00000000E+00
  -0.22900000E+01           0.00000000E+00
  -0.22800000E+01           0.00000000E+00
  -0.22700000E+01           0.00000000E+00
  -0.22600000E+01           0.00000000E+00
  -0.22500000E+01           0.00000000E+00
  -0.22400000E+01           0.00000000E+00
  -0.22300000E+01           0.00000000E+00
  -0.22200000E+01           0.00000000E+00
  -0.22100000E+01           0.00000000E+00
  -0.22000000E+01           0.00000000E+00
  -0.21900000E+01           0.00000000E+00
  -0.21800000E+01           0.00000000E+00
  -0.21700000E+01           0.00000000E+00
  -0.21600000E+01           0.00000000E+00
  -0.21500000E+01           0.00000000E+00
  -0.21400000E+01           0.00000000E+00
  -0.21300000E+01           0.00000000E+00
  -0.21200000E+01           0.00000000E+00
  -0.21100000E+01           0.00000000E+00
  -0.21000000E+01           0.00000000E+00
  -0.20900000E+01           0.00000000E+00
  -0.20800000E+01           0.00000000E+00
  -0.20700000E+01           0.00000000E+00
  -0.20600000E+01           0.00000000E+00
  -0.20500000E+01           0.00000000E+00
  -0.20400000E+01           0.00000000E+00
  -0.20300000E+01           0.00000000E+00
  -0.20200000E+01           0.00000000E+00
  -0.20100000E+01           0.00000000E+00
  -0.20000000E+01           0.00000000E+00
  -0.19900000E+01           0.00000000E+00
  -0.19800000E+01           0.00000000E+00
  -0.19700000E+01           0.00000000E+00
  -0.19600000E+01           0.00000000E+00
  -0.19500000E+01           0.00000000E+00
  -0.19400000E+01           0.00000000E+00
  -0.19300000E+01           0.00000000E+00
  -0.19200000E+01           0.00000000E+00
  -0.19100000E+01           0.00000000E+00
  -0.19000000E+01           0.00000000E+00
  -0.18900000E+01           0.00000000E+00
  -0.18800000E+01           0.00000000E+00
  -0.18700000E+01           0.00000000E+00
  -0.18600000E+01           0.00000000E+00
  -0.18500000E+01           0.00000000E+00
  -0.18400000E+01           0.00000000E+00
  -0.18300000E+01           0.00000000E+00
  -0.18200000E+01           0.00000000E+00
  -0.18100000E+01           0.00000000E+00
  -0.18000000E+01           0.00000000E+00
  -0.17900000E+01           0.00000000E+00
  -0.17800000E+01           0.00000000E+00
  -0.17700000E+01           0.00000000E+00
  -0.17600000E+01           0.00000000E+00
  -0.17500000E+01           0.00000000E+00
  -0.17400000E+01           0.00000000E+00
  -0.17300000E+01           0.00000000E+00
  -0.17200000E+01           0.00000000E+00
  -0.17100000E+01           0.00000000E+00
  -0.17000000E+01           0.00000000E+00
  -0.16900000E+01           0.00000000E+00
  -0.16800000E+01           0.00000000E+00
  -0.16700000E+01           0.00000000E+00
  -0.16600000E+01           0.00000000E+00
  -0.16500000E+01           0.00000000E+00
  -0.16400000E+01           0.00000000E+00
  -0.16300000E+01           0.00000000E+00
  -0.16200000E+01           0.00000000E+00
  -0.16100000E+01           0.00000000E+00
  -0.16000000E+01           0.00000000E+00
  -0.15900000E+01           0.00000000E+00
  -0.15800000E+01           0.00000000E+00
  -0.15700000E+01           0.00000000E+00
  -0.15600000E+01           0.00000000E+00
  -0.15500000E+01           0.00000000E+00
  -0.15400000E+01           0.00000000E+00
  -0.15300000E+01           0.00000000E+00
  -0.15200000E+01           0.00000000E+00
  -0.15100000E+01           0.00000000E+00
  -0.15000000E+01           0.00000000E+00
  -0.14900000E+01           0.00000000E+00
  -0.14800000E+01           0.00000000E+00
  -0.14700000E+01           0.00000000E+00
  -0.14600000E+01           0.00000000E+00
  -0.14500000E+01           0.00000000E+00
  -0.14400000E+01           0.00000000E+00
  -0.14300000E+01           0.00000000E+00
  -0.14200000E+01           0.00000000E+00
  -0.14100000E+01           0.00000000E+00
  -0.14000000E+01           0.00000000E+00
  -0.13900000E+01           0.00000000E+00
  -0.13800000E+01           0.00000000E+00
  -0.13700000E+01           0.00000000E+00
  -0.13600000E+01           0.00000000E+00
  -0.13500000E+01           0.00000000E+00
  -0.13400000E+01           0.00000000E+00
  -0.13300000E+01           0.00000000E+00
  -0.13200000E+01           0.00000000E+00
  -0.13100000E+01           0.00000000E+00
  -0.13000000E+01           0.00000000E+00
  -0.12900000E+01           0.00000000E+00
  -0.12800000E+01           0.00000000E+00
  -0.12700000E+01           0.00000000E+00
  -0.12600000E+01           0.00000000E+00
  -0.12500000E+01           0.00000000E+00
  -0.12400000E+01           0.00000000E+00
  -0.12300000E+01           0.00000000E+00
  -0.12200000E+01           0.00000000E+00
  -0.12100000E+01           0.00000000E+00
  -0.12000000E+01           0.00000000E+00
  -0.11900000E+01           0.00000000E+00
  -0.11800000E+01           0.00000000E+00
  -0.11700000E+01           0.00000000E+00
  -0.11600000E+01           0.00000000E+00
  -0.11500000E+01           0.00000000E+00
  -0.11400000E+01           0.00000000E+00
  -0.11300000E+01           0.00000000E+00
  -0.11200000E+01           0.00000000E+00
  -0.11100000E+01           0.00000000E+00
  -0.11000000E+01           0.00000000E+00
  -0.10900000E+01           0.00000000E+00
  -0.10800000E+01           0.00000000E+00
  -0.10700000E+01           0.00000000E+00
  -0.10600000E+01           0.00000000E+00
  -0.10500000E+01           0.00000000E+00
  -0.10400000E+01           0.00000000E+00
  -0.10300000E+01           0.00000000E+00
  -0.10200000E+01           0.00000000E+00
  -0.10100000E+01           0.00000000E+00
  -0.10000000E+01           0.00000000E+00
  -0.99000000E+00           0.00000000E+00
  -0.98000000E+00           0.00000000E+00
  -0.97000000E+00           0.00000000E+00
  -0.96000000E+00           0.00000000E+00
  -0.95000000E+00           0.00000000E+00
  -0.94000000E+00           0.00000000E+00
  -0.93000000E+00           0.00000000E+00
  -0.92000000E+00           0.00000000E+00
  -0.91000000E+00           0.00000000E+00
  -0.90000000E+00           0.00000000E+00
  -0.89000000E+00           0.00000000E+00
  -0.88000000E+00           0.00000000E+00
  -0.87000000E+00           0.00000000E+00
  -0.86000000E+00           0.00000000E+00
  -0.85000000E+00           0.00000000E+00
  -0.84000000E+00           0.00000000E+00
  -0.83000000E+00           0.00000000E+00
  -0.82000000E+00           0.00000000E+00
  -0.81000000E+00           0.00000000E+00
  -0.80000000E+00           0.00000000E+00
  -0.79000000E+00           0.00000000E+00
  -0.78000000E+00           0.00000000E+00
  -0.77000000E+00           0.00000000E+00
  -0.76000000E+00           0.00000000E+00
  -0.75000000E+00           0.00000000E+00
  -0.74000000E+00           0.00000000E+00
  -0.73000000E+00           0.00000000E+00
  -0.72000000E+00           0.00000000E+00
  -0.71000000E+00           0.00000000E+00
  -0.70000000E+00           0.00000000E+00
  -0.69000000E+00           0.00000000E+00
  -0.68000000E+00           0.00000000E+00
  -0.67000000E+00           0.00000000E+00
  -0.66000000E+00           0.00000000E+00
  -0.65000000E+00           0.00000000E+00
  -0.64000000E+00           0.00000000E+00
  -0.63000000E+00           0.00000000E+00
  -0.62000000E+00           0.00000000E+00
  -0.61000000E+00           0.00000000E+00
  -0.60000000E+00           0.00000000E+00
  -0.59000000E+00           0.00000000E+00
  -0.58000000E+00           0.00000000E+00
  -0.57000000E+00           0.00000000E+00
  -0.56000000E+00           0.00000000E+00
  -0.55000000E+00           0.00000000E+00
  -0.54000000E+00           0.00000000E+00
  -0.53000000E+00           0.00000000E+00
  -0.52000000E+00           0.00000000E+00
  -0.51000000E+00           0.00000000E+00
  -0.50000000E+00           0.00000000E+00
  -0.49000000E+00           0.00000000E+00
  -0.48000000E+00           0.00000000E+00
  -0.47000000E+00           0.00000000E+00
  -0.46000000E+00           0.00000000E+00
  -0.45000000E+00           0.00000000E+00
  -0.44000000E+00           0.00000000E+00
  -0.43000000E+00           0.00000000E+00
  -0.42000000E+00           0.00000000E+00
  -0.41000000E+00           0.00000000E+00
  -0.40000000E+00           0.00000000E+00
  -0.39000000E+00           0.00000000E+00
  -0.38000000E+00           0.00000000E+00
  -0.37000000E+00           0.00000000E+00
  -0.36000000E+00           0.00000000E+00
  -0.35000000E+00           0.00000000E+00
  -0.34000000E+00           0.00000000E+00
  -0.33000000E+00           0.00000000E+00
  -0.32000000E+00           0.00000000E+00
  -0.31000000E+00           0.00000000E+00
  -0.30000000E+00           0.00000000E+00
  -0.29000000E+00           0.00000000E+00
  -0.28000000E+00           0.00000000E+00
  -0.27000000E+00           0.00000000E+00
  -0.26000000E+00           0.00000000E+00
  -0.25000000E+00           0.00000000E+00
  -0.24000000E+00           0.00000000E+00
  -0.23000000E+00           0.00000000E+00
  -0.22000000E+00           0.00000000E+00
  -0.21000000E+00           0.00000000E+00
  -0.20000000E+00           0.00000000E+00
  -0.19000000E+00           0.00000000E+00
  -0.18000000E+00           0.00000000E+00
  -0.17000000E+00           0.00000000E+00
  -0.16000000E+00           0.00000000E+00
  -0.15000000E+00           0.00000000E+00
  -0.14000000E+00           0.00000000E+00
  -0.13000000E+00           0.00000000E+00
  -0.12000000E+00           0.00000000E+00
  -0.11000000E+00           0.00000000E+00
  -0.10000000E+00           0.00000000E+00
  -0.90000000E-01           0.00000000E+00
  -0.80000000E-01           0.00000000E+00
  -0.70000000E-01           0.00000000E+00
  -0.60000000E-01           0.00000000E+00
  -0.50000000E-01           0.00000000E+00
  -0.40000000E-01           0.00000000E+00
  -0.30000000E-01           0.00000000E+00
  -0.20000000E-01           0.00000000E+00
  -0.10000000E-01           0.00000000E+00
   0.00000000E+00           0.12892562E-04
   0.10000000E-01           0.38396694E-03
   0.20000000E-01           0.14747107E-02
   0.30000000E-01           0.32072727E-02
   0.40000000E-01           0.56674380E-02
   0.50000000E-01           0.88428099E-02
   0.60000000E-01           0.12558017E-01
   0.70000000E-01           0.16875372E-01
   0.80000000E-01           0.21751074E-01
   0.90000000E-01           0.27358512E-01
   0.10000000E+00           0.33416198E-01
   0.11000000E+00           0.39983636E-01
   0.12000000E+00           0.47264463E-01
   0.13000000E+00           0.54782149E-01
   0.14000000E+00           0.62880661E-01
   0.15000000E+00           0.71425455E-01
   0.16000000E+00           0.80376198E-01
   0.17000000E+00           0.89772562E-01
   0.18000000E+00           0.99458182E-01
   0.19000000E+00           0.10985851E+00
   0.20000000E+00           0.12004479E+00
   0.21000000E+00           0.13058777E+00
   0.22000000E+00           0.14202496E+00
   0.23000000E+00           0.15326149E+00
   0.24000000E+00           0.16494017E+00
   0.25000000E+00           0.17695405E+00
   0.26000000E+00           0.18891521E+00
   0.27000000E+00           0.20138463E+00
   0.28000000E+00           0.21350612E+00
   0.29000000E+00           0.22670810E+00
   0.30000000E+00           0.23934496E+00
   0.31000000E+00           0.25268595E+00
   0.32000000E+00           0.26543223E+00
   0.33000000E+00           0.27872083E+00
   0.34000000E+00           0.29186033E+00
   0.35000000E+00           0.30527636E+00
   0.36000000E+00           0.31829025E+00
   0.37000000E+00           0.33203554E+00
   0.38000000E+00           0.34542744E+00
   0.39000000E+00           0.35866942E+00
   0.40000000E+00           0.37184198E+00
   0.41000000E+00           0.38553752E+00
   0.42000000E+00           0.39873736E+00
   0.43000000E+00           0.41230182E+00
   0.44000000E+00           0.42496975E+00
   0.45000000E+00           0.43900017E+00
   0.46000000E+00           0.45144017E+00
   0.47000000E+00           0.46430628E+00
   0.48000000E+00           0.47729157E+00
   0.49000000E+00           0.48992430E+00
   0.50000000E+00           0.50201405E+00
   0.51000000E+00           0.51477355E+00
   0.52000000E+00           0.52665256E+00
   0.53000000E+00           0.53947372E+00
   0.54000000E+00           0.55033636E+00
   0.55000000E+00           0.56209934E+00
   0.56000000E+00           0.57362512E+00
   0.57000000E+00           0.58439124E+00
   0.58000000E+00           0.59567223E+00
   0.59000000E+00           0.60619620E+00
   0.60000000E+00           0.61683521E+00
   0.61000000E+00           0.62675339E+00
   0.62000000E+00           0.63635702E+00
   0.63000000E+00           0.64650331E+00
   0.64000000E+00           0.65528992E+00
   0.65000000E+00           0.66470645E+00
   0.66000000E+00           0.67310926E+00
   0.67000000E+00           0.68192727E+00
   0.68000000E+00           0.69015405E+00
   0.69000000E+00           0.69837107E+00
   0.70000000E+00           0.70533521E+00
   0.71000000E+00           0.71257388E+00
   0.72000000E+00           0.71986612E+00
   0.73000000E+00           0.72648099E+00
   0.74000000E+00           0.73300413E+00
   0.75000000E+00           0.73902744E+00
   0.76000000E+00           0.74447405E+00
   0.77000000E+00           0.75021636E+00
   0.78000000E+00           0.75502198E+00
   0.79000000E+00           0.75954083E+00
   0.80000000E+00           0.76443041E+00
   0.81000000E+00           0.76848793E+00
   0.82000000E+00           0.77259207E+00
   0.83000000E+00           0.77635008E+00
   0.84000000E+00           0.77900380E+00
   0.85000000E+00           0.78249620E+00
   0.86000000E+00           0.78481405E+00
   0.87000000E+00           0.78740909E+00
   0.88000000E+00           0.78900231E+00
   0.89000000E+00           0.79103174E+00
   0.90000000E+00           0.79148893E+00
   0.91000000E+00           0.79332347E+00
   0.92000000E+00           0.79377752E+00
   0.93000000E+00           0.79408595E+00
   0.94000000E+00           0.79447405E+00
   0.95000000E+00           0.79459554E+00
   0.96000000E+00           0.79361521E+00
   0.97000000E+00           0.79191074E+00
   0.98000000E+00           0.79201091E+00
   0.99000000E+00           0.79093355E+00
   0.10000000E+01           0.78937372E+00
   0.10100000E+01           0.78748264E+00
   0.10200000E+01           0.78556430E+00
   0.10300000E+01           0.78350397E+00
   0.10400000E+01           0.78050496E+00
   0.10500000E+01           0.77806529E+00
   0.10600000E+01           0.77540198E+00
   0.10700000E+01           0.77110826E+00
   0.10800000E+01           0.76859008E+00
   0.10900000E+01           0.76382347E+00
   0.11000000E+01           0.75997421E+00
   0.11100000E+01           0.75681835E+00
   0.11200000E+01           0.75175884E+00
   0.11300000E+01           0.74749587E+00
   0.11400000E+01           0.74318727E+00
   0.11500000E+01           0.73819554E+00
   0.11600000E+01           0.73308000E+00
   0.11700000E+01           0.72765983E+00
   0.11800000E+01           0.72171653E+00
   0.11900000E+01           0.71647983E+00
   0.12000000E+01           0.71083835E+00
   0.12100000E+01           0.70518083E+00
   0.12200000E+01           0.69902264E+00
   0.12300000E+01           0.69274446E+00
   0.12400000E+01           0.68624545E+00
   0.12500000E+01           0.68004149E+00
   0.12600000E+01           0.67364942E+00
   0.12700000E+01           0.66680430E+00
   0.12800000E+01           0.65981521E+00
   0.12900000E+01           0.65340612E+00
   0.13000000E+01           0.64596612E+00
   0.13100000E+01           0.63921851E+00
   0.13200000E+01           0.63228264E+00
   0.13300000E+01           0.62441868E+00
   0.13400000E+01           0.61761620E+00
   0.13500000E+01           0.60984975E+00
   0.13600000E+01           0.60244512E+00
   0.13700000E+01           0.59538314E+00
   0.13800000E+01           0.58820628E+00
   0.13900000E+01           0.58011322E+00
   0.14000000E+01           0.57273570E+00
   0.14100000E+01           0.56447372E+00
   0.14200000E+01           0.55712760E+00
   0.14300000E+01           0.54931950E+00
   0.14400000E+01           0.54167950E+00
   0.14500000E+01           0.53407504E+00
   0.14600000E+01           0.52631025E+00
   0.14700000E+01           0.51838430E+00
   0.14800000E+01           0.51022826E+00
   0.14900000E+01           0.50263636E+00
   0.15000000E+01           0.49459438E+00
   0.15100000E+01           0.48726529E+00
   0.15200000E+01           0.47994298E+00
   0.15300000E+01           0.47142264E+00
   0.15400000E+01           0.46423851E+00
   0.15500000E+01           0.45625355E+00
   0.15600000E+01           0.44871471E+00
   0.15700000E+01           0.44105504E+00
   0.15800000E+01           0.43375570E+00
   0.15900000E+01           0.42558876E+00
   0.16000000E+01           0.41786479E+00
   0.16100000E+01           0.41064182E+00
   0.16200000E+01           0.40314529E+00
   0.16300000E+01           0.39615438E+00
   0.16400000E+01           0.38801769E+00
   0.16500000E+01           0.38117917E+00
   0.16600000E+01           0.37368066E+00
   0.16700000E+01           0.36641025E+00
   0.16800000E+01           0.35985967E+00
   0.16900000E+01           0.35260331E+00
   0.17000000E+01           0.34538397E+00
   0.17100000E+01           0.33823372E+00
   0.17200000E+01           0.33141802E+00
   0.17300000E+01           0.32478165E+00
   0.17400000E+01           0.31803934E+00
   0.17500000E+01           0.31160496E+00
   0.17600000E+01           0.30499207E+00
   0.17700000E+01           0.29849537E+00
   0.17800000E+01           0.29145636E+00
   0.17900000E+01           0.28580132E+00
   0.18000000E+01           0.27952678E+00
   0.18100000E+01           0.27294347E+00
   0.18200000E+01           0.26689438E+00
   0.18300000E+01           0.26100579E+00
   0.18400000E+01           0.25476132E+00
   0.18500000E+01           0.24913306E+00
   0.18600000E+01           0.24317901E+00
   0.18700000E+01           0.23735025E+00
   0.18800000E+01           0.23164364E+00
   0.18900000E+01           0.22617107E+00
   0.19000000E+01           0.22101223E+00
   0.19100000E+01           0.21519802E+00
   0.19200000E+01           0.20996645E+00
   0.19300000E+01           0.20481091E+00
   0.19400000E+01           0.19979537E+00
   0.19500000E+01           0.19436281E+00
   0.19600000E+01           0.18969074E+00
   0.19700000E+01           0.18488380E+00
   0.19800000E+01           0.17992579E+00
   0.19900000E+01           0.17564215E+00
   0.20000000E+01           0.17078314E+00
   0.20100000E+01           0.16615339E+00
   0.20200000E+01           0.16135488E+00
   0.20300000E+01           0.15701372E+00
   0.20400000E+01           0.15291686E+00
   0.20500000E+01           0.14862446E+00
   0.20600000E+01           0.14484876E+00
   0.20700000E+01           0.14070876E+00
   0.20800000E+01           0.13667851E+00
   0.20900000E+01           0.13289488E+00
   0.21000000E+01           0.12925388E+00
   0.21100000E+01           0.12538826E+00
   0.21200000E+01           0.12189686E+00
   0.21300000E+01           0.11840678E+00
   0.21400000E+01           0.11485554E+00
   0.21500000E+01           0.11140843E+00
   0.21600000E+01           0.10814512E+00
   0.21700000E+01           0.10511488E+00
   0.21800000E+01           0.10219157E+00
   0.21900000E+01           0.99127603E-01
   0.22000000E+01           0.96117355E-01
   0.22100000E+01           0.92841818E-01
   0.22200000E+01           0.90285289E-01
   0.22300000E+01           0.87534545E-01
   0.22400000E+01           0.84662479E-01
   0.22500000E+01           0.81944463E-01
   0.22600000E+01           0.79479504E-01
   0.22700000E+01           0.76978347E-01
   0.22800000E+01           0.74310083E-01
   0.22900000E+01           0.72106116E-01
   0.23000000E+01           0.69963306E-01
   0.23100000E+01           0.67502314E-01
   0.23200000E+01           0.65276529E-01
   0.23300000E+01           0.63239008E-01
   0.23400000E+01           0.61392397E-01
   0.23500000E+01           0.59265620E-01
   0.23600000E+01           0.57240165E-01
   0.23700000E+01           0.55239669E-01
   0.23800000E+01           0.53612727E-01
   0.23900000E+01           0.51601653E-01
   0.24000000E+01           0.49851901E-01
   0.24100000E+01           0.48337025E-01
   0.24200000E+01           0.46503140E-01
   0.24300000E+01           0.44891570E-01
   0.24400000E+01           0.43364463E-01
   0.24500000E+01           0.41932397E-01
   0.24600000E+01           0.40334711E-01
   0.24700000E+01           0.38916198E-01
   0.24800000E+01           0.37527438E-01
   0.24900000E+01           0.36151074E-01
   0.25000000E+01           0.34962810E-01
   0.25100000E+01           0.33566116E-01
   0.25200000E+01           0.32319835E-01
   0.25300000E+01           0.31091405E-01
   0.25400000E+01           0.30070744E-01
   0.25500000E+01           0.28930744E-01
   0.25600000E+01           0.27847769E-01
   0.25700000E+01           0.26741818E-01
   0.25800000E+01           0.25803967E-01
   0.25900000E+01           0.24767769E-01
   0.26000000E+01           0.23837686E-01
   0.26100000E+01           0.22862314E-01
   0.26200000E+01           0.21992231E-01
   0.26300000E+01           0.21189091E-01
   0.26400000E+01           0.20322149E-01
   0.26500000E+01           0.19505950E-01
   0.26600000E+01           0.18696033E-01
   0.26700000E+01           0.18034050E-01
   0.26800000E+01           0.17278347E-01
   0.26900000E+01           0.16579174E-01
   0.27000000E+01           0.15932562E-01
   0.27100000E+01           0.15208926E-01
   0.27200000E+01           0.14611570E-01
   0.27300000E+01           0.14064298E-01
   0.27400000E+01           0.13411405E-01
   0.27500000E+01           0.12852562E-01
   0.27600000E+01           0.12355372E-01
   0.27700000E+01           0.11737355E-01
   0.27800000E+01           0.11270083E-01
   0.27900000E+01           0.10726777E-01
   0.28000000E+01           0.10320165E-01
   0.28100000E+01           0.98636364E-02
   0.28200000E+01           0.94765289E-02
   0.28300000E+01           0.90142149E-02
   0.28400000E+01           0.85861157E-02
   0.28500000E+01           0.82383471E-02
   0.28600000E+01           0.78457851E-02
   0.28700000E+01           0.74844628E-02
   0.28800000E+01           0.71975207E-02
   0.28900000E+01           0.68383471E-02
   0.29000000E+01           0.65145455E-02
   0.29100000E+01           0.62314050E-02
   0.29200000E+01           0.59183471E-02
   0.29300000E+01           0.56586777E-02
   0.29400000E+01           0.53813223E-02
   0.29500000E+01           0.51428099E-02
   0.29600000E+01           0.48573554E-02
   0.29700000E+01           0.46206612E-02
   0.29800000E+01           0.44312397E-02
   0.29900000E+01           0.42193388E-02
   0.30000000E+01           0.39753719E-02
   0.30100000E+01           0.37928926E-02
   0.30200000E+01           0.36269421E-02
   0.30300000E+01           0.33872727E-02
   0.30400000E+01           0.32482645E-02
   0.30500000E+01           0.30752066E-02
   0.30600000E+01           0.29566942E-02
   0.30700000E+01           0.27682645E-02
   0.30800000E+01           0.26206612E-02
   0.30900000E+01           0.25153719E-02
   0.31000000E+01           0.23866116E-02
   0.31100000E+01           0.22490909E-02
   0.31200000E+01           0.21373554E-02
   0.31300000E+01           0.20076033E-02
   0.31400000E+01           0.19044628E-02
   0.31500000E+01           0.17961983E-02
   0.31600000E+01           0.16910744E-02
   0.31700000E+01           0.16033058E-02
   0.31800000E+01           0.15178512E-02
   0.31900000E+01           0.14509091E-02
   0.32000000E+01           0.13689256E-02
   0.32100000E+01           0.12776860E-02
   0.32200000E+01           0.12117355E-02
   0.32300000E+01           0.11234711E-02
   0.32400000E+01           0.10512397E-02
   0.32500000E+01           0.10219835E-02
   0.32600000E+01           0.94214876E-03
   0.32700000E+01           0.87933884E-03
   0.32800000E+01           0.81471074E-03
   0.32900000E+01           0.78892562E-03
   0.33000000E+01           0.70826446E-03
   0.33100000E+01           0.66099174E-03
   0.33200000E+01           0.64099174E-03
   0.33300000E+01           0.59933884E-03
   0.33400000E+01           0.57305785E-03
   0.33500000E+01           0.52380165E-03
   0.33600000E+01           0.49950413E-03
   0.33700000E+01           0.46628099E-03
   0.33800000E+01           0.43388430E-03
   0.33900000E+01           0.38727273E-03
   0.34000000E+01           0.37272727E-03
   0.34100000E+01           0.34958678E-03
   0.34200000E+01           0.32264463E-03
   0.34300000E+01           0.31107438E-03
   0.34400000E+01           0.27603306E-03
   0.34500000E+01           0.27140496E-03
   0.34600000E+01           0.25669421E-03
   0.34700000E+01           0.22099174E-03
   0.34800000E+01           0.21173554E-03
   0.34900000E+01           0.18975207E-03
   0.35000000E+01           0.16479339E-03
   0.35100000E+01           0.16231405E-03
   0.35200000E+01           0.15239669E-03
   0.35300000E+01           0.14545455E-03
   0.35400000E+01           0.13834711E-03
   0.35500000E+01           0.12280992E-03
   0.35600000E+01           0.11074380E-03
   0.35700000E+01           0.10644628E-03
   0.35800000E+01           0.90909091E-04
   0.35900000E+01           0.86280992E-04
   0.36000000E+01           0.79504132E-04
   0.36100000E+01           0.69421488E-04
   0.36200000E+01           0.63966942E-04
   0.36300000E+01           0.63636364E-04
   0.36400000E+01           0.56859504E-04
   0.36500000E+01           0.49752066E-04
   0.36600000E+01           0.46611570E-04
   0.36700000E+01           0.42314050E-04
   0.36800000E+01           0.39504132E-04
   0.36900000E+01           0.35537190E-04
   0.37000000E+01           0.30743802E-04
   0.37100000E+01           0.32396694E-04
   0.37200000E+01           0.22314050E-04
   0.37300000E+01           0.24297521E-04
   0.37400000E+01           0.18181818E-04
   0.37500000E+01           0.14049587E-04
   0.37600000E+01           0.15206612E-04
   0.37700000E+01           0.10909091E-04
   0.37800000E+01           0.87603306E-05
   0.37900000E+01           0.95867769E-05
   0.38000000E+01           0.87603306E-05
   0.38100000E+01           0.89256198E-05
   0.38200000E+01           0.54545455E-05
   0.38300000E+01           0.54545455E-05
   0.38400000E+01           0.59504132E-05
   0.38500000E+01           0.38016529E-05
   0.38600000E+01           0.31404959E-05
   0.38700000E+01           0.29752066E-05
   0.38800000E+01           0.23140496E-05
   0.38900000E+01           0.16528926E-05
   0.39000000E+01           0.18181818E-05
   0.39100000E+01           0.66115702E-06
   0.39200000E+01           0.66115702E-06
   0.39300000E+01           0.99173554E-06
   0.39400000E+01           0.66115702E-06
   0.39500000E+01           0.16528926E-06
   0.39600000E+01           0.49586777E-06
   0.39700000E+01           0.00000000E+00
   0.39800000E+01           0.16528926E-06
   0.39900000E+01           0.00000000E+00
   0.40000000E+01           0.00000000E+00
 #T=   201.0000
  -0.40000000E+01           0.00000000E+00
  -0.39900000E+01           0.00000000E+00
  -0.39800000E+01           0.00000000E+00
  -0.39700000E+01           0.00000000E+00
  -0.39600000E+01           0.00000000E+00
  -0.39500000E+01           0.00000000E+00
  -0.39400000E+01           0.00000000E+00
  -0.39300000E+01           0.00000000E+00
  -0.39200000E+01           0.00000000E+00
  -0.39100000E+01           0.00000000E+00
  -0.39000000E+01           0.00000000E+00
  -0.38900000E+01           0.00000000E+00
  -0.38800000E+01           0.00000000E+00
  -0.38700000E+01           0.00000000E+00
  -0.38600000E+01           0.00000000E+00
  -0.38500000E+01           0.00000000E+00
  -0.38400000E+01           0.00000000E+00
  -0.38300000E+01           0.00000000E+00
  -0.38200000E+01           0.00000000E+00
  -0.38100000E+01           0.00000000E+00
  -0.38000000E+01           0.00000000E+00
  -0.37900000E+01           0.00000000E+00
  -0.37800000E+01           0.00000000E+00
  -0.37700000E+01           0.00000000E+00
  -0.37600000E+01           0.00000000E+00
  -0.37500000E+01           0.00000000E+00
  -0.37400000E+01           0.00000000E+00
  -0.37300000E+01           0.00000000E+00
  -0.37200000E+01           0.00000000E+00
  -0.37100000E+01           0.00000000E+00
  -0.37000000E+01           0.00000000E+00
  -0.36900000E+01           0.00000000E+00
  -0.36800000E+01           0.00000000E+00
  -0.36700000E+01           0.00000000E+00
  -0.36600000E+01           0.00000000E+00
  -0.36500000E+01           0.00000000E+00
  -0.36400000E+01           0.00000000E+00
  -0.36300000E+01           0.00000000E+00
  -0.36200000E+01           0.00000000E+00
  -0.36100000E+01           0.00000000E+00
  -0.36000000E+01           0.00000000E+00
  -0.35900000E+01           0.00000000E+00
  -0.35800000E+01           0.00000000E+00
  -0.35700000E+01           0.00000000E+00
  -0.35600000E+01           0.00000000E+00
  -0.35500000E+01           0.00000000E+00
  -0.35400000E+01           0.00000000E+00
  -0.35300000E+01           0.00000000E+00
  -0.35200000E+01           0.00000000E+00
  -0.35100000E+01           0.00000000E+00
  -0.35000000E+01           0.00000000E+00
  -0.34900000E+01           0.00000000E+00
  -0.34800000E+01           0.00000000E+00
  -0.34700000E+01           0.00000000E+00
  -0.34600000E+01           0.00000000E+00
  -0.34500000E+01           0.00000000E+00
  -0.34400000E+01           0.00000000E+00
  -0.34300000E+01           0.00000000E+00
  -0.34200000E+01           0.00000000E+00
  -0.34100000E+01           0.00000000E+00
  -0.34000000E+01           0.00000000E+00
  -0.33900000E+01           0.00000000E+00
  -0.33800000E+01           0.00000000E+00
  -0.33700000E+01           0.00000000E+00
  -0.33600000E+01           0.00000000E+00
  -0.33500000E+01           0.00000000E+00
  -0.33400000E+01           0.00000000E+00
  -0.33300000E+01           0.00000000E+00
  -0.33200000E+01           0.00000000E+00
  -0.33100000E+01           0.00000000E+00
  -0.33000000E+01           0.00000000E+00
  -0.32900000E+01           0.00000000E+00
  -0.32800000E+01           0.00000000E+00
  -0.32700000E+01           0.00000000E+00
  -0.32600000E+01           0.00000000E+00
  -0.32500000E+01           0.00000000E+00
  -0.32400000E+01           0.00000000E+00
  -0.32300000E+01           0.00000000E+00
  -0.32200000E+01           0.00000000E+00
  -0.32100000E+01           0.00000000E+00
  -0.32000000E+01           0.00000000E+00
  -0.31900000E+01           0.00000000E+00
  -0.31800000E+01           0.00000000E+00
  -0.31700000E+01           0.00000000E+00
  -0.31600000E+01           0.00000000E+00
  -0.31500000E+01           0.00000000E+00
  -0.31400000E+01           0.00000000E+00
  -0.31300000E+01           0.00000000E+00
  -0.31200000E+01           0.00000000E+00
  -0.31100000E+01           0.00000000E+00
  -0.31000000E+01           0.00000000E+00
  -0.30900000E+01           0.00000000E+00
  -0.30800000E+01           0.00000000E+00
  -0.30700000E+01           0.00000000E+00
  -0.30600000E+01           0.00000000E+00
  -0.30500000E+01           0.00000000E+00
  -0.30400000E+01           0.00000000E+00
  -0.30300000E+01           0.00000000E+00
  -0.30200000E+01           0.00000000E+00
  -0.30100000E+01           0.00000000E+00
  -0.30000000E+01           0.00000000E+00
  -0.29900000E+01           0.00000000E+00
  -0.29800000E+01           0.00000000E+00
  -0.29700000E+01           0.00000000E+00
  -0.29600000E+01           0.00000000E+00
  -0.29500000E+01           0.00000000E+00
  -0.29400000E+01           0.00000000E+00
  -0.29300000E+01           0.00000000E+00
  -0.29200000E+01           0.00000000E+00
  -0.29100000E+01           0.00000000E+00
  -0.29000000E+01           0.00000000E+00
  -0.28900000E+01           0.00000000E+00
  -0.28800000E+01           0.00000000E+00
  -0.28700000E+01           0.00000000E+00
  -0.28600000E+01           0.00000000E+00
  -0.28500000E+01           0.00000000E+00
  -0.28400000E+01           0.00000000E+00
  -0.28300000E+01           0.00000000E+00
  -0.28200000E+01           0.00000000E+00
  -0.28100000E+01           0.00000000E+00
  -0.28000000E+01           0.00000000E+00
  -0.27900000E+01           0.00000000E+00
  -0.27800000E+01           0.00000000E+00
  -0.27700000E+01           0.00000000E+00
  -0.27600000E+01           0.00000000E+00
  -0.27500000E+01           0.00000000E+00
  -0.27400000E+01           0.00000000E+00
  -0.27300000E+01           0.00000000E+00
  -0.27200000E+01           0.00000000E+00
  -0.27100000E+01           0.00000000E+00
  -0.27000000E+01           0.00000000E+00
  -0.26900000E+01           0.00000000E+00
  -0.26800000E+01           0.00000000E+00
  -0.26700000E+01           0.00000000E+00
  -0.26600000E+01           0.00000000E+00
  -0.26500000E+01           0.00000000E+00
  -0.26400000E+01           0.00000000E+00
  -0.26300000E+01           0.00000000E+00
  -0.26200000E+01           0.00000000E+00
  -0.26100000E+01           0.00000000E+00
  -0.26000000E+01           0.00000000E+00
  -0.25900000E+01           0.00000000E+00
  -0.25800000E+01           0.00000000E+00
  -0.25700000E+01           0.00000000E+00
  -0.25600000E+01           0.00000000E+00
  -0.25500000E+01           0.00000000E+00
  -0.25400000E+01           0.00000000E+00
  -0.25300000E+01           0.00000000E+00
  -0.25200000E+01           0.00000000E+00
  -0.25100000E+01           0.00000000E+00
  -0.25000000E+01           0.00000000E+00
  -0.24900000E+01           0.00000000E+00
  -0.24800000E+01           0.00000000E+00
  -0.24700000E+01           0.00000000E+00
  -0.24600000E+01           0.00000000E+00
  -0.24500000E+01           0.00000000E+00
  -0.24400000E+01           0.00000000E+00
  -0.24300000E+01           0.00000000E+00
  -0.24200000E+01           0.00000000E+00
  -0.24100000E+01           0.00000000E+00
  -0.24000000E+01           0.00000000E+00
  -0.23900000E+01           0.00000000E+00
  -0.23800000E+01           0.00000000E+00
  -0.23700000E+01           0.00000000E+00
  -0.23600000E+01           0.00000000E+00
  -0.23500000E+01           0.00000000E+00
  -0.23400000E+01           0.00000000E+00
  -0.23300000E+01           0.00000000E+00
  -0.23200000E+01           0.00000000E+00
  -0.23100000E+01           0.00000000E+00
  -0.23000000E+01           0.00000000E+00
  -0.22900000E+01           0.00000000E+00
  -0.22800000E+01           0.00000000E+00
  -0.22700000E+01           0.00000000E+00
  -0.22600000E+01           0.00000000E+00
  -0.22500000E+01           0.00000000E+00
  -0.22400000E+01           0.00000000E+00
  -0.22300000E+01           0.00000000E+00
  -0.22200000E+01           0.00000000E+00
  -0.22100000E+01           0.00000000E+00
  -0.22000000E+01           0.00000000E+00
  -0.21900000E+01           0.00000000E+00
  -0.21800000E+01           0.00000000E+00
  -0.21700000E+01           0.00000000E+00
  -0.21600000E+01           0.00000000E+00
  -0.21500000E+01           0.00000000E+00
  -0.21400000E+01           0.00000000E+00
  -0.21300000E+01           0.00000000E+00
  -0.21200000E+01           0.00000000E+00
  -0.21100000E+01           0.00000000E+00
  -0.21000000E+01           0.00000000E+00
  -0.20900000E+01           0.00000000E+00
  -0.20800000E+01           0.00000000E+00
  -0.20700000E+01           0.00000000E+00
  -0.20600000E+01           0.00000000E+00
  -0.20500000E+01           0.00000000E+00
  -0.20400000E+01           0.00000000E+00
  -0.20300000E+01           0.00000000E+00
  -0.20200000E+01           0.00000000E+00
  -0.20100000E+01           0.00000000E+00
  -0.20000000E+01           0.00000000E+00
  -0.19900000E+01           0.00000000E+00
  -0.19800000E+01           0.00000000E+00
  -0.19700000E+01           0.00000000E+00
  -0.19600000E+01           0.00000000E+00
  -0.19500000E+01           0.00000000E+00
  -0.19400000E+01           0.00000000E+00
  -0.19300000E+01           0.00000000E+00
  -0.19200000E+01           0.00000000E+00
  -0.19100000E+01           0.00000000E+00
  -0.19000000E+01           0.00000000E+00
  -0.18900000E+01           0.00000000E+00
  -0.18800000E+01           0.00000000E+00
  -0.18700000E+01           0.00000000E+00
  -0.18600000E+01           0.00000000E+00
  -0.18500000E+01           0.00000000E+00
  -0.18400000E+01           0.00000000E+00
  -0.18300000E+01           0.00000000E+00
  -0.18200000E+01           0.00000000E+00
  -0.18100000E+01           0.00000000E+00
  -0.18000000E+01           0.00000000E+00
  -0.17900000E+01           0.00000000E+00
  -0.17800000E+01           0.00000000E+00
  -0.17700000E+01           0.00000000E+00
  -0.17600000E+01           0.00000000E+00
  -0.17500000E+01           0.00000000E+00
  -0.17400000E+01           0.00000000E+00
  -0.17300000E+01           0.00000000E+00
  -0.17200000E+01           0.00000000E+00
  -0.17100000E+01           0.00000000E+00
  -0.17000000E+01           0.00000000E+00
  -0.16900000E+01           0.00000000E+00
  -0.16800000E+01           0.00000000E+00
  -0.16700000E+01           0.00000000E+00
  -0.16600000E+01           0.00000000E+00
  -0.16500000E+01           0.00000000E+00
  -0.16400000E+01           0.00000000E+00
  -0.16300000E+01           0.00000000E+00
  -0.16200000E+01           0.00000000E+00
  -0.16100000E+01           0.00000000E+00
  -0.16000000E+01           0.00000000E+00
  -0.15900000E+01           0.00000000E+00
  -0.15800000E+01           0.00000000E+00
  -0.15700000E+01           0.00000000E+00
  -0.15600000E+01           0.00000000E+00
  -0.15500000E+01           0.00000000E+00
  -0.15400000E+01           0.00000000E+00
  -0.15300000E+01           0.00000000E+00
  -0.15200000E+01           0.00000000E+00
  -0.15100000E+01           0.00000000E+00
  -0.15000000E+01           0.00000000E+00
  -0.14900000E+01           0.00000000E+00
  -0.14800000E+01           0.00000000E+00
  -0.14700000E+01           0.00000000E+00
  -0.14600000E+01           0.00000000E+00
  -0.14500000E+01           0.00000000E+00
  -0.14400000E+01           0.00000000E+00
  -0.14300000E+01           0.00000000E+00
  -0.14200000E+01           0.00000000E+00
  -0.14100000E+01           0.00000000E+00
  -0.14000000E+01           0.00000000E+00
  -0.13900000E+01           0.00000000E+00
  -0.13800000E+01           0.00000000E+00
  -0.13700000E+01           0.00000000E+00
  -0.13600000E+01           0.00000000E+00
  -0.13500000E+01           0.00000000E+00
  -0.13400000E+01           0.00000000E+00
  -0.13300000E+01           0.00000000E+00
  -0.13200000E+01           0.00000000E+00
  -0.13100000E+01           0.00000000E+00
  -0.13000000E+01           0.00000000E+00
  -0.12900000E+01           0.00000000E+00
  -0.12800000E+01           0.00000000E+00
  -0.12700000E+01           0.00000000E+00
  -0.12600000E+01           0.00000000E+00
  -0.12500000E+01           0.00000000E+00
  -0.12400000E+01           0.00000000E+00
  -0.12300000E+01           0.00000000E+00
  -0.12200000E+01           0.00000000E+00
  -0.12100000E+01           0.00000000E+00
  -0.12000000E+01           0.00000000E+00
  -0.11900000E+01           0.00000000E+00
  -0.11800000E+01           0.00000000E+00
  -0.11700000E+01           0.00000000E+00
  -0.11600000E+01           0.00000000E+00
  -0.11500000E+01           0.00000000E+00
  -0.11400000E+01           0.00000000E+00
  -0.11300000E+01           0.00000000E+00
  -0.11200000E+01           0.00000000E+00
  -0.11100000E+01           0.00000000E+00
  -0.11000000E+01           0.00000000E+00
  -0.10900000E+01           0.00000000E+00
  -0.10800000E+01           0.00000000E+00
  -0.10700000E+01           0.00000000E+00
  -0.10600000E+01           0.00000000E+00
  -0.10500000E+01           0.00000000E+00
  -0.10400000E+01           0.00000000E+00
  -0.10300000E+01           0.00000000E+00
  -0.10200000E+01           0.00000000E+00
  -0.10100000E+01           0.00000000E+00
  -0.10000000E+01           0.00000000E+00
  -0.99000000E+00           0.00000000E+00
  -0.98000000E+00           0.00000000E+00
  -0.97000000E+00           0.00000000E+00
  -0.96000000E+00           0.00000000E+00
  -0.95000000E+00           0.00000000E+00
  -0.94000000E+00           0.00000000E+00
  -0.93000000E+00           0.00000000E+00
  -0.92000000E+00           0.00000000E+00
  -0.91000000E+00           0.00000000E+00
  -0.90000000E+00           0.00000000E+00
  -0.89000000E+00           0.00000000E+00
  -0.88000000E+00           0.00000000E+00
  -0.87000000E+00           0.00000000E+00
  -0.86000000E+00           0.00000000E+00
  -0.85000000E+00           0.00000000E+00
  -0.84000000E+00           0.00000000E+00
  -0.83000000E+00           0.00000000E+00
  -0.82000000E+00           0.00000000E+00
  -0.81000000E+00           0.00000000E+00
  -0.80000000E+00           0.00000000E+00
  -0.79000000E+00           0.00000000E+00
  -0.78000000E+00           0.00000000E+00
  -0.77000000E+00           0.00000000E+00
  -0.76000000E+00           0.00000000E+00
  -0.75000000E+00           0.00000000E+00
  -0.74000000E+00           0.00000000E+00
  -0.73000000E+00           0.00000000E+00
  -0.72000000E+00           0.00000000E+00
  -0.71000000E+00           0.00000000E+00
  -0.70000000E+00           0.00000000E+00
  -0.69000000E+00           0.00000000E+00
  -0.68000000E+00           0.00000000E+00
  -0.67000000E+00           0.00000000E+00
  -0.66000000E+00           0.00000000E+00
  -0.65000000E+00           0.00000000E+00
  -0.64000000E+00           0.00000000E+00
  -0.63000000E+00           0.00000000E+00
  -0.62000000E+00           0.00000000E+00
  -0.61000000E+00           0.00000000E+00
  -0.60000000E+00           0.00000000E+00
  -0.59000000E+00           0.00000000E+00
  -0.58000000E+00           0.00000000E+00
  -0.57000000E+00           0.00000000E+00
  -0.56000000E+00           0.00000000E+00
  -0.55000000E+00           0.00000000E+00
  -0.54000000E+00           0.00000000E+00
  -0.53000000E+00           0.00000000E+00
  -0.52000000E+00           0.00000000E+00
  -0.51000000E+00           0.00000000E+00
  -0.50000000E+00           0.00000000E+00
  -0.49000000E+00           0.00000000E+00
  -0.48000000E+00           0.00000000E+00
  -0.47000000E+00           0.00000000E+00
  -0.46000000E+00           0.00000000E+00
  -0.45000000E+00           0.00000000E+00
  -0.44000000E+00           0.00000000E+00
  -0.43000000E+00           0.00000000E+00
  -0.42000000E+00           0.00000000E+00
  -0.41000000E+00           0.00000000E+00
  -0.40000000E+00           0.00000000E+00
  -0.39000000E+00           0.00000000E+00
  -0.38000000E+00           0.00000000E+00
  -0.37000000E+00           0.00000000E+00
  -0.36000000E+00           0.00000000E+00
  -0.35000000E+00           0.00000000E+00
  -0.34000000E+00           0.00000000E+00
  -0.33000000E+00           0.00000000E+00
  -0.32000000E+00           0.00000000E+00
  -0.31000000E+00           0.00000000E+00
  -0.30000000E+00           0.00000000E+00
  -0.29000000E+00           0.00000000E+00
  -0.28000000E+00           0.00000000E+00
  -0.27000000E+00           0.00000000E+00
  -0.26000000E+00           0.00000000E+00
  -0.25000000E+00           0.00000000E+00
  -0.24000000E+00           0.00000000E+00
  -0.23000000E+00           0.00000000E+00
  -0.22000000E+00           0.00000000E+00
  -0.21000000E+00           0.00000000E+00
  -0.20000000E+00           0.00000000E+00
  -0.19000000E+00           0.00000000E+00
  -0.18000000E+00           0.00000000E+00
  -0.17000000E+00           0.00000000E+00
  -0.16000000E+00           0.00000000E+00
  -0.15000000E+00           0.00000000E+00
  -0.14000000E+00           0.00000000E+00
  -0.13000000E+00           0.00000000E+00
  -0.12000000E+00           0.00000000E+00
  -0.11000000E+00           0.00000000E+00
  -0.10000000E+00           0.00000000E+00
  -0.90000000E-01           0.00000000E+00
  -0.80000000E-01           0.00000000E+00
  -0.70000000E-01           0.00000000E+00
  -0.60000000E-01           0.00000000E+00
  -0.50000000E-01           0.00000000E+00
  -0.40000000E-01           0.00000000E+00
  -0.30000000E-01           0.00000000E+00
  -0.20000000E-01           0.00000000E+00
  -0.10000000E-01           0.00000000E+00
   0.00000000E+00           0.17685950E-04
   0.10000000E-01           0.39785124E-03
   0.20000000E-01           0.14537190E-02
   0.30000000E-01           0.31657851E-02
   0.40000000E-01           0.55998347E-02
   0.50000000E-01           0.87500826E-02
   0.60000000E-01           0.12395041E-01
   0.70000000E-01           0.16788099E-01
   0.80000000E-01           0.21629752E-01
   0.90000000E-01           0.27122149E-01
   0.10000000E+00           0.33193058E-01
   0.11000000E+00           0.39608264E-01
   0.12000000E+00           0.46962645E-01
   0.13000000E+00           0.54305950E-01
   0.14000000E+00           0.62307769E-01
   0.15000000E+00           0.70642314E-01
   0.16000000E+00           0.79725455E-01
   0.17000000E+00           0.89031901E-01
   0.18000000E+00           0.98194711E-01
   0.19000000E+00           0.10843240E+00
   0.20000000E+00           0.11901025E+00
   0.21000000E+00           0.12948496E+00
   0.22000000E+00           0.14083107E+00
   0.23000000E+00           0.15201240E+00
   0.24000000E+00           0.16335025E+00
   0.25000000E+00           0.17496231E+00
   0.26000000E+00           0.18708942E+00
   0.27000000E+00           0.19925983E+00
   0.28000000E+00           0.21202727E+00
   0.29000000E+00           0.22437769E+00
   0.30000000E+00           0.23727521E+00
   0.31000000E+00           0.25025273E+00
   0.32000000E+00           0.26326992E+00
   0.33000000E+00           0.27592744E+00
   0.34000000E+00           0.28936661E+00
   0.35000000E+00           0.30217917E+00
   0.36000000E+00           0.31635653E+00
   0.37000000E+00           0.32892810E+00
   0.38000000E+00           0.34230116E+00
   0.39000000E+00           0.35574595E+00
   0.40000000E+00           0.36897240E+00
   0.41000000E+00           0.38267736E+00
   0.42000000E+00           0.39598413E+00
   0.43000000E+00           0.40864132E+00
   0.44000000E+00           0.42223405E+00
   0.45000000E+00           0.43487388E+00
   0.46000000E+00           0.44830397E+00
   0.47000000E+00           0.46104397E+00
   0.48000000E+00           0.47354975E+00
   0.49000000E+00           0.48625306E+00
   0.50000000E+00           0.49774496E+00
   0.51000000E+00           0.51076116E+00
   0.52000000E+00           0.52320017E+00
   0.53000000E+00           0.53480810E+00
   0.54000000E+00           0.54599207E+00
   0.55000000E+00           0.55775405E+00
   0.56000000E+00           0.56859471E+00
   0.57000000E+00           0.58031769E+00
   0.58000000E+00           0.59081570E+00
   0.59000000E+00           0.60167421E+00
   0.60000000E+00           0.61221372E+00
   0.61000000E+00           0.62203058E+00
   0.62000000E+00           0.63196529E+00
   0.63000000E+00           0.64289950E+00
   0.64000000E+00           0.65176975E+00
   0.65000000E+00           0.66023967E+00
   0.66000000E+00           0.66888512E+00
   0.67000000E+00           0.67762050E+00
   0.68000000E+00           0.68572810E+00
   0.69000000E+00           0.69353091E+00
   0.70000000E+00           0.70105901E+00
   0.71000000E+00           0.70869140E+00
   0.72000000E+00           0.71616562E+00
   0.73000000E+00           0.72283851E+00
   0.74000000E+00           0.72865818E+00
   0.75000000E+00           0.73435107E+00
   0.76000000E+00           0.74096215E+00
   0.77000000E+00           0.74670826E+00
   0.78000000E+00           0.75088347E+00
   0.79000000E+00           0.75640992E+00
   0.80000000E+00           0.76095025E+00
   0.81000000E+00           0.76564678E+00
   0.82000000E+00           0.76861438E+00
   0.83000000E+00           0.77238793E+00
   0.84000000E+00           0.77598413E+00
   0.85000000E+00           0.77845207E+00
   0.86000000E+00           0.78158744E+00
   0.87000000E+00           0.78334512E+00
   0.88000000E+00           0.78507157E+00
   0.89000000E+00           0.78733785E+00
   0.90000000E+00           0.78951802E+00
   0.91000000E+00           0.79032165E+00
   0.92000000E+00           0.79026777E+00
   0.93000000E+00           0.79081835E+00
   0.94000000E+00           0.79106231E+00
   0.95000000E+00           0.79227421E+00
   0.96000000E+00           0.79090331E+00
   0.97000000E+00           0.79040711E+00
   0.98000000E+00           0.79025669E+00
   0.99000000E+00           0.78854397E+00
   0.10000000E+01           0.78661322E+00
   0.10100000E+01           0.78537388E+00
   0.10200000E+01           0.78355950E+00
   0.10300000E+01           0.78157273E+00
   0.10400000E+01           0.77951107E+00
   0.10500000E+01           0.77605736E+00
   0.10600000E+01           0.77381521E+00
   0.10700000E+01           0.76982479E+00
   0.10800000E+01           0.76664992E+00
   0.10900000E+01           0.76337405E+00
   0.11000000E+01           0.75946512E+00
   0.11100000E+01           0.75535041E+00
   0.11200000E+01           0.75127702E+00
   0.11300000E+01           0.74692132E+00
   0.11400000E+01           0.74245950E+00
   0.11500000E+01           0.73773455E+00
   0.11600000E+01           0.73280017E+00
   0.11700000E+01           0.72708777E+00
   0.11800000E+01           0.72175537E+00
   0.11900000E+01           0.71612992E+00
   0.12000000E+01           0.71074678E+00
   0.12100000E+01           0.70528149E+00
   0.12200000E+01           0.69865008E+00
   0.12300000E+01           0.69274132E+00
   0.12400000E+01           0.68704562E+00
   0.12500000E+01           0.68137504E+00
   0.12600000E+01           0.67405967E+00
   0.12700000E+01           0.66752298E+00
   0.12800000E+01           0.66119107E+00
   0.12900000E+01           0.65441074E+00
   0.13000000E+01           0.64704678E+00
   0.13100000E+01           0.64030860E+00
   0.13200000E+01           0.63330777E+00
   0.13300000E+01           0.62569306E+00
   0.13400000E+01           0.61837521E+00
   0.13500000E+01           0.61175455E+00
   0.13600000E+01           0.60415719E+00
   0.13700000E+01           0.59669702E+00
   0.13800000E+01           0.58936446E+00
   0.13900000E+01           0.58152347E+00
   0.14000000E+01           0.57444810E+00
   0.14100000E+01           0.56686711E+00
   0.14200000E+01           0.55904165E+00
   0.14300000E+01           0.55147818E+00
   0.14400000E+01           0.54366017E+00
   0.14500000E+01           0.53647339E+00
   0.14600000E+01           0.52866165E+00
   0.14700000E+01           0.52091140E+00
   0.14800000E+01           0.51307240E+00
   0.14900000E+01           0.50503074E+00
   0.15000000E+01           0.49745140E+00
   0.15100000E+01           0.48981504E+00
   0.15200000E+01           0.48164215E+00
   0.15300000E+01           0.47395174E+00
   0.15400000E+01           0.46666314E+00
   0.15500000E+01           0.45882364E+00
   0.15600000E+01           0.45145818E+00
   0.15700000E+01           0.44352413E+00
   0.15800000E+01           0.43565554E+00
   0.15900000E+01           0.42879669E+00
   0.16000000E+01           0.42120579E+00
   0.16100000E+01           0.41321322E+00
   0.16200000E+01           0.40659107E+00
   0.16300000E+01           0.39844893E+00
   0.16400000E+01           0.39138992E+00
   0.16500000E+01           0.38437273E+00
   0.16600000E+01           0.37686298E+00
   0.16700000E+01           0.36964033E+00
   0.16800000E+01           0.36214231E+00
   0.16900000E+01           0.35507240E+00
   0.17000000E+01           0.34850331E+00
   0.17100000E+01           0.34182248E+00
   0.17200000E+01           0.33478099E+00
   0.17300000E+01           0.32798843E+00
   0.17400000E+01           0.32116364E+00
   0.17500000E+01           0.31438876E+00
   0.17600000E+01           0.30765901E+00
   0.17700000E+01           0.30156727E+00
   0.17800000E+01           0.29470562E+00
   0.17900000E+01           0.28843289E+00
   0.18000000E+01           0.28207818E+00
   0.18100000E+01           0.27571455E+00
   0.18200000E+01           0.26983736E+00
   0.18300000E+01           0.26367124E+00
   0.18400000E+01           0.25773521E+00
   0.18500000E+01           0.25216264E+00
   0.18600000E+01           0.24634149E+00
   0.18700000E+01           0.24016479E+00
   0.18800000E+01           0.23447603E+00
   0.18900000E+01           0.22889537E+00
   0.19000000E+01           0.22332231E+00
   0.19100000E+01           0.21820661E+00
   0.19200000E+01           0.21264727E+00
   0.19300000E+01           0.20744463E+00
   0.19400000E+01           0.20245190E+00
   0.19500000E+01           0.19692050E+00
   0.19600000E+01           0.19209339E+00
   0.19700000E+01           0.18722215E+00
   0.19800000E+01           0.18245950E+00
   0.19900000E+01           0.17775702E+00
   0.20000000E+01           0.17294909E+00
   0.20100000E+01           0.16848380E+00
   0.20200000E+01           0.16381570E+00
   0.20300000E+01           0.15954083E+00
   0.20400000E+01           0.15551405E+00
   0.20500000E+01           0.15108264E+00
   0.20600000E+01           0.14707884E+00
   0.20700000E+01           0.14287884E+00
   0.20800000E+01           0.13914248E+00
   0.20900000E+01           0.13520231E+00
   0.21000000E+01           0.13136364E+00
   0.21100000E+01           0.12781901E+00
   0.21200000E+01           0.12407008E+00
   0.21300000E+01           0.12054083E+00
   0.21400000E+01           0.11688843E+00
   0.21500000E+01           0.11360678E+00
   0.21600000E+01           0.11074446E+00
   0.21700000E+01           0.10718165E+00
   0.21800000E+01           0.10382033E+00
   0.21900000E+01           0.10051521E+00
   0.22000000E+01           0.97781983E-01
   0.22100000E+01           0.94799339E-01
   0.22200000E+01           0.91900331E-01
   0.22300000E+01           0.89001818E-01
   0.22400000E+01           0.86291736E-01
   0.22500000E+01           0.83789091E-01
   0.22600000E+01           0.81233719E-01
   0.22700000E+01           0.78445124E-01
   0.22800000E+01           0.76208099E-01
   0.22900000E+01           0.73794545E-01
   0.23000000E+01           0.71442645E-01
   0.23100000E+01           0.69204132E-01
   0.23200000E+01           0.66783471E-01
   0.23300000E+01           0.64764132E-01
   0.23400000E+01           0.62508264E-01
   0.23500000E+01           0.60600661E-01
   0.23600000E+01           0.58572562E-01
   0.23700000E+01           0.56686777E-01
   0.23800000E+01           0.54685620E-01
   0.23900000E+01           0.52941157E-01
   0.24000000E+01           0.51068926E-01
   0.24100000E+01           0.49320661E-01
   0.24200000E+01           0.47665124E-01
   0.24300000E+01           0.46069917E-01
   0.24400000E+01           0.44370744E-01
   0.24500000E+01           0.42830744E-01
   0.24600000E+01           0.41370579E-01
   0.24700000E+01           0.39936033E-01
   0.24800000E+01           0.38554215E-01
   0.24900000E+01           0.36946116E-01
   0.25000000E+01           0.35800826E-01
   0.25100000E+01           0.34506777E-01
   0.25200000E+01           0.33094711E-01
   0.25300000E+01           0.31961653E-01
   0.25400000E+01           0.30914711E-01
   0.25500000E+01           0.29712727E-01
   0.25600000E+01           0.28679174E-01
   0.25700000E+01           0.27640000E-01
   0.25800000E+01           0.26495702E-01
   0.25900000E+01           0.25546612E-01
   0.26000000E+01           0.24506116E-01
   0.26100000E+01           0.23646777E-01
   0.26200000E+01           0.22577025E-01
   0.26300000E+01           0.21792893E-01
   0.26400000E+01           0.20836529E-01
   0.26500000E+01           0.20069752E-01
   0.26600000E+01           0.19348926E-01
   0.26700000E+01           0.18420331E-01
   0.26800000E+01           0.17883140E-01
   0.26900000E+01           0.17103140E-01
   0.27000000E+01           0.16491901E-01
   0.27100000E+01           0.15764463E-01
   0.27200000E+01           0.15041653E-01
   0.27300000E+01           0.14526116E-01
   0.27400000E+01           0.13858182E-01
   0.27500000E+01           0.13336364E-01
   0.27600000E+01           0.12760661E-01
   0.27700000E+01           0.12192231E-01
   0.27800000E+01           0.11568595E-01
   0.27900000E+01           0.11210083E-01
   0.28000000E+01           0.10789752E-01
   0.28100000E+01           0.10129752E-01
   0.28200000E+01           0.97439669E-02
   0.28300000E+01           0.93961983E-02
   0.28400000E+01           0.89474380E-02
   0.28500000E+01           0.85857851E-02
   0.28600000E+01           0.82109091E-02
   0.28700000E+01           0.77684298E-02
   0.28800000E+01           0.73649587E-02
   0.28900000E+01           0.70712397E-02
   0.29000000E+01           0.68044628E-02
   0.29100000E+01           0.64510744E-02
   0.29200000E+01           0.61444628E-02
   0.29300000E+01           0.59297521E-02
   0.29400000E+01           0.55879339E-02
   0.29500000E+01           0.53461157E-02
   0.29600000E+01           0.51000000E-02
   0.29700000E+01           0.48795041E-02
   0.29800000E+01           0.45644628E-02
   0.29900000E+01           0.43770248E-02
   0.30000000E+01           0.41280992E-02
   0.30100000E+01           0.39710744E-02
   0.30200000E+01           0.37484298E-02
   0.30300000E+01           0.35371901E-02
   0.30400000E+01           0.34011570E-02
   0.30500000E+01           0.32357025E-02
   0.30600000E+01           0.30682645E-02
   0.30700000E+01           0.29302479E-02
   0.30800000E+01           0.27690909E-02
   0.30900000E+01           0.26142149E-02
   0.31000000E+01           0.24664463E-02
   0.31100000E+01           0.23157025E-02
   0.31200000E+01           0.22350413E-02
   0.31300000E+01           0.20942149E-02
   0.31400000E+01           0.19923967E-02
   0.31500000E+01           0.18492562E-02
   0.31600000E+01           0.17588430E-02
   0.31700000E+01           0.16942149E-02
   0.31800000E+01           0.16084298E-02
   0.31900000E+01           0.15107438E-02
   0.32000000E+01           0.14228099E-02
   0.32100000E+01           0.13100826E-02
   0.32200000E+01           0.12528926E-02
   0.32300000E+01           0.11806612E-02
   0.32400000E+01           0.11033058E-02
   0.32500000E+01           0.10378512E-02
   0.32600000E+01           0.98661157E-03
   0.32700000E+01           0.94661157E-03
   0.32800000E+01           0.89074380E-03
   0.32900000E+01           0.81702479E-03
   0.33000000E+01           0.76115702E-03
   0.33100000E+01           0.73305785E-03
   0.33200000E+01           0.68314050E-03
   0.33300000E+01           0.64099174E-03
   0.33400000E+01           0.62644628E-03
   0.33500000E+01           0.57504132E-03
   0.33600000E+01           0.52082645E-03
   0.33700000E+01           0.47239669E-03
   0.33800000E+01           0.43702479E-03
   0.33900000E+01           0.42760331E-03
   0.34000000E+01           0.40396694E-03
   0.34100000E+01           0.36611570E-03
   0.34200000E+01           0.33652893E-03
   0.34300000E+01           0.32148760E-03
   0.34400000E+01           0.30694215E-03
   0.34500000E+01           0.27570248E-03
   0.34600000E+01           0.25818182E-03
   0.34700000E+01           0.23504132E-03
   0.34800000E+01           0.22099174E-03
   0.34900000E+01           0.19818182E-03
   0.35000000E+01           0.18644628E-03
   0.35100000E+01           0.17900826E-03
   0.35200000E+01           0.16446281E-03
   0.35300000E+01           0.15157025E-03
   0.35400000E+01           0.13669421E-03
   0.35500000E+01           0.13305785E-03
   0.35600000E+01           0.11619835E-03
   0.35700000E+01           0.10363636E-03
   0.35800000E+01           0.99669421E-04
   0.35900000E+01           0.88264463E-04
   0.36000000E+01           0.84958678E-04
   0.36100000E+01           0.73057851E-04
   0.36200000E+01           0.69090909E-04
   0.36300000E+01           0.60495868E-04
   0.36400000E+01           0.59338843E-04
   0.36500000E+01           0.52066116E-04
   0.36600000E+01           0.48595041E-04
   0.36700000E+01           0.46115702E-04
   0.36800000E+01           0.35867769E-04
   0.36900000E+01           0.34545455E-04
   0.37000000E+01           0.32231405E-04
   0.37100000E+01           0.28760331E-04
   0.37200000E+01           0.28264463E-04
   0.37300000E+01           0.20330579E-04
   0.37400000E+01           0.20000000E-04
   0.37500000E+01           0.14380165E-04
   0.37600000E+01           0.15537190E-04
   0.37700000E+01           0.13553719E-04
   0.37800000E+01           0.12396694E-04
   0.37900000E+01           0.97520661E-05
   0.38000000E+01           0.89256198E-05
   0.38100000E+01           0.59504132E-05
   0.38200000E+01           0.77685950E-05
   0.38300000E+01           0.69421488E-05
   0.38400000E+01           0.46280992E-05
   0.38500000E+01           0.36363636E-05
   0.38600000E+01           0.51239669E-05
   0.38700000E+01           0.42975207E-05
   0.38800000E+01           0.16528926E-05
   0.38900000E+01           0.24793388E-05
   0.39000000E+01           0.66115702E-06
   0.39100000E+01           0.18181818E-05
   0.39200000E+01           0.14876033E-05
   0.39300000E+01           0.11570248E-05
   0.39400000E+01           0.99173554E-06
   0.39500000E+01           0.00000000E+00
   0.39600000E+01           0.16528926E-06
   0.39700000E+01           0.00000000E+00
   0.39800000E+01           0.00000000E+00
   0.39900000E+01           0.00000000E+00
   0.40000000E+01           0.00000000E+00
 #T=   202.0000
  -0.40000000E+01           0.00000000E+00
  -0.39900000E+01           0.00000000E+00
  -0.39800000E+01           0.00000000E+00
  -0.39700000E+01           0.00000000E+00
  -0.39600000E+01           0.00000000E+00
  -0.39500000E+01           0.00000000E+00
  -0.39400000E+01           0.00000000E+00
  -0.39300000E+01           0.00000000E+00
  -0.39200000E+01           0.00000000E+00
  -0.39100000E+01           0.00000000E+00
  -0.39000000E+01           0.00000000E+00
  -0.38900000E+01           0.00000000E+00
  -0.38800000E+01           0.00000000E+00
  -0.38700000E+01           0.00000000E+00
  -0.38600000E+01           0.00000000E+00
  -0.38500000E+01           0.00000000E+00
  -0.38400000E+01           0.00000000E+00
  -0.38300000E+01           0.00000000E+00
  -0.38200000E+01           0.00000000E+00
  -0.38100000E+01           0.00000000E+00
  -0.38000000E+01           0.00000000E+00
  -0.37900000E+01           0.00000000E+00
  -0.37800000E+01           0.00000000E+00
  -0.37700000E+01           0.00000000E+00
  -0.37600000E+01           0.00000000E+00
  -0.37500000E+01           0.00000000E+00
  -0.37400000E+01           0.00000000E+00
  -0.37300000E+01           0.00000000E+00
  -0.37200000E+01           0.00000000E+00
  -0.37100000E+01           0.00000000E+00
  -0.37000000E+01           0.00000000E+00
  -0.36900000E+01           0.00000000E+00
  -0.36800000E+01           0.00000000E+00
  -0.36700000E+01           0.00000000E+00
  -0.36600000E+01           0.00000000E+00
  -0.36500000E+01           0.00000000E+00
  -0.36400000E+01           0.00000000E+00
  -0.36300000E+01           0.00000000E+00
  -0.36200000E+01           0.00000000E+00
  -0.36100000E+01           0.00000000E+00
  -0.36000000E+01           0.00000000E+00
  -0.35900000E+01           0.00000000E+00
  -0.35800000E+01           0.00000000E+00
  -0.35700000E+01           0.00000000E+00
  -0.35600000E+01           0.00000000E+00
  -0.35500000E+01           0.00000000E+00
  -0.35400000E+01           0.00000000E+00
  -0.35300000E+01           0.00000000E+00
  -0.35200000E+01           0.00000000E+00
  -0.35100000E+01           0.00000000E+00
  -0.35000000E+01           0.00000000E+00
  -0.34900000E+01           0.00000000E+00
  -0.34800000E+01           0.00000000E+00
  -0.34700000E+01           0.00000000E+00
  -0.34600000E+01           0.00000000E+00
  -0.34500000E+01           0.00000000E+00
  -0.34400000E+01           0.00000000E+00
  -0.34300000E+01           0.00000000E+00
  -0.34200000E+01           0.00000000E+00
  -0.34100000E+01           0.00000000E+00
  -0.34000000E+01           0.00000000E+00
  -0.33900000E+01           0.00000000E+00
  -0.33800000E+01           0.00000000E+00
  -0.33700000E+01           0.00000000E+00
  -0.33600000E+01           0.00000000E+00
  -0.33500000E+01           0.00000000E+00
  -0.33400000E+01           0.00000000E+00
  -0.33300000E+01           0.00000000E+00
  -0.33200000E+01           0.00000000E+00
  -0.33100000E+01           0.00000000E+00
  -0.33000000E+01           0.00000000E+00
  -0.32900000E+01           0.00000000E+00
  -0.32800000E+01           0.00000000E+00
  -0.32700000E+01           0.00000000E+00
  -0.32600000E+01           0.00000000E+00
  -0.32500000E+01           0.00000000E+00
  -0.32400000E+01           0.00000000E+00
  -0.32300000E+01           0.00000000E+00
  -0.32200000E+01           0.00000000E+00
  -0.32100000E+01           0.00000000E+00
  -0.32000000E+01           0.00000000E+00
  -0.31900000E+01           0.00000000E+00
  -0.31800000E+01           0.00000000E+00
  -0.31700000E+01           0.00000000E+00
  -0.31600000E+01           0.00000000E+00
  -0.31500000E+01           0.00000000E+00
  -0.31400000E+01           0.00000000E+00
  -0.31300000E+01           0.00000000E+00
  -0.31200000E+01           0.00000000E+00
  -0.31100000E+01           0.00000000E+00
  -0.31000000E+01           0.00000000E+00
  -0.30900000E+01           0.00000000E+00
  -0.30800000E+01           0.00000000E+00
  -0.30700000E+01           0.00000000E+00
  -0.30600000E+01           0.00000000E+00
  -0.30500000E+01           0.00000000E+00
  -0.30400000E+01           0.00000000E+00
  -0.30300000E+01           0.00000000E+00
  -0.30200000E+01           0.00000000E+00
  -0.30100000E+01           0.00000000E+00
  -0.30000000E+01           0.00000000E+00
  -0.29900000E+01           0.00000000E+00
  -0.29800000E+01           0.00000000E+00
  -0.29700000E+01           0.00000000E+00
  -0.29600000E+01           0.00000000E+00
  -0.29500000E+01           0.00000000E+00
  -0.29400000E+01           0.00000000E+00
  -0.29300000E+01           0.00000000E+00
  -0.29200000E+01           0.00000000E+00
  -0.29100000E+01           0.00000000E+00
  -0.29000000E+01           0.00000000E+00
  -0.28900000E+01           0.00000000E+00
  -0.28800000E+01           0.00000000E+00
  -0.28700000E+01           0.00000000E+00
  -0.28600000E+01           0.00000000E+00
  -0.28500000E+01           0.00000000E+00
  -0.28400000E+01           0.00000000E+00
  -0.28300000E+01           0.00000000E+00
  -0.28200000E+01           0.00000000E+00
  -0.28100000E+01           0.00000000E+00
  -0.28000000E+01           0.00000000E+00
  -0.27900000E+01           0.00000000E+00
  -0.27800000E+01           0.00000000E+00
  -0.27700000E+01           0.00000000E+00
  -0.27600000E+01           0.00000000E+00
  -0.27500000E+01           0.00000000E+00
  -0.27400000E+01           0.00000000E+00
  -0.27300000E+01           0.00000000E+00
  -0.27200000E+01           0.00000000E+00
  -0.27100000E+01           0.00000000E+00
  -0.27000000E+01           0.00000000E+00
  -0.26900000E+01           0.00000000E+00
  -0.26800000E+01           0.00000000E+00
  -0.26700000E+01           0.00000000E+00
  -0.26600000E+01           0.00000000E+00
  -0.26500000E+01           0.00000000E+00
  -0.26400000E+01           0.00000000E+00
  -0.26300000E+01           0.00000000E+00
  -0.26200000E+01           0.00000000E+00
  -0.26100000E+01           0.00000000E+00
  -0.26000000E+01           0.00000000E+00
  -0.25900000E+01           0.00000000E+00
  -0.25800000E+01           0.00000000E+00
  -0.25700000E+01           0.00000000E+00
  -0.25600000E+01           0.00000000E+00
  -0.25500000E+01           0.00000000E+00
  -0.25400000E+01           0.00000000E+00
  -0.25300000E+01           0.00000000E+00
  -0.25200000E+01           0.00000000E+00
  -0.25100000E+01           0.00000000E+00
  -0.25000000E+01           0.00000000E+00
  -0.24900000E+01           0.00000000E+00
  -0.24800000E+01           0.00000000E+00
  -0.24700000E+01           0.00000000E+00
  -0.24600000E+01           0.00000000E+00
  -0.24500000E+01           0.00000000E+00
  -0.24400000E+01           0.00000000E+00
  -0.24300000E+01           0.00000000E+00
  -0.24200000E+01           0.00000000E+00
  -0.24100000E+01           0.00000000E+00
  -0.24000000E+01           0.00000000E+00
  -0.23900000E+01           0.00000000E+00
  -0.23800000E+01           0.00000000E+00
  -0.23700000E+01           0.00000000E+00
  -0.23600000E+01           0.00000000E+00
  -0.23500000E+01           0.00000000E+00
  -0.23400000E+01           0.00000000E+00
  -0.23300000E+01           0.00000000E+00
  -0.23200000E+01           0.00000000E+00
  -0.23100000E+01           0.00000000E+00
  -0.23000000E+01           0.00000000E+00
  -0.22900000E+01           0.00000000E+00
  -0.22800000E+01           0.00000000E+00
  -0.22700000E+01           0.00000000E+00
  -0.22600000E+01           0.00000000E+00
  -0.22500000E+01           0.00000000E+00
  -0.22400000E+01           0.00000000E+00
  -0.22300000E+01           0.00000000E+00
  -0.22200000E+01           0.00000000E+00
  -0.22100000E+01           0.00000000E+00
  -0.22000000E+01           0.00000000E+00
  -0.21900000E+01           0.00000000E+00
  -0.21800000E+01           0.00000000E+00
  -0.21700000E+01           0.00000000E+00
  -0.21600000E+01           0.00000000E+00
  -0.21500000E+01           0.00000000E+00
  -0.21400000E+01           0.00000000E+00
  -0.21300000E+01           0.00000000E+00
  -0.21200000E+01           0.00000000E+00
  -0.21100000E+01           0.00000000E+00
  -0.21000000E+01           0.00000000E+00
  -0.20900000E+01           0.00000000E+00
  -0.20800000E+01           0.00000000E+00
  -0.20700000E+01           0.00000000E+00
  -0.20600000E+01           0.00000000E+00
  -0.20500000E+01           0.00000000E+00
  -0.20400000E+01           0.00000000E+00
  -0.20300000E+01           0.00000000E+00
  -0.20200000E+01           0.00000000E+00
  -0.20100000E+01           0.00000000E+00
  -0.20000000E+01           0.00000000E+00
  -0.19900000E+01           0.00000000E+00
  -0.19800000E+01           0.00000000E+00
  -0.19700000E+01           0.00000000E+00
  -0.19600000E+01           0.00000000E+00
  -0.19500000E+01           0.00000000E+00
  -0.19400000E+01           0.00000000E+00
  -0.19300000E+01           0.00000000E+00
  -0.19200000E+01           0.00000000E+00
  -0.19100000E+01           0.00000000E+00
  -0.19000000E+01           0.00000000E+00
  -0.18900000E+01           0.00000000E+00
  -0.18800000E+01           0.00000000E+00
  -0.18700000E+01           0.00000000E+00
  -0.18600000E+01           0.00000000E+00
  -0.18500000E+01           0.00000000E+00
  -0.18400000E+01           0.00000000E+00
  -0.18300000E+01           0.00000000E+00
  -0.18200000E+01           0.00000000E+00
  -0.18100000E+01           0.00000000E+00
  -0.18000000E+01           0.00000000E+00
  -0.17900000E+01           0.00000000E+00
  -0.17800000E+01           0.00000000E+00
  -0.17700000E+01           0.00000000E+00
  -0.17600000E+01           0.00000000E+00
  -0.17500000E+01           0.00000000E+00
  -0.17400000E+01           0.00000000E+00
  -0.17300000E+01           0.00000000E+00
  -0.17200000E+01           0.00000000E+00
  -0.17100000E+01           0.00000000E+00
  -0.17000000E+01           0.00000000E+00
  -0.16900000E+01           0.00000000E+00
  -0.16800000E+01           0.00000000E+00
  -0.16700000E+01           0.00000000E+00
  -0.16600000E+01           0.00000000E+00
  -0.16500000E+01           0.00000000E+00
  -0.16400000E+01           0.00000000E+00
  -0.16300000E+01           0.00000000E+00
  -0.16200000E+01           0.00000000E+00
  -0.16100000E+01           0.00000000E+00
  -0.16000000E+01           0.00000000E+00
  -0.15900000E+01           0.00000000E+00
  -0.15800000E+01           0.00000000E+00
  -0.15700000E+01           0.00000000E+00
  -0.15600000E+01           0.00000000E+00
  -0.15500000E+01           0.00000000E+00
  -0.15400000E+01           0.00000000E+00
  -0.15300000E+01           0.00000000E+00
  -0.15200000E+01           0.00000000E+00
  -0.15100000E+01           0.00000000E+00
  -0.15000000E+01           0.00000000E+00
  -0.14900000E+01           0.00000000E+00
[...]
  -0.64000000E+00           0.00000000E+00
  -0.63000000E+00           0.00000000E+00
  -0.62000000E+00           0.00000000E+00
  -0.61000000E+00           0.00000000E+00
  -0.60000000E+00           0.00000000E+00
  -0.59000000E+00           0.00000000E+00
  -0.58000000E+00           0.00000000E+00
  -0.57000000E+00           0.00000000E+00
  -0.56000000E+00           0.00000000E+00
  -0.55000000E+00           0.00000000E+00
  -0.54000000E+00           0.00000000E+00
  -0.53000000E+00           0.00000000E+00
  -0.52000000E+00           0.00000000E+00
  -0.51000000E+00           0.00000000E+00
  -0.50000000E+00           0.00000000E+00
  -0.49000000E+00           0.00000000E+00
  -0.48000000E+00           0.00000000E+00
  -0.47000000E+00           0.00000000E+00
  -0.46000000E+00           0.00000000E+00
  -0.45000000E+00           0.00000000E+00
  -0.44000000E+00           0.00000000E+00
  -0.43000000E+00           0.00000000E+00
  -0.42000000E+00           0.00000000E+00
  -0.41000000E+00           0.00000000E+00
  -0.40000000E+00           0.00000000E+00
  -0.39000000E+00           0.00000000E+00
  -0.38000000E+00           0.00000000E+00
  -0.37000000E+00           0.00000000E+00
  -0.36000000E+00           0.00000000E+00
  -0.35000000E+00           0.00000000E+00
  -0.34000000E+00           0.00000000E+00
  -0.33000000E+00           0.00000000E+00
  -0.32000000E+00           0.00000000E+00
  -0.31000000E+00           0.00000000E+00
  -0.30000000E+00           0.00000000E+00
  -0.29000000E+00           0.00000000E+00
  -0.28000000E+00           0.00000000E+00
  -0.27000000E+00           0.00000000E+00
  -0.26000000E+00           0.00000000E+00
  -0.25000000E+00           0.00000000E+00
  -0.24000000E+00           0.00000000E+00
  -0.23000000E+00           0.00000000E+00
  -0.22000000E+00           0.00000000E+00
  -0.21000000E+00           0.00000000E+00
  -0.20000000E+00           0.00000000E+00
  -0.19000000E+00           0.00000000E+00
  -0.18000000E+00           0.00000000E+00
  -0.17000000E+00           0.00000000E+00
  -0.16000000E+00           0.00000000E+00
  -0.15000000E+00           0.00000000E+00
  -0.14000000E+00           0.00000000E+00
  -0.13000000E+00           0.00000000E+00
  -0.12000000E+00           0.00000000E+00
  -0.11000000E+00           0.00000000E+00
  -0.10000000E+00           0.00000000E+00
  -0.90000000E-01           0.00000000E+00
  -0.80000000E-01           0.00000000E+00
  -0.70000000E-01           0.00000000E+00
  -0.60000000E-01           0.00000000E+00
  -0.50000000E-01           0.00000000E+00
  -0.40000000E-01           0.00000000E+00
  -0.30000000E-01           0.00000000E+00
  -0.20000000E-01           0.00000000E+00
  -0.10000000E-01           0.00000000E+00
   0.00000000E+00           0.54545455E-05
   0.10000000E-01           0.16512397E-03
   0.20000000E-01           0.63983471E-03
   0.30000000E-01           0.14132231E-02
   0.40000000E-01           0.24557025E-02
   0.50000000E-01           0.38193388E-02
   0.60000000E-01           0.54366942E-02
   0.70000000E-01           0.73877686E-02
   0.80000000E-01           0.95814876E-02
   0.90000000E-01           0.12017521E-01
   0.10000000E+00           0.14757025E-01
   0.11000000E+00           0.17701653E-01
   0.12000000E+00           0.21012397E-01
   0.13000000E+00           0.24459504E-01
   0.14000000E+00           0.28076198E-01
   0.15000000E+00           0.31933554E-01
   0.16000000E+00           0.36112727E-01
   0.17000000E+00           0.40612893E-01
   0.18000000E+00           0.44938017E-01
   0.19000000E+00           0.49951405E-01
   0.20000000E+00           0.54595207E-01
   0.21000000E+00           0.59906446E-01
   0.22000000E+00           0.65263306E-01
   0.23000000E+00           0.70661157E-01
   0.24000000E+00           0.76360331E-01
   0.25000000E+00           0.82097521E-01
   0.26000000E+00           0.88253058E-01
   0.27000000E+00           0.94141983E-01
   0.28000000E+00           0.10042281E+00
   0.29000000E+00           0.10656298E+00
   0.30000000E+00           0.11348463E+00
   0.31000000E+00           0.11999570E+00
   0.32000000E+00           0.12663174E+00
   0.33000000E+00           0.13388512E+00
   0.34000000E+00           0.14062744E+00
   0.35000000E+00           0.14759950E+00
   0.36000000E+00           0.15511868E+00
   0.37000000E+00           0.16205983E+00
   0.38000000E+00           0.16944264E+00
   0.39000000E+00           0.17695587E+00
   0.40000000E+00           0.18492083E+00
   0.41000000E+00           0.19218198E+00
   0.42000000E+00           0.19912364E+00
   0.43000000E+00           0.20744959E+00
   0.44000000E+00           0.21505851E+00
   0.45000000E+00           0.22275107E+00
   0.46000000E+00           0.23028711E+00
   0.47000000E+00           0.23819091E+00
   0.48000000E+00           0.24635669E+00
   0.49000000E+00           0.25411983E+00
   0.50000000E+00           0.26179256E+00
   0.51000000E+00           0.26971719E+00
   0.52000000E+00           0.27768231E+00
   0.53000000E+00           0.28573256E+00
   0.54000000E+00           0.29348099E+00
   0.55000000E+00           0.30101074E+00
   0.56000000E+00           0.30935240E+00
   0.57000000E+00           0.31690893E+00
   0.58000000E+00           0.32479041E+00
   0.59000000E+00           0.33241868E+00
   0.60000000E+00           0.33988926E+00
   0.61000000E+00           0.34777702E+00
   0.62000000E+00           0.35538331E+00
   0.63000000E+00           0.36314876E+00
   0.64000000E+00           0.37103107E+00
   0.65000000E+00           0.37798992E+00
   0.66000000E+00           0.38560909E+00
   0.67000000E+00           0.39307339E+00
   0.68000000E+00           0.40040496E+00
   0.69000000E+00           0.40732661E+00
   0.70000000E+00           0.41486430E+00
   0.71000000E+00           0.42244149E+00
   0.72000000E+00           0.42860826E+00
   0.73000000E+00           0.43599769E+00
   0.74000000E+00           0.44250231E+00
   0.75000000E+00           0.44914446E+00
   0.76000000E+00           0.45658628E+00
   0.77000000E+00           0.46271091E+00
   0.78000000E+00           0.46895058E+00
   0.79000000E+00           0.47479455E+00
   0.80000000E+00           0.48121967E+00
   0.81000000E+00           0.48758017E+00
   0.82000000E+00           0.49408975E+00
   0.83000000E+00           0.49930612E+00
   0.84000000E+00           0.50554860E+00
   0.85000000E+00           0.51107967E+00
   0.86000000E+00           0.51646149E+00
   0.87000000E+00           0.52253934E+00
   0.88000000E+00           0.52757785E+00
   0.89000000E+00           0.53246975E+00
   0.90000000E+00           0.53793967E+00
   0.91000000E+00           0.54299504E+00
   0.92000000E+00           0.54679983E+00
   0.93000000E+00           0.55250182E+00
   0.94000000E+00           0.55706033E+00
   0.95000000E+00           0.56192298E+00
   0.96000000E+00           0.56534198E+00
   0.97000000E+00           0.57007074E+00
   0.98000000E+00           0.57455190E+00
   0.99000000E+00           0.57803091E+00
   0.10000000E+01           0.58158860E+00
   0.10100000E+01           0.58487190E+00
   0.10200000E+01           0.58835355E+00
   0.10300000E+01           0.59196165E+00
   0.10400000E+01           0.59548926E+00
   0.10500000E+01           0.59915372E+00
   0.10600000E+01           0.60104810E+00
   0.10700000E+01           0.60346992E+00
   0.10800000E+01           0.60650645E+00
   0.10900000E+01           0.60926496E+00
   0.11000000E+01           0.61132909E+00
   0.11100000E+01           0.61389008E+00
   0.11200000E+01           0.61574298E+00
   0.11300000E+01           0.61773719E+00
   0.11400000E+01           0.61931818E+00
   0.11500000E+01           0.62136430E+00
   0.11600000E+01           0.62201256E+00
   0.11700000E+01           0.62418298E+00
   0.11800000E+01           0.62493835E+00
   0.11900000E+01           0.62606579E+00
   0.12000000E+01           0.62699570E+00
   0.12100000E+01           0.62894248E+00
   0.12200000E+01           0.62851471E+00
   0.12300000E+01           0.62947785E+00
   0.12400000E+01           0.62999504E+00
   0.12500000E+01           0.63010579E+00
   0.12600000E+01           0.63031983E+00
   0.12700000E+01           0.63004149E+00
   0.12800000E+01           0.63008992E+00
   0.12900000E+01           0.62970744E+00
   0.13000000E+01           0.62920579E+00
   0.13100000E+01           0.62919256E+00
   0.13200000E+01           0.62823339E+00
   0.13300000E+01           0.62752860E+00
   0.13400000E+01           0.62663091E+00
   0.13500000E+01           0.62566413E+00
   0.13600000E+01           0.62454463E+00
   0.13700000E+01           0.62311041E+00
   0.13800000E+01           0.62171256E+00
   0.13900000E+01           0.62031388E+00
   0.14000000E+01           0.61871058E+00
   0.14100000E+01           0.61713636E+00
   0.14200000E+01           0.61519769E+00
   0.14300000E+01           0.61268843E+00
   0.14400000E+01           0.61105190E+00
   0.14500000E+01           0.60893686E+00
   0.14600000E+01           0.60605174E+00
   0.14700000E+01           0.60419438E+00
   0.14800000E+01           0.60145636E+00
   0.14900000E+01           0.59860446E+00
   0.15000000E+01           0.59599901E+00
   0.15100000E+01           0.59386446E+00
   0.15200000E+01           0.59059587E+00
   0.15300000E+01           0.58750777E+00
   0.15400000E+01           0.58446893E+00
   0.15500000E+01           0.58126744E+00
   0.15600000E+01           0.57758264E+00
   0.15700000E+01           0.57430595E+00
   0.15800000E+01           0.57038975E+00
   0.15900000E+01           0.56751686E+00
   0.16000000E+01           0.56390793E+00
   0.16100000E+01           0.55996893E+00
   0.16200000E+01           0.55581091E+00
   0.16300000E+01           0.55232579E+00
   0.16400000E+01           0.54897372E+00
   0.16500000E+01           0.54431851E+00
   0.16600000E+01           0.54024264E+00
   0.16700000E+01           0.53623802E+00
   0.16800000E+01           0.53187041E+00
   0.16900000E+01           0.52734628E+00
   0.17000000E+01           0.52370215E+00
   0.17100000E+01           0.51859488E+00
   0.17200000E+01           0.51434347E+00
   0.17300000E+01           0.51009719E+00
   0.17400000E+01           0.50451802E+00
   0.17500000E+01           0.50019719E+00
   0.17600000E+01           0.49566099E+00
   0.17700000E+01           0.49089752E+00
   0.17800000E+01           0.48548595E+00
   0.17900000E+01           0.48108694E+00
   0.18000000E+01           0.47587157E+00
   0.18100000E+01           0.47083884E+00
   0.18200000E+01           0.46607372E+00
   0.18300000E+01           0.46076810E+00
   0.18400000E+01           0.45550165E+00
   0.18500000E+01           0.45036810E+00
   0.18600000E+01           0.44533554E+00
   0.18700000E+01           0.44001917E+00
   0.18800000E+01           0.43444562E+00
   0.18900000E+01           0.42962149E+00
   0.19000000E+01           0.42373570E+00
   0.19100000E+01           0.41858248E+00
   0.19200000E+01           0.41348512E+00
   0.19300000E+01           0.40795686E+00
   0.19400000E+01           0.40222264E+00
   0.19500000E+01           0.39684083E+00
   0.19600000E+01           0.39124083E+00
   0.19700000E+01           0.38571008E+00
   0.19800000E+01           0.37994496E+00
   0.19900000E+01           0.37463686E+00
   0.20000000E+01           0.36843719E+00
   0.20100000E+01           0.36322198E+00
   0.20200000E+01           0.35784628E+00
   0.20300000E+01           0.35275421E+00
   0.20400000E+01           0.34660893E+00
   0.20500000E+01           0.34122314E+00
   0.20600000E+01           0.33632727E+00
   0.20700000E+01           0.33053074E+00
   0.20800000E+01           0.32526264E+00
   0.20900000E+01           0.32048182E+00
   0.21000000E+01           0.31490562E+00
   0.21100000E+01           0.30952678E+00
   0.21200000E+01           0.30426132E+00
   0.21300000E+01           0.29934149E+00
   0.21400000E+01           0.29457471E+00
   0.21500000E+01           0.28953421E+00
   0.21600000E+01           0.28482050E+00
   0.21700000E+01           0.27958595E+00
   0.21800000E+01           0.27479339E+00
   0.21900000E+01           0.27042661E+00
   0.22000000E+01           0.26558264E+00
   0.22100000E+01           0.26032893E+00
   0.22200000E+01           0.25585405E+00
   0.22300000E+01           0.25143587E+00
   0.22400000E+01           0.24675802E+00
   0.22500000E+01           0.24201455E+00
   0.22600000E+01           0.23782413E+00
   0.22700000E+01           0.23341157E+00
   0.22800000E+01           0.22931983E+00
   0.22900000E+01           0.22511868E+00
   0.23000000E+01           0.22074000E+00
   0.23100000E+01           0.21681570E+00
   0.23200000E+01           0.21254248E+00
   0.23300000E+01           0.20820050E+00
   0.23400000E+01           0.20405372E+00
   0.23500000E+01           0.20011868E+00
   0.23600000E+01           0.19642942E+00
   0.23700000E+01           0.19230364E+00
   0.23800000E+01           0.18849388E+00
   0.23900000E+01           0.18471719E+00
   0.24000000E+01           0.18089934E+00
   0.24100000E+01           0.17733273E+00
   0.24200000E+01           0.17374562E+00
   0.24300000E+01           0.17020760E+00
   0.24400000E+01           0.16662231E+00
   0.24500000E+01           0.16296711E+00
   0.24600000E+01           0.15943818E+00
   0.24700000E+01           0.15635835E+00
   0.24800000E+01           0.15303868E+00
   0.24900000E+01           0.14953273E+00
   0.25000000E+01           0.14631488E+00
   0.25100000E+01           0.14281851E+00
   0.25200000E+01           0.13991372E+00
   0.25300000E+01           0.13710198E+00
   0.25400000E+01           0.13391537E+00
   0.25500000E+01           0.13073736E+00
   0.25600000E+01           0.12788860E+00
   0.25700000E+01           0.12502331E+00
   0.25800000E+01           0.12206876E+00
   0.25900000E+01           0.11920182E+00
   0.26000000E+01           0.11635421E+00
   0.26100000E+01           0.11378165E+00
   0.26200000E+01           0.11101686E+00
   0.26300000E+01           0.10862430E+00
   0.26400000E+01           0.10573388E+00
   0.26500000E+01           0.10316893E+00
   0.26600000E+01           0.10061157E+00
   0.26700000E+01           0.98482314E-01
   0.26800000E+01           0.95940331E-01
   0.26900000E+01           0.93457851E-01
   0.27000000E+01           0.91111901E-01
   0.27100000E+01           0.88804628E-01
   0.27200000E+01           0.86658017E-01
   0.27300000E+01           0.84389587E-01
   0.27400000E+01           0.82328099E-01
   0.27500000E+01           0.80193884E-01
   0.27600000E+01           0.78133884E-01
   0.27700000E+01           0.75855372E-01
   0.27800000E+01           0.73682810E-01
   0.27900000E+01           0.72177521E-01
   0.28000000E+01           0.69868264E-01
   0.28100000E+01           0.68215372E-01
   0.28200000E+01           0.66387107E-01
   0.28300000E+01           0.64258512E-01
   0.28400000E+01           0.62683306E-01
   0.28500000E+01           0.60711901E-01
   0.28600000E+01           0.59429917E-01
   0.28700000E+01           0.57596694E-01
   0.28800000E+01           0.55907273E-01
   0.28900000E+01           0.54282810E-01
   0.29000000E+01           0.52820992E-01
   0.29100000E+01           0.51352231E-01
   0.29200000E+01           0.49702975E-01
   0.29300000E+01           0.48274380E-01
   0.29400000E+01           0.46779835E-01
   0.29500000E+01           0.45364959E-01
   0.29600000E+01           0.44009587E-01
   0.29700000E+01           0.42610413E-01
   0.29800000E+01           0.41356529E-01
   0.29900000E+01           0.39991901E-01
   0.30000000E+01           0.39018347E-01
   0.30100000E+01           0.37667934E-01
   0.30200000E+01           0.36506777E-01
   0.30300000E+01           0.35213388E-01
   0.30400000E+01           0.34079339E-01
   0.30500000E+01           0.32959174E-01
   0.30600000E+01           0.31850413E-01
   0.30700000E+01           0.30894380E-01
   0.30800000E+01           0.29942149E-01
   0.30900000E+01           0.28784959E-01
   0.31000000E+01           0.27898843E-01
   0.31100000E+01           0.26993554E-01
   0.31200000E+01           0.26002645E-01
   0.31300000E+01           0.25025124E-01
   0.31400000E+01           0.24244463E-01
   0.31500000E+01           0.23299008E-01
   0.31600000E+01           0.22454711E-01
   0.31700000E+01           0.21681157E-01
   0.31800000E+01           0.20891405E-01
   0.31900000E+01           0.20176198E-01
   0.32000000E+01           0.19403140E-01
   0.32100000E+01           0.18786281E-01
   0.32200000E+01           0.17900496E-01
   0.32300000E+01           0.17307603E-01
   0.32400000E+01           0.16638017E-01
   0.32500000E+01           0.15989917E-01
   0.32600000E+01           0.15361488E-01
   0.32700000E+01           0.14809917E-01
   0.32800000E+01           0.14144132E-01
   0.32900000E+01           0.13542810E-01
   0.33000000E+01           0.13088760E-01
   0.33100000E+01           0.12440000E-01
   0.33200000E+01           0.11975041E-01
   0.33300000E+01           0.11470909E-01
   0.33400000E+01           0.10976033E-01
   0.33500000E+01           0.10521488E-01
   0.33600000E+01           0.10082975E-01
   0.33700000E+01           0.96573554E-02
   0.33800000E+01           0.91555372E-02
   0.33900000E+01           0.87614876E-02
   0.34000000E+01           0.83662810E-02
   0.34100000E+01           0.79302479E-02
   0.34200000E+01           0.75290909E-02
   0.34300000E+01           0.71852893E-02
   0.34400000E+01           0.68441322E-02
   0.34500000E+01           0.65236364E-02
   0.34600000E+01           0.61973554E-02
   0.34700000E+01           0.58646281E-02
   0.34800000E+01           0.56457851E-02
   0.34900000E+01           0.53580165E-02
   0.35000000E+01           0.50198347E-02
   0.35100000E+01           0.48274380E-02
   0.35200000E+01           0.45056198E-02
   0.35300000E+01           0.42226446E-02
   0.35400000E+01           0.40307438E-02
   0.35500000E+01           0.37761983E-02
   0.35600000E+01           0.35887603E-02
   0.35700000E+01           0.33497521E-02
   0.35800000E+01           0.31290909E-02
   0.35900000E+01           0.29611570E-02
   0.36000000E+01           0.27818182E-02
   0.36100000E+01           0.26304132E-02
   0.36200000E+01           0.24685950E-02
   0.36300000E+01           0.22667769E-02
   0.36400000E+01           0.21147107E-02
   0.36500000E+01           0.19557025E-02
   0.36600000E+01           0.18680992E-02
   0.36700000E+01           0.17062810E-02
   0.36800000E+01           0.16052893E-02
   0.36900000E+01           0.14545455E-02
   0.37000000E+01           0.13533884E-02
   0.37100000E+01           0.12552066E-02
   0.37200000E+01           0.11490909E-02
   0.37300000E+01           0.10603306E-02
   0.37400000E+01           0.95966942E-03
   0.37500000E+01           0.87305785E-03
   0.37600000E+01           0.77702479E-03
   0.37700000E+01           0.71355372E-03
   0.37800000E+01           0.64495868E-03
   0.37900000E+01           0.57652893E-03
   0.38000000E+01           0.50826446E-03
   0.38100000E+01           0.46793388E-03
   0.38200000E+01           0.40826446E-03
   0.38300000E+01           0.35801653E-03
   0.38400000E+01           0.31438017E-03
   0.38500000E+01           0.26132231E-03
   0.38600000E+01           0.22909091E-03
   0.38700000E+01           0.19090909E-03
   0.38800000E+01           0.16396694E-03
   0.38900000E+01           0.13239669E-03
   0.39000000E+01           0.10694215E-03
   0.39100000E+01           0.90578512E-04
   0.39200000E+01           0.66280992E-04
   0.39300000E+01           0.55041322E-04
   0.39400000E+01           0.34710744E-04
   0.39500000E+01           0.26776860E-04
   0.39600000E+01           0.13057851E-04
   0.39700000E+01           0.80991736E-05
   0.39800000E+01           0.31404959E-05
   0.39900000E+01           0.99173554E-06
   0.40000000E+01           0.00000000E+00
