 #written on  3Dec2024 at 13:34:05 
 #----------------- MONTECARLO -------------------#
 #        M                      P(M)             #
 #------------------------------------------------#
 #T=     5.0000
  -0.60000000E+01           0.00000000E+00
  -0.59900000E+01           0.00000000E+00
  -0.59800000E+01           0.00000000E+00
  -0.59700000E+01           0.00000000E+00
  -0.59600000E+01           0.00000000E+00
  -0.59500000E+01           0.00000000E+00
  -0.59400000E+01           0.00000000E+00
  -0.59300000E+01           0.00000000E+00
  -0.59200000E+01           0.00000000E+00
  -0.59100000E+01           0.00000000E+00
  -0.59000000E+01           0.00000000E+00
  -0.58900000E+01           0.00000000E+00
  -0.58800000E+01           0.00000000E+00
  -0.58700000E+01           0.00000000E+00
  -0.58600000E+01           0.00000000E+00
  -0.58500000E+01           0.00000000E+00
  -0.58400000E+01           0.00000000E+00
  -0.58300000E+01           0.00000000E+00
  -0.58200000E+01           0.00000000E+00
  -0.58100000E+01           0.00000000E+00
  -0.58000000E+01           0.00000000E+00
  -0.57900000E+01           0.00000000E+00
  -0.57800000E+01           0.00000000E+00
  -0.57700000E+01           0.00000000E+00
  -0.57600000E+01           0.00000000E+00
  -0.57500000E+01           0.00000000E+00
  -0.57400000E+01           0.00000000E+00
  -0.57300000E+01           0.00000000E+00
  -0.57200000E+01           0.00000000E+00
  -0.57100000E+01           0.00000000E+00
  -0.57000000E+01           0.00000000E+00
  -0.56900000E+01           0.00000000E+00
  -0.56800000E+01           0.00000000E+00
  -0.56700000E+01           0.00000000E+00
  -0.56600000E+01           0.00000000E+00
  -0.56500000E+01           0.00000000E+00
  -0.56400000E+01           0.00000000E+00
  -0.56300000E+01           0.00000000E+00
  -0.56200000E+01           0.00000000E+00
  -0.56100000E+01           0.00000000E+00
  -0.56000000E+01           0.00000000E+00
  -0.55900000E+01           0.00000000E+00
  -0.55800000E+01           0.00000000E+00
  -0.55700000E+01           0.00000000E+00
  -0.55600000E+01           0.00000000E+00
  -0.55500000E+01           0.00000000E+00
  -0.55400000E+01           0.00000000E+00
  -0.55300000E+01           0.00000000E+00
  -0.55200000E+01           0.00000000E+00
  -0.55100000E+01           0.00000000E+00
  -0.55000000E+01           0.00000000E+00
  -0.54900000E+01           0.00000000E+00
  -0.54800000E+01           0.00000000E+00
  -0.54700000E+01           0.00000000E+00
  -0.54600000E+01           0.00000000E+00
  -0.54500000E+01           0.00000000E+00
  -0.54400000E+01           0.00000000E+00
  -0.54300000E+01           0.00000000E+00
  -0.54200000E+01           0.00000000E+00
  -0.54100000E+01           0.00000000E+00
  -0.54000000E+01           0.00000000E+00
  -0.53900000E+01           0.00000000E+00
  -0.53800000E+01           0.00000000E+00
  -0.53700000E+01           0.00000000E+00
  -0.53600000E+01           0.00000000E+00
  -0.53500000E+01           0.00000000E+00
  -0.53400000E+01           0.00000000E+00
  -0.53300000E+01           0.00000000E+00
  -0.53200000E+01           0.00000000E+00
  -0.53100000E+01           0.00000000E+00
  -0.53000000E+01           0.00000000E+00
  -0.52900000E+01           0.00000000E+00
  -0.52800000E+01           0.00000000E+00
  -0.52700000E+01           0.00000000E+00
  -0.52600000E+01           0.00000000E+00
  -0.52500000E+01           0.00000000E+00
  -0.52400000E+01           0.00000000E+00
  -0.52300000E+01           0.00000000E+00
  -0.52200000E+01           0.00000000E+00
  -0.52100000E+01           0.00000000E+00
  -0.52000000E+01           0.00000000E+00
  -0.51900000E+01           0.00000000E+00
  -0.51800000E+01           0.00000000E+00
  -0.51700000E+01           0.00000000E+00
  -0.51600000E+01           0.00000000E+00
  -0.51500000E+01           0.00000000E+00
  -0.51400000E+01           0.00000000E+00
  -0.51300000E+01           0.00000000E+00
  -0.51200000E+01           0.00000000E+00
  -0.51100000E+01           0.00000000E+00
  -0.51000000E+01           0.00000000E+00
  -0.50900000E+01           0.00000000E+00
  -0.50800000E+01           0.00000000E+00
  -0.50700000E+01           0.00000000E+00
  -0.50600000E+01           0.00000000E+00
  -0.50500000E+01           0.00000000E+00
  -0.50400000E+01           0.00000000E+00
  -0.50300000E+01           0.00000000E+00
  -0.50200000E+01           0.00000000E+00
  -0.50100000E+01           0.00000000E+00
  -0.50000000E+01           0.00000000E+00
  -0.49900000E+01           0.00000000E+00
  -0.49800000E+01           0.00000000E+00
  -0.49700000E+01           0.00000000E+00
  -0.49600000E+01           0.00000000E+00
  -0.49500000E+01           0.00000000E+00
  -0.49400000E+01           0.00000000E+00
  -0.49300000E+01           0.00000000E+00
  -0.49200000E+01           0.00000000E+00
  -0.49100000E+01           0.00000000E+00
  -0.49000000E+01           0.00000000E+00
  -0.48900000E+01           0.00000000E+00
  -0.48800000E+01           0.00000000E+00
  -0.48700000E+01           0.00000000E+00
  -0.48600000E+01           0.00000000E+00
  -0.48500000E+01           0.00000000E+00
  -0.48400000E+01           0.00000000E+00
  -0.48300000E+01           0.00000000E+00
  -0.48200000E+01           0.00000000E+00
  -0.48100000E+01           0.00000000E+00
  -0.48000000E+01           0.00000000E+00
  -0.47900000E+01           0.00000000E+00
  -0.47800000E+01           0.00000000E+00
  -0.47700000E+01           0.00000000E+00
  -0.47600000E+01           0.00000000E+00
  -0.47500000E+01           0.00000000E+00
  -0.47400000E+01           0.00000000E+00
  -0.47300000E+01           0.00000000E+00
  -0.47200000E+01           0.00000000E+00
  -0.47100000E+01           0.00000000E+00
  -0.47000000E+01           0.00000000E+00
  -0.46900000E+01           0.00000000E+00
  -0.46800000E+01           0.00000000E+00
  -0.46700000E+01           0.00000000E+00
  -0.46600000E+01           0.00000000E+00
  -0.46500000E+01           0.00000000E+00
  -0.46400000E+01           0.00000000E+00
  -0.46300000E+01           0.00000000E+00
  -0.46200000E+01           0.00000000E+00
  -0.46100000E+01           0.00000000E+00
  -0.46000000E+01           0.00000000E+00
  -0.45900000E+01           0.00000000E+00
  -0.45800000E+01           0.00000000E+00
  -0.45700000E+01           0.00000000E+00
  -0.45600000E+01           0.00000000E+00
  -0.45500000E+01           0.00000000E+00
  -0.45400000E+01           0.00000000E+00
  -0.45300000E+01           0.00000000E+00
  -0.45200000E+01           0.00000000E+00
  -0.45100000E+01           0.00000000E+00
  -0.45000000E+01           0.00000000E+00
  -0.44900000E+01           0.00000000E+00
  -0.44800000E+01           0.00000000E+00
  -0.44700000E+01           0.00000000E+00
  -0.44600000E+01           0.00000000E+00
  -0.44500000E+01           0.00000000E+00
  -0.44400000E+01           0.00000000E+00
  -0.44300000E+01           0.00000000E+00
  -0.44200000E+01           0.00000000E+00
  -0.44100000E+01           0.00000000E+00
  -0.44000000E+01           0.00000000E+00
  -0.43900000E+01           0.00000000E+00
  -0.43800000E+01           0.00000000E+00
  -0.43700000E+01           0.00000000E+00
  -0.43600000E+01           0.00000000E+00
  -0.43500000E+01           0.00000000E+00
  -0.43400000E+01           0.00000000E+00
  -0.43300000E+01           0.00000000E+00
  -0.43200000E+01           0.00000000E+00
  -0.43100000E+01           0.00000000E+00
  -0.43000000E+01           0.00000000E+00
  -0.42900000E+01           0.00000000E+00
  -0.42800000E+01           0.00000000E+00
  -0.42700000E+01           0.00000000E+00
  -0.42600000E+01           0.00000000E+00
  -0.42500000E+01           0.00000000E+00
  -0.42400000E+01           0.00000000E+00
  -0.42300000E+01           0.00000000E+00
  -0.42200000E+01           0.00000000E+00
  -0.42100000E+01           0.00000000E+00
  -0.42000000E+01           0.00000000E+00
  -0.41900000E+01           0.00000000E+00
  -0.41800000E+01           0.00000000E+00
  -0.41700000E+01           0.00000000E+00
  -0.41600000E+01           0.00000000E+00
  -0.41500000E+01           0.00000000E+00
  -0.41400000E+01           0.00000000E+00
  -0.41300000E+01           0.00000000E+00
  -0.41200000E+01           0.00000000E+00
  -0.41100000E+01           0.00000000E+00
  -0.41000000E+01           0.00000000E+00
  -0.40900000E+01           0.00000000E+00
  -0.40800000E+01           0.00000000E+00
  -0.40700000E+01           0.00000000E+00
  -0.40600000E+01           0.00000000E+00
  -0.40500000E+01           0.00000000E+00
  -0.40400000E+01           0.00000000E+00
  -0.40300000E+01           0.00000000E+00
  -0.40200000E+01           0.00000000E+00
  -0.40100000E+01           0.00000000E+00
  -0.40000000E+01           0.00000000E+00
  -0.39900000E+01           0.00000000E+00
  -0.39800000E+01           0.00000000E+00
  -0.39700000E+01           0.00000000E+00
  -0.39600000E+01           0.00000000E+00
  -0.39500000E+01           0.00000000E+00
  -0.39400000E+01           0.00000000E+00
  -0.39300000E+01           0.00000000E+00
  -0.39200000E+01           0.00000000E+00
  -0.39100000E+01           0.00000000E+00
  -0.39000000E+01           0.00000000E+00
  -0.38900000E+01           0.00000000E+00
  -0.38800000E+01           0.00000000E+00
  -0.38700000E+01           0.00000000E+00
  -0.38600000E+01           0.00000000E+00
  -0.38500000E+01           0.00000000E+00
  -0.38400000E+01           0.00000000E+00
  -0.38300000E+01           0.00000000E+00
  -0.38200000E+01           0.00000000E+00
  -0.38100000E+01           0.00000000E+00
  -0.38000000E+01           0.00000000E+00
  -0.37900000E+01           0.00000000E+00
  -0.37800000E+01           0.00000000E+00
  -0.37700000E+01           0.00000000E+00
  -0.37600000E+01           0.00000000E+00
  -0.37500000E+01           0.00000000E+00
  -0.37400000E+01           0.00000000E+00
  -0.37300000E+01           0.00000000E+00
  -0.37200000E+01           0.00000000E+00
  -0.37100000E+01           0.00000000E+00
  -0.37000000E+01           0.00000000E+00
  -0.36900000E+01           0.00000000E+00
  -0.36800000E+01           0.00000000E+00
  -0.36700000E+01           0.00000000E+00
  -0.36600000E+01           0.00000000E+00
  -0.36500000E+01           0.00000000E+00
  -0.36400000E+01           0.00000000E+00
  -0.36300000E+01           0.00000000E+00
  -0.36200000E+01           0.00000000E+00
  -0.36100000E+01           0.00000000E+00
  -0.36000000E+01           0.00000000E+00
  -0.35900000E+01           0.00000000E+00
  -0.35800000E+01           0.00000000E+00
  -0.35700000E+01           0.00000000E+00
  -0.35600000E+01           0.00000000E+00
  -0.35500000E+01           0.00000000E+00
  -0.35400000E+01           0.00000000E+00
  -0.35300000E+01           0.00000000E+00
  -0.35200000E+01           0.00000000E+00
  -0.35100000E+01           0.00000000E+00
  -0.35000000E+01           0.00000000E+00
  -0.34900000E+01           0.00000000E+00
  -0.34800000E+01           0.00000000E+00
  -0.34700000E+01           0.00000000E+00
  -0.34600000E+01           0.00000000E+00
  -0.34500000E+01           0.00000000E+00
  -0.34400000E+01           0.00000000E+00
  -0.34300000E+01           0.00000000E+00
  -0.34200000E+01           0.00000000E+00
  -0.34100000E+01           0.00000000E+00
  -0.34000000E+01           0.00000000E+00
  -0.33900000E+01           0.00000000E+00
  -0.33800000E+01           0.00000000E+00
  -0.33700000E+01           0.00000000E+00
  -0.33600000E+01           0.00000000E+00
  -0.33500000E+01           0.00000000E+00
  -0.33400000E+01           0.00000000E+00
  -0.33300000E+01           0.00000000E+00
  -0.33200000E+01           0.00000000E+00
  -0.33100000E+01           0.00000000E+00
  -0.33000000E+01           0.00000000E+00
  -0.32900000E+01           0.00000000E+00
  -0.32800000E+01           0.00000000E+00
  -0.32700000E+01           0.00000000E+00
  -0.32600000E+01           0.00000000E+00
  -0.32500000E+01           0.00000000E+00
  -0.32400000E+01           0.00000000E+00
  -0.32300000E+01           0.00000000E+00
  -0.32200000E+01           0.00000000E+00
  -0.32100000E+01           0.00000000E+00
  -0.32000000E+01           0.00000000E+00
  -0.31900000E+01           0.00000000E+00
  -0.31800000E+01           0.00000000E+00
  -0.31700000E+01           0.00000000E+00
  -0.31600000E+01           0.00000000E+00
  -0.31500000E+01           0.00000000E+00
  -0.31400000E+01           0.00000000E+00
  -0.31300000E+01           0.00000000E+00
  -0.31200000E+01           0.00000000E+00
  -0.31100000E+01           0.00000000E+00
  -0.31000000E+01           0.00000000E+00
  -0.30900000E+01           0.00000000E+00
  -0.30800000E+01           0.00000000E+00
  -0.30700000E+01           0.00000000E+00
  -0.30600000E+01           0.00000000E+00
  -0.30500000E+01           0.00000000E+00
  -0.30400000E+01           0.00000000E+00
  -0.30300000E+01           0.00000000E+00
  -0.30200000E+01           0.00000000E+00
  -0.30100000E+01           0.00000000E+00
  -0.30000000E+01           0.00000000E+00
  -0.29900000E+01           0.00000000E+00
  -0.29800000E+01           0.00000000E+00
  -0.29700000E+01           0.00000000E+00
  -0.29600000E+01           0.00000000E+00
  -0.29500000E+01           0.00000000E+00
  -0.29400000E+01           0.00000000E+00
  -0.29300000E+01           0.00000000E+00
  -0.29200000E+01           0.00000000E+00
  -0.29100000E+01           0.00000000E+00
  -0.29000000E+01           0.00000000E+00
  -0.28900000E+01           0.00000000E+00
  -0.28800000E+01           0.00000000E+00
  -0.28700000E+01           0.00000000E+00
  -0.28600000E+01           0.00000000E+00
  -0.28500000E+01           0.00000000E+00
  -0.28400000E+01           0.00000000E+00
  -0.28300000E+01           0.00000000E+00
  -0.28200000E+01           0.00000000E+00
  -0.28100000E+01           0.00000000E+00
  -0.28000000E+01           0.00000000E+00
  -0.27900000E+01           0.00000000E+00
  -0.27800000E+01           0.00000000E+00
  -0.27700000E+01           0.00000000E+00
  -0.27600000E+01           0.00000000E+00
  -0.27500000E+01           0.00000000E+00
  -0.27400000E+01           0.00000000E+00
  -0.27300000E+01           0.00000000E+00
  -0.27200000E+01           0.00000000E+00
  -0.27100000E+01           0.00000000E+00
  -0.27000000E+01           0.00000000E+00
  -0.26900000E+01           0.00000000E+00
  -0.26800000E+01           0.00000000E+00
  -0.26700000E+01           0.00000000E+00
  -0.26600000E+01           0.00000000E+00
  -0.26500000E+01           0.00000000E+00
  -0.26400000E+01           0.00000000E+00
  -0.26300000E+01           0.00000000E+00
  -0.26200000E+01           0.00000000E+00
  -0.26100000E+01           0.00000000E+00
  -0.26000000E+01           0.00000000E+00
  -0.25900000E+01           0.00000000E+00
  -0.25800000E+01           0.00000000E+00
  -0.25700000E+01           0.00000000E+00
  -0.25600000E+01           0.00000000E+00
  -0.25500000E+01           0.00000000E+00
  -0.25400000E+01           0.00000000E+00
  -0.25300000E+01           0.00000000E+00
  -0.25200000E+01           0.00000000E+00
  -0.25100000E+01           0.00000000E+00
  -0.25000000E+01           0.00000000E+00
  -0.24900000E+01           0.00000000E+00
  -0.24800000E+01           0.00000000E+00
  -0.24700000E+01           0.00000000E+00
  -0.24600000E+01           0.00000000E+00
  -0.24500000E+01           0.00000000E+00
  -0.24400000E+01           0.00000000E+00
  -0.24300000E+01           0.00000000E+00
  -0.24200000E+01           0.00000000E+00
  -0.24100000E+01           0.00000000E+00
  -0.24000000E+01           0.00000000E+00
  -0.23900000E+01           0.00000000E+00
  -0.23800000E+01           0.00000000E+00
  -0.23700000E+01           0.00000000E+00
  -0.23600000E+01           0.00000000E+00
  -0.23500000E+01           0.00000000E+00
  -0.23400000E+01           0.00000000E+00
  -0.23300000E+01           0.00000000E+00
  -0.23200000E+01           0.00000000E+00
  -0.23100000E+01           0.00000000E+00
  -0.23000000E+01           0.00000000E+00
  -0.22900000E+01           0.00000000E+00
  -0.22800000E+01           0.00000000E+00
  -0.22700000E+01           0.00000000E+00
  -0.22600000E+01           0.00000000E+00
  -0.22500000E+01           0.00000000E+00
  -0.22400000E+01           0.00000000E+00
  -0.22300000E+01           0.00000000E+00
  -0.22200000E+01           0.00000000E+00
  -0.22100000E+01           0.00000000E+00
  -0.22000000E+01           0.00000000E+00
  -0.21900000E+01           0.00000000E+00
  -0.21800000E+01           0.00000000E+00
  -0.21700000E+01           0.00000000E+00
  -0.21600000E+01           0.00000000E+00
  -0.21500000E+01           0.00000000E+00
  -0.21400000E+01           0.00000000E+00
  -0.21300000E+01           0.00000000E+00
  -0.21200000E+01           0.00000000E+00
  -0.21100000E+01           0.00000000E+00
  -0.21000000E+01           0.00000000E+00
  -0.20900000E+01           0.00000000E+00
  -0.20800000E+01           0.00000000E+00
  -0.20700000E+01           0.00000000E+00
  -0.20600000E+01           0.00000000E+00
  -0.20500000E+01           0.00000000E+00
  -0.20400000E+01           0.00000000E+00
  -0.20300000E+01           0.00000000E+00
  -0.20200000E+01           0.00000000E+00
  -0.20100000E+01           0.00000000E+00
  -0.20000000E+01           0.00000000E+00
  -0.19900000E+01           0.00000000E+00
  -0.19800000E+01           0.00000000E+00
  -0.19700000E+01           0.00000000E+00
  -0.19600000E+01           0.00000000E+00
  -0.19500000E+01           0.00000000E+00
  -0.19400000E+01           0.00000000E+00
  -0.19300000E+01           0.00000000E+00
  -0.19200000E+01           0.00000000E+00
  -0.19100000E+01           0.00000000E+00
  -0.19000000E+01           0.00000000E+00
  -0.18900000E+01           0.00000000E+00
  -0.18800000E+01           0.00000000E+00
  -0.18700000E+01           0.00000000E+00
  -0.18600000E+01           0.00000000E+00
  -0.18500000E+01           0.00000000E+00
  -0.18400000E+01           0.00000000E+00
  -0.18300000E+01           0.00000000E+00
  -0.18200000E+01           0.00000000E+00
  -0.18100000E+01           0.00000000E+00
  -0.18000000E+01           0.00000000E+00
  -0.17900000E+01           0.00000000E+00
  -0.17800000E+01           0.00000000E+00
  -0.17700000E+01           0.00000000E+00
  -0.17600000E+01           0.00000000E+00
  -0.17500000E+01           0.00000000E+00
  -0.17400000E+01           0.00000000E+00
  -0.17300000E+01           0.00000000E+00
  -0.17200000E+01           0.00000000E+00
  -0.17100000E+01           0.00000000E+00
  -0.17000000E+01           0.00000000E+00
  -0.16900000E+01           0.00000000E+00
  -0.16800000E+01           0.00000000E+00
  -0.16700000E+01           0.00000000E+00
  -0.16600000E+01           0.00000000E+00
  -0.16500000E+01           0.00000000E+00
  -0.16400000E+01           0.00000000E+00
  -0.16300000E+01           0.00000000E+00
  -0.16200000E+01           0.00000000E+00
  -0.16100000E+01           0.00000000E+00
  -0.16000000E+01           0.00000000E+00
  -0.15900000E+01           0.00000000E+00
  -0.15800000E+01           0.00000000E+00
  -0.15700000E+01           0.00000000E+00
  -0.15600000E+01           0.00000000E+00
  -0.15500000E+01           0.00000000E+00
  -0.15400000E+01           0.00000000E+00
  -0.15300000E+01           0.00000000E+00
  -0.15200000E+01           0.00000000E+00
  -0.15100000E+01           0.00000000E+00
  -0.15000000E+01           0.00000000E+00
  -0.14900000E+01           0.00000000E+00
  -0.14800000E+01           0.00000000E+00
  -0.14700000E+01           0.00000000E+00
  -0.14600000E+01           0.00000000E+00
  -0.14500000E+01           0.00000000E+00
  -0.14400000E+01           0.00000000E+00
  -0.14300000E+01           0.00000000E+00
  -0.14200000E+01           0.00000000E+00
  -0.14100000E+01           0.00000000E+00
  -0.14000000E+01           0.00000000E+00
  -0.13900000E+01           0.00000000E+00
  -0.13800000E+01           0.00000000E+00
  -0.13700000E+01           0.00000000E+00
  -0.13600000E+01           0.00000000E+00
  -0.13500000E+01           0.00000000E+00
  -0.13400000E+01           0.00000000E+00
  -0.13300000E+01           0.00000000E+00
  -0.13200000E+01           0.00000000E+00
  -0.13100000E+01           0.00000000E+00
  -0.13000000E+01           0.00000000E+00
  -0.12900000E+01           0.00000000E+00
  -0.12800000E+01           0.00000000E+00
  -0.12700000E+01           0.00000000E+00
  -0.12600000E+01           0.00000000E+00
  -0.12500000E+01           0.00000000E+00
  -0.12400000E+01           0.00000000E+00
  -0.12300000E+01           0.00000000E+00
  -0.12200000E+01           0.00000000E+00
  -0.12100000E+01           0.00000000E+00
  -0.12000000E+01           0.00000000E+00
  -0.11900000E+01           0.00000000E+00
  -0.11800000E+01           0.00000000E+00
  -0.11700000E+01           0.00000000E+00
  -0.11600000E+01           0.00000000E+00
  -0.11500000E+01           0.00000000E+00
  -0.11400000E+01           0.00000000E+00
  -0.11300000E+01           0.00000000E+00
  -0.11200000E+01           0.00000000E+00
  -0.11100000E+01           0.00000000E+00
  -0.11000000E+01           0.00000000E+00
  -0.10900000E+01           0.00000000E+00
  -0.10800000E+01           0.00000000E+00
  -0.10700000E+01           0.00000000E+00
  -0.10600000E+01           0.00000000E+00
  -0.10500000E+01           0.00000000E+00
  -0.10400000E+01           0.00000000E+00
  -0.10300000E+01           0.00000000E+00
  -0.10200000E+01           0.00000000E+00
  -0.10100000E+01           0.00000000E+00
  -0.10000000E+01           0.00000000E+00
  -0.99000000E+00           0.00000000E+00
  -0.98000000E+00           0.00000000E+00
  -0.97000000E+00           0.00000000E+00
  -0.96000000E+00           0.00000000E+00
  -0.95000000E+00           0.00000000E+00
  -0.94000000E+00           0.00000000E+00
  -0.93000000E+00           0.00000000E+00
  -0.92000000E+00           0.00000000E+00
  -0.91000000E+00           0.00000000E+00
  -0.90000000E+00           0.00000000E+00
  -0.89000000E+00           0.00000000E+00
  -0.88000000E+00           0.00000000E+00
  -0.87000000E+00           0.00000000E+00
  -0.86000000E+00           0.00000000E+00
  -0.85000000E+00           0.00000000E+00
  -0.84000000E+00           0.00000000E+00
  -0.83000000E+00           0.00000000E+00
  -0.82000000E+00           0.00000000E+00
  -0.81000000E+00           0.00000000E+00
  -0.80000000E+00           0.00000000E+00
  -0.79000000E+00           0.00000000E+00
  -0.78000000E+00           0.00000000E+00
  -0.77000000E+00           0.00000000E+00
  -0.76000000E+00           0.00000000E+00
  -0.75000000E+00           0.00000000E+00
  -0.74000000E+00           0.00000000E+00
  -0.73000000E+00           0.00000000E+00
  -0.72000000E+00           0.00000000E+00
  -0.71000000E+00           0.00000000E+00
  -0.70000000E+00           0.00000000E+00
  -0.69000000E+00           0.00000000E+00
  -0.68000000E+00           0.00000000E+00
  -0.67000000E+00           0.00000000E+00
  -0.66000000E+00           0.00000000E+00
  -0.65000000E+00           0.00000000E+00
  -0.64000000E+00           0.00000000E+00
  -0.63000000E+00           0.00000000E+00
  -0.62000000E+00           0.00000000E+00
  -0.61000000E+00           0.00000000E+00
  -0.60000000E+00           0.00000000E+00
  -0.59000000E+00           0.00000000E+00
  -0.58000000E+00           0.00000000E+00
  -0.57000000E+00           0.00000000E+00
  -0.56000000E+00           0.00000000E+00
  -0.55000000E+00           0.00000000E+00
  -0.54000000E+00           0.00000000E+00
  -0.53000000E+00           0.00000000E+00
  -0.52000000E+00           0.00000000E+00
  -0.51000000E+00           0.00000000E+00
  -0.50000000E+00           0.00000000E+00
  -0.49000000E+00           0.00000000E+00
  -0.48000000E+00           0.00000000E+00
  -0.47000000E+00           0.00000000E+00
  -0.46000000E+00           0.00000000E+00
  -0.45000000E+00           0.00000000E+00
  -0.44000000E+00           0.00000000E+00
  -0.43000000E+00           0.00000000E+00
  -0.42000000E+00           0.00000000E+00
  -0.41000000E+00           0.00000000E+00
  -0.40000000E+00           0.00000000E+00
  -0.39000000E+00           0.00000000E+00
  -0.38000000E+00           0.00000000E+00
  -0.37000000E+00           0.00000000E+00
  -0.36000000E+00           0.00000000E+00
  -0.35000000E+00           0.00000000E+00
  -0.34000000E+00           0.00000000E+00
  -0.33000000E+00           0.00000000E+00
  -0.32000000E+00           0.00000000E+00
  -0.31000000E+00           0.00000000E+00
  -0.30000000E+00           0.00000000E+00
  -0.29000000E+00           0.00000000E+00
  -0.28000000E+00           0.00000000E+00
  -0.27000000E+00           0.00000000E+00
  -0.26000000E+00           0.00000000E+00
  -0.25000000E+00           0.00000000E+00
  -0.24000000E+00           0.00000000E+00
  -0.23000000E+00           0.00000000E+00
  -0.22000000E+00           0.00000000E+00
  -0.21000000E+00           0.00000000E+00
  -0.20000000E+00           0.00000000E+00
  -0.19000000E+00           0.00000000E+00
  -0.18000000E+00           0.00000000E+00
  -0.17000000E+00           0.00000000E+00
  -0.16000000E+00           0.00000000E+00
  -0.15000000E+00           0.00000000E+00
  -0.14000000E+00           0.00000000E+00
  -0.13000000E+00           0.00000000E+00
  -0.12000000E+00           0.00000000E+00
  -0.11000000E+00           0.00000000E+00
  -0.10000000E+00           0.00000000E+00
  -0.90000000E-01           0.00000000E+00
  -0.80000000E-01           0.00000000E+00
  -0.70000000E-01           0.00000000E+00
  -0.60000000E-01           0.00000000E+00
  -0.50000000E-01           0.00000000E+00
  -0.40000000E-01           0.00000000E+00
  -0.30000000E-01           0.00000000E+00
  -0.20000000E-01           0.00000000E+00
  -0.10000000E-01           0.00000000E+00
   0.00000000E+00           0.30370370E-03
   0.10000000E-01           0.76649383E-02
   0.20000000E-01           0.29098272E-01
   0.30000000E-01           0.63841235E-01
   0.40000000E-01           0.11204765E+00
   0.50000000E-01           0.17362691E+00
   0.60000000E-01           0.24661654E+00
   0.70000000E-01           0.33173136E+00
   0.80000000E-01           0.42600519E+00
   0.90000000E-01           0.52944444E+00
   0.10000000E+00           0.63811284E+00
   0.11000000E+00           0.75750568E+00
   0.12000000E+00           0.88003259E+00
   0.13000000E+00           0.10025143E+01
   0.14000000E+00           0.11310279E+01
   0.15000000E+00           0.12596094E+01
   0.16000000E+00           0.13879202E+01
   0.17000000E+00           0.15157338E+01
   0.18000000E+00           0.16397040E+01
   0.19000000E+00           0.17517691E+01
   0.20000000E+00           0.18683657E+01
   0.21000000E+00           0.19725563E+01
   0.22000000E+00           0.20728183E+01
   0.23000000E+00           0.21605998E+01
   0.24000000E+00           0.22445151E+01
   0.25000000E+00           0.23124126E+01
   0.26000000E+00           0.23733694E+01
   0.27000000E+00           0.24237736E+01
   0.28000000E+00           0.24643222E+01
   0.29000000E+00           0.24959884E+01
   0.30000000E+00           0.25140427E+01
   0.31000000E+00           0.25211951E+01
   0.32000000E+00           0.25260933E+01
   0.33000000E+00           0.25171640E+01
   0.34000000E+00           0.24950726E+01
   0.35000000E+00           0.24669812E+01
   0.36000000E+00           0.24354795E+01
   0.37000000E+00           0.23913867E+01
   0.38000000E+00           0.23426205E+01
   0.39000000E+00           0.22870526E+01
   0.40000000E+00           0.22266015E+01
   0.41000000E+00           0.21561047E+01
   0.42000000E+00           0.20919667E+01
   0.43000000E+00           0.20190760E+01
   0.44000000E+00           0.19420328E+01
   0.45000000E+00           0.18644109E+01
   0.46000000E+00           0.17854457E+01
   0.47000000E+00           0.17074583E+01
   0.48000000E+00           0.16275286E+01
   0.49000000E+00           0.15447773E+01
   0.50000000E+00           0.14675272E+01
   0.51000000E+00           0.13852615E+01
   0.52000000E+00           0.13074886E+01
   0.53000000E+00           0.12329022E+01
   0.54000000E+00           0.11659321E+01
   0.55000000E+00           0.10921262E+01
   0.56000000E+00           0.10199523E+01
   0.57000000E+00           0.95242247E+00
   0.58000000E+00           0.88834691E+00
   0.59000000E+00           0.82825827E+00
   0.60000000E+00           0.76972222E+00
   0.61000000E+00           0.71345185E+00
   0.62000000E+00           0.65969062E+00
   0.63000000E+00           0.61017037E+00
   0.64000000E+00           0.56380469E+00
   0.65000000E+00           0.51947284E+00
   0.66000000E+00           0.47608815E+00
   0.67000000E+00           0.43641086E+00
   0.68000000E+00           0.40079506E+00
   0.69000000E+00           0.36571284E+00
   0.70000000E+00           0.33478519E+00
   0.71000000E+00           0.30535284E+00
   0.72000000E+00           0.27970914E+00
   0.73000000E+00           0.25375062E+00
   0.74000000E+00           0.23056988E+00
   0.75000000E+00           0.20849333E+00
   0.76000000E+00           0.18876914E+00
   0.77000000E+00           0.17052296E+00
   0.78000000E+00           0.15414938E+00
   0.79000000E+00           0.13921037E+00
   0.80000000E+00           0.12436519E+00
   0.81000000E+00           0.11257506E+00
   0.82000000E+00           0.10116173E+00
   0.83000000E+00           0.90181728E-01
   0.84000000E+00           0.81497531E-01
   0.85000000E+00           0.72253086E-01
   0.86000000E+00           0.64943457E-01
   0.87000000E+00           0.57723210E-01
   0.88000000E+00           0.51448148E-01
   0.89000000E+00           0.46109383E-01
   0.90000000E+00           0.41132346E-01
   0.91000000E+00           0.36322716E-01
   0.92000000E+00           0.31908148E-01
   0.93000000E+00           0.28345432E-01
   0.94000000E+00           0.24957284E-01
   0.95000000E+00           0.22282716E-01
   0.96000000E+00           0.19320741E-01
   0.97000000E+00           0.17334321E-01
   0.98000000E+00           0.15536296E-01
   0.99000000E+00           0.13410617E-01
   0.10000000E+01           0.11548148E-01
   0.10100000E+01           0.10304198E-01
   0.10200000E+01           0.88545679E-02
   0.10300000E+01           0.79669136E-02
   0.10400000E+01           0.68135802E-02
   0.10500000E+01           0.61153086E-02
   0.10600000E+01           0.52933333E-02
   0.10700000E+01           0.47316049E-02
   0.10800000E+01           0.39651852E-02
   0.10900000E+01           0.33992593E-02
   0.11000000E+01           0.29464198E-02
   0.11100000E+01           0.25975309E-02
   0.11200000E+01           0.22254321E-02
   0.11300000E+01           0.19639506E-02
   0.11400000E+01           0.16422222E-02
   0.11500000E+01           0.14753086E-02
   0.11600000E+01           0.13123457E-02
   0.11700000E+01           0.11703704E-02
   0.11800000E+01           0.96296296E-03
   0.11900000E+01           0.83753086E-03
   0.12000000E+01           0.68567901E-03
   0.12100000E+01           0.62074074E-03
   0.12200000E+01           0.51259259E-03
   0.12300000E+01           0.43432099E-03
   0.12400000E+01           0.32765432E-03
   0.12500000E+01           0.31654321E-03
   0.12600000E+01           0.24666667E-03
   0.12700000E+01           0.24617284E-03
   0.12800000E+01           0.21506173E-03
   0.12900000E+01           0.17506173E-03
   0.13000000E+01           0.12370370E-03
   0.13100000E+01           0.13037037E-03
   0.13200000E+01           0.11629630E-03
   0.13300000E+01           0.10148148E-03
   0.13400000E+01           0.84691358E-04
   0.13500000E+01           0.51358025E-04
   0.13600000E+01           0.46913580E-04
   0.13700000E+01           0.40987654E-04
   0.13800000E+01           0.49382716E-04
   0.13900000E+01           0.32098765E-04
   0.14000000E+01           0.22716049E-04
   0.14100000E+01           0.21481481E-04
   0.14200000E+01           0.12098765E-04
   0.14300000E+01           0.93827160E-05
   0.14400000E+01           0.76543210E-05
   0.14500000E+01           0.11851852E-04
   0.14600000E+01           0.64197531E-05
   0.14700000E+01           0.74074074E-05
   0.14800000E+01           0.96296296E-05
   0.14900000E+01           0.39506173E-05
   0.15000000E+01           0.24691358E-05
   0.15100000E+01           0.32098765E-05
   0.15200000E+01           0.74074074E-06
   0.15300000E+01           0.19753086E-05
   0.15400000E+01           0.17283951E-05
   0.15500000E+01           0.27160494E-05
   0.15600000E+01           0.98765432E-06
   0.15700000E+01           0.24691358E-06
   0.15800000E+01           0.27160494E-05
   0.15900000E+01           0.74074074E-06
   0.16000000E+01           0.49382716E-06
   0.16100000E+01           0.98765432E-06
   0.16200000E+01           0.00000000E+00
   0.16300000E+01           0.00000000E+00
   0.16400000E+01           0.19753086E-05
   0.16500000E+01           0.00000000E+00
   0.16600000E+01           0.00000000E+00
   0.16700000E+01           0.00000000E+00
   0.16800000E+01           0.00000000E+00
   0.16900000E+01           0.74074074E-06
   0.17000000E+01           0.00000000E+00
   0.17100000E+01           0.00000000E+00
   0.17200000E+01           0.00000000E+00
   0.17300000E+01           0.00000000E+00
   0.17400000E+01           0.00000000E+00
   0.17500000E+01           0.00000000E+00
   0.17600000E+01           0.49382716E-06
   0.17700000E+01           0.00000000E+00
   0.17800000E+01           0.00000000E+00
   0.17900000E+01           0.00000000E+00
   0.18000000E+01           0.00000000E+00
   0.18100000E+01           0.00000000E+00
   0.18200000E+01           0.00000000E+00
   0.18300000E+01           0.00000000E+00
   0.18400000E+01           0.00000000E+00
   0.18500000E+01           0.00000000E+00
   0.18600000E+01           0.00000000E+00
   0.18700000E+01           0.00000000E+00
   0.18800000E+01           0.00000000E+00
   0.18900000E+01           0.00000000E+00
   0.19000000E+01           0.00000000E+00
   0.19100000E+01           0.00000000E+00
   0.19200000E+01           0.00000000E+00
   0.19300000E+01           0.00000000E+00
   0.19400000E+01           0.00000000E+00
   0.19500000E+01           0.00000000E+00
   0.19600000E+01           0.00000000E+00
   0.19700000E+01           0.00000000E+00
   0.19800000E+01           0.00000000E+00
   0.19900000E+01           0.00000000E+00
   0.20000000E+01           0.00000000E+00
   0.20100000E+01           0.00000000E+00
   0.20200000E+01           0.00000000E+00
   0.20300000E+01           0.00000000E+00
   0.20400000E+01           0.00000000E+00
   0.20500000E+01           0.00000000E+00
   0.20600000E+01           0.00000000E+00
   0.20700000E+01           0.00000000E+00
   0.20800000E+01           0.00000000E+00
   0.20900000E+01           0.00000000E+00
   0.21000000E+01           0.00000000E+00
   0.21100000E+01           0.00000000E+00
   0.21200000E+01           0.00000000E+00
   0.21300000E+01           0.00000000E+00
   0.21400000E+01           0.00000000E+00
   0.21500000E+01           0.00000000E+00
   0.21600000E+01           0.00000000E+00
   0.21700000E+01           0.00000000E+00
   0.21800000E+01           0.00000000E+00
   0.21900000E+01           0.00000000E+00
   0.22000000E+01           0.00000000E+00
   0.22100000E+01           0.00000000E+00
   0.22200000E+01           0.00000000E+00
   0.22300000E+01           0.00000000E+00
   0.22400000E+01           0.00000000E+00
   0.22500000E+01           0.00000000E+00
   0.22600000E+01           0.00000000E+00
   0.22700000E+01           0.00000000E+00
   0.22800000E+01           0.00000000E+00
   0.22900000E+01           0.00000000E+00
   0.23000000E+01           0.00000000E+00
   0.23100000E+01           0.00000000E+00
   0.23200000E+01           0.00000000E+00
   0.23300000E+01           0.00000000E+00
   0.23400000E+01           0.00000000E+00
   0.23500000E+01           0.00000000E+00
   0.23600000E+01           0.00000000E+00
   0.23700000E+01           0.00000000E+00
   0.23800000E+01           0.00000000E+00
   0.23900000E+01           0.00000000E+00
   0.24000000E+01           0.00000000E+00
   0.24100000E+01           0.00000000E+00
   0.24200000E+01           0.00000000E+00
   0.24300000E+01           0.00000000E+00
   0.24400000E+01           0.00000000E+00
   0.24500000E+01           0.00000000E+00
   0.24600000E+01           0.00000000E+00
   0.24700000E+01           0.00000000E+00
   0.24800000E+01           0.00000000E+00
   0.24900000E+01           0.00000000E+00
   0.25000000E+01           0.00000000E+00
   0.25100000E+01           0.00000000E+00
   0.25200000E+01           0.00000000E+00
   0.25300000E+01           0.00000000E+00
   0.25400000E+01           0.00000000E+00
   0.25500000E+01           0.00000000E+00
   0.25600000E+01           0.00000000E+00
   0.25700000E+01           0.00000000E+00
   0.25800000E+01           0.00000000E+00
   0.25900000E+01           0.00000000E+00
   0.26000000E+01           0.00000000E+00
   0.26100000E+01           0.00000000E+00
   0.26200000E+01           0.00000000E+00
   0.26300000E+01           0.00000000E+00
   0.26400000E+01           0.00000000E+00
   0.26500000E+01           0.00000000E+00
   0.26600000E+01           0.00000000E+00
   0.26700000E+01           0.00000000E+00
   0.26800000E+01           0.00000000E+00
   0.26900000E+01           0.00000000E+00
   0.27000000E+01           0.00000000E+00
   0.27100000E+01           0.00000000E+00
   0.27200000E+01           0.00000000E+00
   0.27300000E+01           0.00000000E+00
   0.27400000E+01           0.00000000E+00
   0.27500000E+01           0.00000000E+00
   0.27600000E+01           0.00000000E+00
   0.27700000E+01           0.00000000E+00
   0.27800000E+01           0.00000000E+00
   0.27900000E+01           0.00000000E+00
   0.28000000E+01           0.00000000E+00
   0.28100000E+01           0.00000000E+00
   0.28200000E+01           0.00000000E+00
   0.28300000E+01           0.00000000E+00
   0.28400000E+01           0.00000000E+00
   0.28500000E+01           0.00000000E+00
   0.28600000E+01           0.00000000E+00
   0.28700000E+01           0.00000000E+00
   0.28800000E+01           0.00000000E+00
   0.28900000E+01           0.00000000E+00
   0.29000000E+01           0.00000000E+00
   0.29100000E+01           0.00000000E+00
   0.29200000E+01           0.00000000E+00
   0.29300000E+01           0.00000000E+00
   0.29400000E+01           0.00000000E+00
   0.29500000E+01           0.00000000E+00
   0.29600000E+01           0.00000000E+00
   0.29700000E+01           0.00000000E+00
   0.29800000E+01           0.00000000E+00
   0.29900000E+01           0.00000000E+00
   0.30000000E+01           0.00000000E+00
   0.30100000E+01           0.00000000E+00
   0.30200000E+01           0.00000000E+00
   0.30300000E+01           0.00000000E+00
   0.30400000E+01           0.00000000E+00
   0.30500000E+01           0.00000000E+00
   0.30600000E+01           0.00000000E+00
   0.30700000E+01           0.00000000E+00
   0.30800000E+01           0.00000000E+00
   0.30900000E+01           0.00000000E+00
   0.31000000E+01           0.00000000E+00
   0.31100000E+01           0.00000000E+00
   0.31200000E+01           0.00000000E+00
   0.31300000E+01           0.00000000E+00
   0.31400000E+01           0.00000000E+00
   0.31500000E+01           0.00000000E+00
   0.31600000E+01           0.00000000E+00
   0.31700000E+01           0.00000000E+00
   0.31800000E+01           0.00000000E+00
   0.31900000E+01           0.00000000E+00
   0.32000000E+01           0.00000000E+00
   0.32100000E+01           0.00000000E+00
   0.32200000E+01           0.00000000E+00
   0.32300000E+01           0.00000000E+00
   0.32400000E+01           0.00000000E+00
   0.32500000E+01           0.00000000E+00
   0.32600000E+01           0.00000000E+00
   0.32700000E+01           0.00000000E+00
   0.32800000E+01           0.00000000E+00
   0.32900000E+01           0.00000000E+00
   0.33000000E+01           0.00000000E+00
   0.33100000E+01           0.00000000E+00
   0.33200000E+01           0.00000000E+00
   0.33300000E+01           0.00000000E+00
   0.33400000E+01           0.00000000E+00
   0.33500000E+01           0.00000000E+00
   0.33600000E+01           0.00000000E+00
   0.33700000E+01           0.00000000E+00
   0.33800000E+01           0.00000000E+00
   0.33900000E+01           0.00000000E+00
   0.34000000E+01           0.00000000E+00
   0.34100000E+01           0.00000000E+00
   0.34200000E+01           0.00000000E+00
   0.34300000E+01           0.00000000E+00
   0.34400000E+01           0.00000000E+00
   0.34500000E+01           0.00000000E+00
   0.34600000E+01           0.00000000E+00
   0.34700000E+01           0.00000000E+00
   0.34800000E+01           0.00000000E+00
   0.34900000E+01           0.00000000E+00
   0.35000000E+01           0.00000000E+00
   0.35100000E+01           0.00000000E+00
   0.35200000E+01           0.00000000E+00
   0.35300000E+01           0.00000000E+00
   0.35400000E+01           0.00000000E+00
   0.35500000E+01           0.00000000E+00
   0.35600000E+01           0.00000000E+00
   0.35700000E+01           0.00000000E+00
   0.35800000E+01           0.00000000E+00
   0.35900000E+01           0.00000000E+00
   0.36000000E+01           0.00000000E+00
   0.36100000E+01           0.00000000E+00
   0.36200000E+01           0.00000000E+00
   0.36300000E+01           0.00000000E+00
   0.36400000E+01           0.00000000E+00
   0.36500000E+01           0.00000000E+00
   0.36600000E+01           0.00000000E+00
   0.36700000E+01           0.00000000E+00
   0.36800000E+01           0.00000000E+00
   0.36900000E+01           0.00000000E+00
   0.37000000E+01           0.00000000E+00
   0.37100000E+01           0.00000000E+00
   0.37200000E+01           0.00000000E+00
   0.37300000E+01           0.00000000E+00
   0.37400000E+01           0.00000000E+00
   0.37500000E+01           0.00000000E+00
   0.37600000E+01           0.00000000E+00
   0.37700000E+01           0.00000000E+00
   0.37800000E+01           0.00000000E+00
   0.37900000E+01           0.00000000E+00
   0.38000000E+01           0.00000000E+00
   0.38100000E+01           0.00000000E+00
   0.38200000E+01           0.00000000E+00
   0.38300000E+01           0.00000000E+00
   0.38400000E+01           0.00000000E+00
   0.38500000E+01           0.00000000E+00
   0.38600000E+01           0.00000000E+00
   0.38700000E+01           0.00000000E+00
   0.38800000E+01           0.00000000E+00
   0.38900000E+01           0.00000000E+00
   0.39000000E+01           0.00000000E+00
   0.39100000E+01           0.00000000E+00
   0.39200000E+01           0.00000000E+00
   0.39300000E+01           0.00000000E+00
   0.39400000E+01           0.00000000E+00
   0.39500000E+01           0.00000000E+00
   0.39600000E+01           0.00000000E+00
   0.39700000E+01           0.00000000E+00
   0.39800000E+01           0.00000000E+00
   0.39900000E+01           0.00000000E+00
   0.40000000E+01           0.00000000E+00
   0.40100000E+01           0.00000000E+00
   0.40200000E+01           0.00000000E+00
   0.40300000E+01           0.00000000E+00
   0.40400000E+01           0.00000000E+00
   0.40500000E+01           0.00000000E+00
   0.40600000E+01           0.00000000E+00
   0.40700000E+01           0.00000000E+00
   0.40800000E+01           0.00000000E+00
   0.40900000E+01           0.00000000E+00
   0.41000000E+01           0.00000000E+00
   0.41100000E+01           0.00000000E+00
   0.41200000E+01           0.00000000E+00
   0.41300000E+01           0.00000000E+00
   0.41400000E+01           0.00000000E+00
   0.41500000E+01           0.00000000E+00
   0.41600000E+01           0.00000000E+00
   0.41700000E+01           0.00000000E+00
   0.41800000E+01           0.00000000E+00
   0.41900000E+01           0.00000000E+00
   0.42000000E+01           0.00000000E+00
   0.42100000E+01           0.00000000E+00
   0.42200000E+01           0.00000000E+00
   0.42300000E+01           0.00000000E+00
   0.42400000E+01           0.00000000E+00
   0.42500000E+01           0.00000000E+00
   0.42600000E+01           0.00000000E+00
   0.42700000E+01           0.00000000E+00
   0.42800000E+01           0.00000000E+00
   0.42900000E+01           0.00000000E+00
   0.43000000E+01           0.00000000E+00
   0.43100000E+01           0.00000000E+00
   0.43200000E+01           0.00000000E+00
   0.43300000E+01           0.00000000E+00
   0.43400000E+01           0.00000000E+00
   0.43500000E+01           0.00000000E+00
   0.43600000E+01           0.00000000E+00
   0.43700000E+01           0.00000000E+00
   0.43800000E+01           0.00000000E+00
   0.43900000E+01           0.00000000E+00
   0.44000000E+01           0.00000000E+00
   0.44100000E+01           0.00000000E+00
   0.44200000E+01           0.00000000E+00
   0.44300000E+01           0.00000000E+00
   0.44400000E+01           0.00000000E+00
   0.44500000E+01           0.00000000E+00
   0.44600000E+01           0.00000000E+00
   0.44700000E+01           0.00000000E+00
   0.44800000E+01           0.00000000E+00
   0.44900000E+01           0.00000000E+00
   0.45000000E+01           0.00000000E+00
   0.45100000E+01           0.00000000E+00
   0.45200000E+01           0.00000000E+00
   0.45300000E+01           0.00000000E+00
   0.45400000E+01           0.00000000E+00
   0.45500000E+01           0.00000000E+00
   0.45600000E+01           0.00000000E+00
   0.45700000E+01           0.00000000E+00
   0.45800000E+01           0.00000000E+00
   0.45900000E+01           0.00000000E+00
   0.46000000E+01           0.00000000E+00
   0.46100000E+01           0.00000000E+00
   0.46200000E+01           0.00000000E+00
   0.46300000E+01           0.00000000E+00
   0.46400000E+01           0.00000000E+00
   0.46500000E+01           0.00000000E+00
   0.46600000E+01           0.00000000E+00
   0.46700000E+01           0.00000000E+00
   0.46800000E+01           0.00000000E+00
   0.46900000E+01           0.00000000E+00
   0.47000000E+01           0.00000000E+00
   0.47100000E+01           0.00000000E+00
   0.47200000E+01           0.00000000E+00
   0.47300000E+01           0.00000000E+00
   0.47400000E+01           0.00000000E+00
   0.47500000E+01           0.00000000E+00
   0.47600000E+01           0.00000000E+00
   0.47700000E+01           0.00000000E+00
   0.47800000E+01           0.00000000E+00
   0.47900000E+01           0.00000000E+00
   0.48000000E+01           0.00000000E+00
   0.48100000E+01           0.00000000E+00
   0.48200000E+01           0.00000000E+00
   0.48300000E+01           0.00000000E+00
   0.48400000E+01           0.00000000E+00
   0.48500000E+01           0.00000000E+00
   0.48600000E+01           0.00000000E+00
   0.48700000E+01           0.00000000E+00
   0.48800000E+01           0.00000000E+00
   0.48900000E+01           0.00000000E+00
   0.49000000E+01           0.00000000E+00
   0.49100000E+01           0.00000000E+00
   0.49200000E+01           0.00000000E+00
   0.49300000E+01           0.00000000E+00
   0.49400000E+01           0.00000000E+00
   0.49500000E+01           0.00000000E+00
   0.49600000E+01           0.00000000E+00
   0.49700000E+01           0.00000000E+00
   0.49800000E+01           0.00000000E+00
   0.49900000E+01           0.00000000E+00
   0.50000000E+01           0.00000000E+00
   0.50100000E+01           0.00000000E+00
   0.50200000E+01           0.00000000E+00
   0.50300000E+01           0.00000000E+00
   0.50400000E+01           0.00000000E+00
   0.50500000E+01           0.00000000E+00
   0.50600000E+01           0.00000000E+00
   0.50700000E+01           0.00000000E+00
   0.50800000E+01           0.00000000E+00
   0.50900000E+01           0.00000000E+00
   0.51000000E+01           0.00000000E+00
   0.51100000E+01           0.00000000E+00
   0.51200000E+01           0.00000000E+00
   0.51300000E+01           0.00000000E+00
   0.51400000E+01           0.00000000E+00
   0.51500000E+01           0.00000000E+00
   0.51600000E+01           0.00000000E+00
   0.51700000E+01           0.00000000E+00
   0.51800000E+01           0.00000000E+00
   0.51900000E+01           0.00000000E+00
   0.52000000E+01           0.00000000E+00
   0.52100000E+01           0.00000000E+00
   0.52200000E+01           0.00000000E+00
   0.52300000E+01           0.00000000E+00
   0.52400000E+01           0.00000000E+00
   0.52500000E+01           0.00000000E+00
   0.52600000E+01           0.00000000E+00
   0.52700000E+01           0.00000000E+00
   0.52800000E+01           0.00000000E+00
   0.52900000E+01           0.00000000E+00
   0.53000000E+01           0.00000000E+00
   0.53100000E+01           0.00000000E+00
   0.53200000E+01           0.00000000E+00
   0.53300000E+01           0.00000000E+00
   0.53400000E+01           0.00000000E+00
   0.53500000E+01           0.00000000E+00
   0.53600000E+01           0.00000000E+00
   0.53700000E+01           0.00000000E+00
   0.53800000E+01           0.00000000E+00
   0.53900000E+01           0.00000000E+00
   0.54000000E+01           0.00000000E+00
   0.54100000E+01           0.00000000E+00
   0.54200000E+01           0.00000000E+00
   0.54300000E+01           0.00000000E+00
   0.54400000E+01           0.00000000E+00
   0.54500000E+01           0.00000000E+00
   0.54600000E+01           0.00000000E+00
   0.54700000E+01           0.00000000E+00
   0.54800000E+01           0.00000000E+00
   0.54900000E+01           0.00000000E+00
   0.55000000E+01           0.00000000E+00
   0.55100000E+01           0.00000000E+00
   0.55200000E+01           0.00000000E+00
   0.55300000E+01           0.00000000E+00
   0.55400000E+01           0.00000000E+00
   0.55500000E+01           0.00000000E+00
   0.55600000E+01           0.00000000E+00
   0.55700000E+01           0.00000000E+00
   0.55800000E+01           0.00000000E+00
   0.55900000E+01           0.00000000E+00
   0.56000000E+01           0.00000000E+00
   0.56100000E+01           0.00000000E+00
   0.56200000E+01           0.00000000E+00
   0.56300000E+01           0.00000000E+00
   0.56400000E+01           0.00000000E+00
   0.56500000E+01           0.00000000E+00
   0.56600000E+01           0.00000000E+00
   0.56700000E+01           0.00000000E+00
   0.56800000E+01           0.00000000E+00
   0.56900000E+01           0.00000000E+00
   0.57000000E+01           0.00000000E+00
   0.57100000E+01           0.00000000E+00
   0.57200000E+01           0.00000000E+00
   0.57300000E+01           0.00000000E+00
   0.57400000E+01           0.00000000E+00
   0.57500000E+01           0.00000000E+00
   0.57600000E+01           0.00000000E+00
   0.57700000E+01           0.00000000E+00
   0.57800000E+01           0.00000000E+00
   0.57900000E+01           0.00000000E+00
   0.58000000E+01           0.00000000E+00
   0.58100000E+01           0.00000000E+00
   0.58200000E+01           0.00000000E+00
   0.58300000E+01           0.00000000E+00
   0.58400000E+01           0.00000000E+00
   0.58500000E+01           0.00000000E+00
   0.58600000E+01           0.00000000E+00
   0.58700000E+01           0.00000000E+00
   0.58800000E+01           0.00000000E+00
   0.58900000E+01           0.00000000E+00
   0.59000000E+01           0.00000000E+00
   0.59100000E+01           0.00000000E+00
   0.59200000E+01           0.00000000E+00
   0.59300000E+01           0.00000000E+00
   0.59400000E+01           0.00000000E+00
   0.59500000E+01           0.00000000E+00
   0.59600000E+01           0.00000000E+00
   0.59700000E+01           0.00000000E+00
   0.59800000E+01           0.00000000E+00
   0.59900000E+01           0.00000000E+00
   0.60000000E+01           0.00000000E+00
 #T=     6.0000
  -0.60000000E+01           0.00000000E+00
  -0.59900000E+01           0.00000000E+00
  -0.59800000E+01           0.00000000E+00
  -0.59700000E+01           0.00000000E+00
  -0.59600000E+01           0.00000000E+00
  -0.59500000E+01           0.00000000E+00
  -0.59400000E+01           0.00000000E+00
  -0.59300000E+01           0.00000000E+00
  -0.59200000E+01           0.00000000E+00
  -0.59100000E+01           0.00000000E+00
  -0.59000000E+01           0.00000000E+00
  -0.58900000E+01           0.00000000E+00
  -0.58800000E+01           0.00000000E+00
  -0.58700000E+01           0.00000000E+00
  -0.58600000E+01           0.00000000E+00
  -0.58500000E+01           0.00000000E+00
  -0.58400000E+01           0.00000000E+00
  -0.58300000E+01           0.00000000E+00
  -0.58200000E+01           0.00000000E+00
  -0.58100000E+01           0.00000000E+00
  -0.58000000E+01           0.00000000E+00
  -0.57900000E+01           0.00000000E+00
  -0.57800000E+01           0.00000000E+00
  -0.57700000E+01           0.00000000E+00
  -0.57600000E+01           0.00000000E+00
  -0.57500000E+01           0.00000000E+00
  -0.57400000E+01           0.00000000E+00
  -0.57300000E+01           0.00000000E+00
  -0.57200000E+01           0.00000000E+00
  -0.57100000E+01           0.00000000E+00
  -0.57000000E+01           0.00000000E+00
  -0.56900000E+01           0.00000000E+00
  -0.56800000E+01           0.00000000E+00
  -0.56700000E+01           0.00000000E+00
  -0.56600000E+01           0.00000000E+00
  -0.56500000E+01           0.00000000E+00
  -0.56400000E+01           0.00000000E+00
  -0.56300000E+01           0.00000000E+00
  -0.56200000E+01           0.00000000E+00
  -0.56100000E+01           0.00000000E+00
  -0.56000000E+01           0.00000000E+00
  -0.55900000E+01           0.00000000E+00
  -0.55800000E+01           0.00000000E+00
  -0.55700000E+01           0.00000000E+00
  -0.55600000E+01           0.00000000E+00
  -0.55500000E+01           0.00000000E+00
  -0.55400000E+01           0.00000000E+00
  -0.55300000E+01           0.00000000E+00
  -0.55200000E+01           0.00000000E+00
  -0.55100000E+01           0.00000000E+00
  -0.55000000E+01           0.00000000E+00
  -0.54900000E+01           0.00000000E+00
  -0.54800000E+01           0.00000000E+00
  -0.54700000E+01           0.00000000E+00
  -0.54600000E+01           0.00000000E+00
  -0.54500000E+01           0.00000000E+00
  -0.54400000E+01           0.00000000E+00
  -0.54300000E+01           0.00000000E+00
  -0.54200000E+01           0.00000000E+00
  -0.54100000E+01           0.00000000E+00
  -0.54000000E+01           0.00000000E+00
  -0.53900000E+01           0.00000000E+00
  -0.53800000E+01           0.00000000E+00
  -0.53700000E+01           0.00000000E+00
  -0.53600000E+01           0.00000000E+00
  -0.53500000E+01           0.00000000E+00
  -0.53400000E+01           0.00000000E+00
  -0.53300000E+01           0.00000000E+00
  -0.53200000E+01           0.00000000E+00
  -0.53100000E+01           0.00000000E+00
  -0.53000000E+01           0.00000000E+00
  -0.52900000E+01           0.00000000E+00
  -0.52800000E+01           0.00000000E+00
  -0.52700000E+01           0.00000000E+00
  -0.52600000E+01           0.00000000E+00
  -0.52500000E+01           0.00000000E+00
  -0.52400000E+01           0.00000000E+00
  -0.52300000E+01           0.00000000E+00
  -0.52200000E+01           0.00000000E+00
  -0.52100000E+01           0.00000000E+00
  -0.52000000E+01           0.00000000E+00
  -0.51900000E+01           0.00000000E+00
  -0.51800000E+01           0.00000000E+00
  -0.51700000E+01           0.00000000E+00
  -0.51600000E+01           0.00000000E+00
  -0.51500000E+01           0.00000000E+00
  -0.51400000E+01           0.00000000E+00
  -0.51300000E+01           0.00000000E+00
  -0.51200000E+01           0.00000000E+00
  -0.51100000E+01           0.00000000E+00
  -0.51000000E+01           0.00000000E+00
  -0.50900000E+01           0.00000000E+00
  -0.50800000E+01           0.00000000E+00
  -0.50700000E+01           0.00000000E+00
  -0.50600000E+01           0.00000000E+00
  -0.50500000E+01           0.00000000E+00
  -0.50400000E+01           0.00000000E+00
  -0.50300000E+01           0.00000000E+00
  -0.50200000E+01           0.00000000E+00
  -0.50100000E+01           0.00000000E+00
  -0.50000000E+01           0.00000000E+00
  -0.49900000E+01           0.00000000E+00
  -0.49800000E+01           0.00000000E+00
  -0.49700000E+01           0.00000000E+00
  -0.49600000E+01           0.00000000E+00
  -0.49500000E+01           0.00000000E+00
  -0.49400000E+01           0.00000000E+00
  -0.49300000E+01           0.00000000E+00
  -0.49200000E+01           0.00000000E+00
  -0.49100000E+01           0.00000000E+00
  -0.49000000E+01           0.00000000E+00
  -0.48900000E+01           0.00000000E+00
  -0.48800000E+01           0.00000000E+00
  -0.48700000E+01           0.00000000E+00
  -0.48600000E+01           0.00000000E+00
  -0.48500000E+01           0.00000000E+00
  -0.48400000E+01           0.00000000E+00
  -0.48300000E+01           0.00000000E+00
  -0.48200000E+01           0.00000000E+00
  -0.48100000E+01           0.00000000E+00
  -0.48000000E+01           0.00000000E+00
  -0.47900000E+01           0.00000000E+00
  -0.47800000E+01           0.00000000E+00
  -0.47700000E+01           0.00000000E+00
  -0.47600000E+01           0.00000000E+00
  -0.47500000E+01           0.00000000E+00
  -0.47400000E+01           0.00000000E+00
  -0.47300000E+01           0.00000000E+00
  -0.47200000E+01           0.00000000E+00
  -0.47100000E+01           0.00000000E+00
  -0.47000000E+01           0.00000000E+00
  -0.46900000E+01           0.00000000E+00
  -0.46800000E+01           0.00000000E+00
  -0.46700000E+01           0.00000000E+00
  -0.46600000E+01           0.00000000E+00
  -0.46500000E+01           0.00000000E+00
  -0.46400000E+01           0.00000000E+00
  -0.46300000E+01           0.00000000E+00
  -0.46200000E+01           0.00000000E+00
  -0.46100000E+01           0.00000000E+00
  -0.46000000E+01           0.00000000E+00
  -0.45900000E+01           0.00000000E+00
  -0.45800000E+01           0.00000000E+00
  -0.45700000E+01           0.00000000E+00
  -0.45600000E+01           0.00000000E+00
  -0.45500000E+01           0.00000000E+00
  -0.45400000E+01           0.00000000E+00
  -0.45300000E+01           0.00000000E+00
  -0.45200000E+01           0.00000000E+00
  -0.45100000E+01           0.00000000E+00
  -0.45000000E+01           0.00000000E+00
  -0.44900000E+01           0.00000000E+00
  -0.44800000E+01           0.00000000E+00
  -0.44700000E+01           0.00000000E+00
  -0.44600000E+01           0.00000000E+00
  -0.44500000E+01           0.00000000E+00
  -0.44400000E+01           0.00000000E+00
  -0.44300000E+01           0.00000000E+00
  -0.44200000E+01           0.00000000E+00
  -0.44100000E+01           0.00000000E+00
  -0.44000000E+01           0.00000000E+00
  -0.43900000E+01           0.00000000E+00
  -0.43800000E+01           0.00000000E+00
  -0.43700000E+01           0.00000000E+00
  -0.43600000E+01           0.00000000E+00
  -0.43500000E+01           0.00000000E+00
  -0.43400000E+01           0.00000000E+00
  -0.43300000E+01           0.00000000E+00
  -0.43200000E+01           0.00000000E+00
  -0.43100000E+01           0.00000000E+00
  -0.43000000E+01           0.00000000E+00
  -0.42900000E+01           0.00000000E+00
  -0.42800000E+01           0.00000000E+00
  -0.42700000E+01           0.00000000E+00
  -0.42600000E+01           0.00000000E+00
  -0.42500000E+01           0.00000000E+00
  -0.42400000E+01           0.00000000E+00
  -0.42300000E+01           0.00000000E+00
  -0.42200000E+01           0.00000000E+00
  -0.42100000E+01           0.00000000E+00
  -0.42000000E+01           0.00000000E+00
  -0.41900000E+01           0.00000000E+00
  -0.41800000E+01           0.00000000E+00
  -0.41700000E+01           0.00000000E+00
  -0.41600000E+01           0.00000000E+00
  -0.41500000E+01           0.00000000E+00
  -0.41400000E+01           0.00000000E+00
  -0.41300000E+01           0.00000000E+00
  -0.41200000E+01           0.00000000E+00
  -0.41100000E+01           0.00000000E+00
  -0.41000000E+01           0.00000000E+00
  -0.40900000E+01           0.00000000E+00
  -0.40800000E+01           0.00000000E+00
  -0.40700000E+01           0.00000000E+00
  -0.40600000E+01           0.00000000E+00
  -0.40500000E+01           0.00000000E+00
  -0.40400000E+01           0.00000000E+00
  -0.40300000E+01           0.00000000E+00
  -0.40200000E+01           0.00000000E+00
  -0.40100000E+01           0.00000000E+00
  -0.40000000E+01           0.00000000E+00
  -0.39900000E+01           0.00000000E+00
  -0.39800000E+01           0.00000000E+00
  -0.39700000E+01           0.00000000E+00
  -0.39600000E+01           0.00000000E+00
  -0.39500000E+01           0.00000000E+00
  -0.39400000E+01           0.00000000E+00
  -0.39300000E+01           0.00000000E+00
  -0.39200000E+01           0.00000000E+00
  -0.39100000E+01           0.00000000E+00
  -0.39000000E+01           0.00000000E+00
  -0.38900000E+01           0.00000000E+00
  -0.38800000E+01           0.00000000E+00
  -0.38700000E+01           0.00000000E+00
  -0.38600000E+01           0.00000000E+00
  -0.38500000E+01           0.00000000E+00
  -0.38400000E+01           0.00000000E+00
  -0.38300000E+01           0.00000000E+00
  -0.38200000E+01           0.00000000E+00
  -0.38100000E+01           0.00000000E+00
  -0.38000000E+01           0.00000000E+00
  -0.37900000E+01           0.00000000E+00
  -0.37800000E+01           0.00000000E+00
  -0.37700000E+01           0.00000000E+00
  -0.37600000E+01           0.00000000E+00
  -0.37500000E+01           0.00000000E+00
  -0.37400000E+01           0.00000000E+00
  -0.37300000E+01           0.00000000E+00
  -0.37200000E+01           0.00000000E+00
  -0.37100000E+01           0.00000000E+00
  -0.37000000E+01           0.00000000E+00
  -0.36900000E+01           0.00000000E+00
  -0.36800000E+01           0.00000000E+00
  -0.36700000E+01           0.00000000E+00
  -0.36600000E+01           0.00000000E+00
  -0.36500000E+01           0.00000000E+00
  -0.36400000E+01           0.00000000E+00
  -0.36300000E+01           0.00000000E+00
  -0.36200000E+01           0.00000000E+00
  -0.36100000E+01           0.00000000E+00
  -0.36000000E+01           0.00000000E+00
  -0.35900000E+01           0.00000000E+00
  -0.35800000E+01           0.00000000E+00
  -0.35700000E+01           0.00000000E+00
  -0.35600000E+01           0.00000000E+00
  -0.35500000E+01           0.00000000E+00
  -0.35400000E+01           0.00000000E+00
  -0.35300000E+01           0.00000000E+00
  -0.35200000E+01           0.00000000E+00
  -0.35100000E+01           0.00000000E+00
  -0.35000000E+01           0.00000000E+00
  -0.34900000E+01           0.00000000E+00
  -0.34800000E+01           0.00000000E+00
  -0.34700000E+01           0.00000000E+00
  -0.34600000E+01           0.00000000E+00
  -0.34500000E+01           0.00000000E+00
  -0.34400000E+01           0.00000000E+00
  -0.34300000E+01           0.00000000E+00
  -0.34200000E+01           0.00000000E+00
  -0.34100000E+01           0.00000000E+00
  -0.34000000E+01           0.00000000E+00
  -0.33900000E+01           0.00000000E+00
  -0.33800000E+01           0.00000000E+00
  -0.33700000E+01           0.00000000E+00
  -0.33600000E+01           0.00000000E+00
  -0.33500000E+01           0.00000000E+00
  -0.33400000E+01           0.00000000E+00
  -0.33300000E+01           0.00000000E+00
  -0.33200000E+01           0.00000000E+00
  -0.33100000E+01           0.00000000E+00
  -0.33000000E+01           0.00000000E+00
  -0.32900000E+01           0.00000000E+00
  -0.32800000E+01           0.00000000E+00
  -0.32700000E+01           0.00000000E+00
  -0.32600000E+01           0.00000000E+00
  -0.32500000E+01           0.00000000E+00
  -0.32400000E+01           0.00000000E+00
  -0.32300000E+01           0.00000000E+00
  -0.32200000E+01           0.00000000E+00
  -0.32100000E+01           0.00000000E+00
  -0.32000000E+01           0.00000000E+00
  -0.31900000E+01           0.00000000E+00
  -0.31800000E+01           0.00000000E+00
  -0.31700000E+01           0.00000000E+00
  -0.31600000E+01           0.00000000E+00
  -0.31500000E+01           0.00000000E+00
  -0.31400000E+01           0.00000000E+00
  -0.31300000E+01           0.00000000E+00
  -0.31200000E+01           0.00000000E+00
  -0.31100000E+01           0.00000000E+00
  -0.31000000E+01           0.00000000E+00
  -0.30900000E+01           0.00000000E+00
  -0.30800000E+01           0.00000000E+00
  -0.30700000E+01           0.00000000E+00
  -0.30600000E+01           0.00000000E+00
  -0.30500000E+01           0.00000000E+00
  -0.30400000E+01           0.00000000E+00
  -0.30300000E+01           0.00000000E+00
  -0.30200000E+01           0.00000000E+00
  -0.30100000E+01           0.00000000E+00
  -0.30000000E+01           0.00000000E+00
  -0.29900000E+01           0.00000000E+00
  -0.29800000E+01           0.00000000E+00
  -0.29700000E+01           0.00000000E+00
  -0.29600000E+01           0.00000000E+00
  -0.29500000E+01           0.00000000E+00
  -0.29400000E+01           0.00000000E+00
  -0.29300000E+01           0.00000000E+00
  -0.29200000E+01           0.00000000E+00
  -0.29100000E+01           0.00000000E+00
  -0.29000000E+01           0.00000000E+00
  -0.28900000E+01           0.00000000E+00
  -0.28800000E+01           0.00000000E+00
  -0.28700000E+01           0.00000000E+00
  -0.28600000E+01           0.00000000E+00
  -0.28500000E+01           0.00000000E+00
  -0.28400000E+01           0.00000000E+00
  -0.28300000E+01           0.00000000E+00
  -0.28200000E+01           0.00000000E+00
  -0.28100000E+01           0.00000000E+00
  -0.28000000E+01           0.00000000E+00
  -0.27900000E+01           0.00000000E+00
  -0.27800000E+01           0.00000000E+00
  -0.27700000E+01           0.00000000E+00
  -0.27600000E+01           0.00000000E+00
  -0.27500000E+01           0.00000000E+00
  -0.27400000E+01           0.00000000E+00
  -0.27300000E+01           0.00000000E+00
  -0.27200000E+01           0.00000000E+00
  -0.27100000E+01           0.00000000E+00
  -0.27000000E+01           0.00000000E+00
  -0.26900000E+01           0.00000000E+00
  -0.26800000E+01           0.00000000E+00
  -0.26700000E+01           0.00000000E+00
  -0.26600000E+01           0.00000000E+00
  -0.26500000E+01           0.00000000E+00
  -0.26400000E+01           0.00000000E+00
  -0.26300000E+01           0.00000000E+00
  -0.26200000E+01           0.00000000E+00
  -0.26100000E+01           0.00000000E+00
  -0.26000000E+01           0.00000000E+00
  -0.25900000E+01           0.00000000E+00
  -0.25800000E+01           0.00000000E+00
  -0.25700000E+01           0.00000000E+00
  -0.25600000E+01           0.00000000E+00
  -0.25500000E+01           0.00000000E+00
  -0.25400000E+01           0.00000000E+00
  -0.25300000E+01           0.00000000E+00
  -0.25200000E+01           0.00000000E+00
  -0.25100000E+01           0.00000000E+00
  -0.25000000E+01           0.00000000E+00
  -0.24900000E+01           0.00000000E+00
  -0.24800000E+01           0.00000000E+00
  -0.24700000E+01           0.00000000E+00
  -0.24600000E+01           0.00000000E+00
  -0.24500000E+01           0.00000000E+00
  -0.24400000E+01           0.00000000E+00
  -0.24300000E+01           0.00000000E+00
  -0.24200000E+01           0.00000000E+00
  -0.24100000E+01           0.00000000E+00
  -0.24000000E+01           0.00000000E+00
  -0.23900000E+01           0.00000000E+00
  -0.23800000E+01           0.00000000E+00
  -0.23700000E+01           0.00000000E+00
  -0.23600000E+01           0.00000000E+00
  -0.23500000E+01           0.00000000E+00
  -0.23400000E+01           0.00000000E+00
  -0.23300000E+01           0.00000000E+00
  -0.23200000E+01           0.00000000E+00
  -0.23100000E+01           0.00000000E+00
  -0.23000000E+01           0.00000000E+00
  -0.22900000E+01           0.00000000E+00
  -0.22800000E+01           0.00000000E+00
  -0.22700000E+01           0.00000000E+00
  -0.22600000E+01           0.00000000E+00
  -0.22500000E+01           0.00000000E+00
  -0.22400000E+01           0.00000000E+00
  -0.22300000E+01           0.00000000E+00
  -0.22200000E+01           0.00000000E+00
  -0.22100000E+01           0.00000000E+00
  -0.22000000E+01           0.00000000E+00
  -0.21900000E+01           0.00000000E+00
  -0.21800000E+01           0.00000000E+00
  -0.21700000E+01           0.00000000E+00
  -0.21600000E+01           0.00000000E+00
  -0.21500000E+01           0.00000000E+00
  -0.21400000E+01           0.00000000E+00
  -0.21300000E+01           0.00000000E+00
  -0.21200000E+01           0.00000000E+00
  -0.21100000E+01           0.00000000E+00
  -0.21000000E+01           0.00000000E+00
  -0.20900000E+01           0.00000000E+00
  -0.20800000E+01           0.00000000E+00
  -0.20700000E+01           0.00000000E+00
  -0.20600000E+01           0.00000000E+00
  -0.20500000E+01           0.00000000E+00
  -0.20400000E+01           0.00000000E+00
  -0.20300000E+01           0.00000000E+00
  -0.20200000E+01           0.00000000E+00
  -0.20100000E+01           0.00000000E+00
  -0.20000000E+01           0.00000000E+00
  -0.19900000E+01           0.00000000E+00
  -0.19800000E+01           0.00000000E+00
  -0.19700000E+01           0.00000000E+00
  -0.19600000E+01           0.00000000E+00
  -0.19500000E+01           0.00000000E+00
  -0.19400000E+01           0.00000000E+00
  -0.19300000E+01           0.00000000E+00
  -0.19200000E+01           0.00000000E+00
  -0.19100000E+01           0.00000000E+00
  -0.19000000E+01           0.00000000E+00
  -0.18900000E+01           0.00000000E+00
  -0.18800000E+01           0.00000000E+00
  -0.18700000E+01           0.00000000E+00
  -0.18600000E+01           0.00000000E+00
  -0.18500000E+01           0.00000000E+00
  -0.18400000E+01           0.00000000E+00
  -0.18300000E+01           0.00000000E+00
  -0.18200000E+01           0.00000000E+00
  -0.18100000E+01           0.00000000E+00
  -0.18000000E+01           0.00000000E+00
  -0.17900000E+01           0.00000000E+00
  -0.17800000E+01           0.00000000E+00
  -0.17700000E+01           0.00000000E+00
  -0.17600000E+01           0.00000000E+00
  -0.17500000E+01           0.00000000E+00
  -0.17400000E+01           0.00000000E+00
  -0.17300000E+01           0.00000000E+00
  -0.17200000E+01           0.00000000E+00
  -0.17100000E+01           0.00000000E+00
  -0.17000000E+01           0.00000000E+00
  -0.16900000E+01           0.00000000E+00
  -0.16800000E+01           0.00000000E+00
  -0.16700000E+01           0.00000000E+00
  -0.16600000E+01           0.00000000E+00
  -0.16500000E+01           0.00000000E+00
  -0.16400000E+01           0.00000000E+00
  -0.16300000E+01           0.00000000E+00
  -0.16200000E+01           0.00000000E+00
  -0.16100000E+01           0.00000000E+00
  -0.16000000E+01           0.00000000E+00
  -0.15900000E+01           0.00000000E+00
  -0.15800000E+01           0.00000000E+00
  -0.15700000E+01           0.00000000E+00
  -0.15600000E+01           0.00000000E+00
  -0.15500000E+01           0.00000000E+00
  -0.15400000E+01           0.00000000E+00
  -0.15300000E+01           0.00000000E+00
  -0.15200000E+01           0.00000000E+00
  -0.15100000E+01           0.00000000E+00
  -0.15000000E+01           0.00000000E+00
  -0.14900000E+01           0.00000000E+00
  -0.14800000E+01           0.00000000E+00
  -0.14700000E+01           0.00000000E+00
  -0.14600000E+01           0.00000000E+00
  -0.14500000E+01           0.00000000E+00
  -0.14400000E+01           0.00000000E+00
  -0.14300000E+01           0.00000000E+00
  -0.14200000E+01           0.00000000E+00
  -0.14100000E+01           0.00000000E+00
  -0.14000000E+01           0.00000000E+00
  -0.13900000E+01           0.00000000E+00
  -0.13800000E+01           0.00000000E+00
  -0.13700000E+01           0.00000000E+00
  -0.13600000E+01           0.00000000E+00
  -0.13500000E+01           0.00000000E+00
  -0.13400000E+01           0.00000000E+00
  -0.13300000E+01           0.00000000E+00
  -0.13200000E+01           0.00000000E+00
  -0.13100000E+01           0.00000000E+00
  -0.13000000E+01           0.00000000E+00
  -0.12900000E+01           0.00000000E+00
  -0.12800000E+01           0.00000000E+00
  -0.12700000E+01           0.00000000E+00
  -0.12600000E+01           0.00000000E+00
  -0.12500000E+01           0.00000000E+00
  -0.12400000E+01           0.00000000E+00
  -0.12300000E+01           0.00000000E+00
  -0.12200000E+01           0.00000000E+00
  -0.12100000E+01           0.00000000E+00
  -0.12000000E+01           0.00000000E+00
  -0.11900000E+01           0.00000000E+00
  -0.11800000E+01           0.00000000E+00
  -0.11700000E+01           0.00000000E+00
  -0.11600000E+01           0.00000000E+00
  -0.11500000E+01           0.00000000E+00
  -0.11400000E+01           0.00000000E+00
  -0.11300000E+01           0.00000000E+00
  -0.11200000E+01           0.00000000E+00
  -0.11100000E+01           0.00000000E+00
  -0.11000000E+01           0.00000000E+00
  -0.10900000E+01           0.00000000E+00
  -0.10800000E+01           0.00000000E+00
  -0.10700000E+01           0.00000000E+00
  -0.10600000E+01           0.00000000E+00
  -0.10500000E+01           0.00000000E+00
  -0.10400000E+01           0.00000000E+00
  -0.10300000E+01           0.00000000E+00
  -0.10200000E+01           0.00000000E+00
  -0.10100000E+01           0.00000000E+00
  -0.10000000E+01           0.00000000E+00
  -0.99000000E+00           0.00000000E+00
  -0.98000000E+00           0.00000000E+00
  -0.97000000E+00           0.00000000E+00
  -0.96000000E+00           0.00000000E+00
  -0.95000000E+00           0.00000000E+00
  -0.94000000E+00           0.00000000E+00
  -0.93000000E+00           0.00000000E+00
  -0.92000000E+00           0.00000000E+00
  -0.91000000E+00           0.00000000E+00
  -0.90000000E+00           0.00000000E+00
  -0.89000000E+00           0.00000000E+00
  -0.88000000E+00           0.00000000E+00
  -0.87000000E+00           0.00000000E+00
  -0.86000000E+00           0.00000000E+00
  -0.85000000E+00           0.00000000E+00
  -0.84000000E+00           0.00000000E+00
  -0.83000000E+00           0.00000000E+00
  -0.82000000E+00           0.00000000E+00
  -0.81000000E+00           0.00000000E+00
  -0.80000000E+00           0.00000000E+00
  -0.79000000E+00           0.00000000E+00
  -0.78000000E+00           0.00000000E+00
  -0.77000000E+00           0.00000000E+00
  -0.76000000E+00           0.00000000E+00
  -0.75000000E+00           0.00000000E+00
  -0.74000000E+00           0.00000000E+00
  -0.73000000E+00           0.00000000E+00
  -0.72000000E+00           0.00000000E+00
  -0.71000000E+00           0.00000000E+00
  -0.70000000E+00           0.00000000E+00
  -0.69000000E+00           0.00000000E+00
  -0.68000000E+00           0.00000000E+00
  -0.67000000E+00           0.00000000E+00
  -0.66000000E+00           0.00000000E+00
  -0.65000000E+00           0.00000000E+00
  -0.64000000E+00           0.00000000E+00
  -0.63000000E+00           0.00000000E+00
  -0.62000000E+00           0.00000000E+00
  -0.61000000E+00           0.00000000E+00
  -0.60000000E+00           0.00000000E+00
  -0.59000000E+00           0.00000000E+00
  -0.58000000E+00           0.00000000E+00
  -0.57000000E+00           0.00000000E+00
  -0.56000000E+00           0.00000000E+00
  -0.55000000E+00           0.00000000E+00
  -0.54000000E+00           0.00000000E+00
  -0.53000000E+00           0.00000000E+00
  -0.52000000E+00           0.00000000E+00
  -0.51000000E+00           0.00000000E+00
  -0.50000000E+00           0.00000000E+00
  -0.49000000E+00           0.00000000E+00
  -0.48000000E+00           0.00000000E+00
  -0.47000000E+00           0.00000000E+00
  -0.46000000E+00           0.00000000E+00
  -0.45000000E+00           0.00000000E+00
  -0.44000000E+00           0.00000000E+00
  -0.43000000E+00           0.00000000E+00
  -0.42000000E+00           0.00000000E+00
  -0.41000000E+00           0.00000000E+00
  -0.40000000E+00           0.00000000E+00
  -0.39000000E+00           0.00000000E+00
  -0.38000000E+00           0.00000000E+00
  -0.37000000E+00           0.00000000E+00
  -0.36000000E+00           0.00000000E+00
  -0.35000000E+00           0.00000000E+00
  -0.34000000E+00           0.00000000E+00
  -0.33000000E+00           0.00000000E+00
  -0.32000000E+00           0.00000000E+00
  -0.31000000E+00           0.00000000E+00
  -0.30000000E+00           0.00000000E+00
  -0.29000000E+00           0.00000000E+00
  -0.28000000E+00           0.00000000E+00
  -0.27000000E+00           0.00000000E+00
  -0.26000000E+00           0.00000000E+00
  -0.25000000E+00           0.00000000E+00
  -0.24000000E+00           0.00000000E+00
  -0.23000000E+00           0.00000000E+00
  -0.22000000E+00           0.00000000E+00
  -0.21000000E+00           0.00000000E+00
  -0.20000000E+00           0.00000000E+00
  -0.19000000E+00           0.00000000E+00
  -0.18000000E+00           0.00000000E+00
  -0.17000000E+00           0.00000000E+00
  -0.16000000E+00           0.00000000E+00
  -0.15000000E+00           0.00000000E+00
  -0.14000000E+00           0.00000000E+00
  -0.13000000E+00           0.00000000E+00
  -0.12000000E+00           0.00000000E+00
  -0.11000000E+00           0.00000000E+00
  -0.10000000E+00           0.00000000E+00
  -0.90000000E-01           0.00000000E+00
  -0.80000000E-01           0.00000000E+00
  -0.70000000E-01           0.00000000E+00
  -0.60000000E-01           0.00000000E+00
  -0.50000000E-01           0.00000000E+00
  -0.40000000E-01           0.00000000E+00
  -0.30000000E-01           0.00000000E+00
  -0.20000000E-01           0.00000000E+00
  -0.10000000E-01           0.00000000E+00
   0.00000000E+00           0.20592593E-03
   0.10000000E-01           0.57992593E-02
   0.20000000E-01           0.22333827E-01
   0.30000000E-01           0.48143951E-01
   0.40000000E-01           0.85313827E-01
   0.50000000E-01           0.13135778E+00
   0.60000000E-01           0.18805852E+00
   0.70000000E-01           0.25278123E+00
   0.80000000E-01           0.32517432E+00
   0.90000000E-01           0.40425407E+00
   0.10000000E+00           0.49298840E+00
   0.11000000E+00           0.58591975E+00
   0.12000000E+00           0.68439259E+00
   0.13000000E+00           0.78416123E+00
   0.14000000E+00           0.88780914E+00
   0.15000000E+00           0.99122889E+00
   0.16000000E+00           0.11005244E+01
   0.17000000E+00           0.12067151E+01
   0.18000000E+00           0.13134336E+01
   0.19000000E+00           0.14193854E+01
   0.20000000E+00           0.15142202E+01
   0.21000000E+00           0.16138020E+01
   0.22000000E+00           0.17079523E+01
   0.23000000E+00           0.17954573E+01
   0.24000000E+00           0.18766672E+01
   0.25000000E+00           0.19568504E+01
   0.26000000E+00           0.20209780E+01
   0.27000000E+00           0.20841383E+01
   0.28000000E+00           0.21396923E+01
   0.29000000E+00           0.21828314E+01
   0.30000000E+00           0.22220481E+01
   0.31000000E+00           0.22529620E+01
   0.32000000E+00           0.22794758E+01
   0.33000000E+00           0.22945042E+01
   0.34000000E+00           0.23048114E+01
   0.35000000E+00           0.23014459E+01
   0.36000000E+00           0.22959175E+01
   0.37000000E+00           0.22837731E+01
   0.38000000E+00           0.22625242E+01
   0.39000000E+00           0.22371975E+01
   0.40000000E+00           0.22032430E+01
   0.41000000E+00           0.21631232E+01
   0.42000000E+00           0.21235988E+01
   0.43000000E+00           0.20751057E+01
   0.44000000E+00           0.20230030E+01
   0.45000000E+00           0.19690881E+01
   0.46000000E+00           0.19134553E+01
   0.47000000E+00           0.18510528E+01
   0.48000000E+00           0.17912131E+01
   0.49000000E+00           0.17291926E+01
   0.50000000E+00           0.16583585E+01
   0.51000000E+00           0.15943262E+01
   0.52000000E+00           0.15268946E+01
   0.53000000E+00           0.14597691E+01
[...]
   0.13600000E+01           0.55833210E+00
   0.13700000E+01           0.55931185E+00
   0.13800000E+01           0.56011012E+00
   0.13900000E+01           0.56152494E+00
   0.14000000E+01           0.56297901E+00
   0.14100000E+01           0.56411802E+00
   0.14200000E+01           0.56487975E+00
   0.14300000E+01           0.56483235E+00
   0.14400000E+01           0.56619284E+00
   0.14500000E+01           0.56684716E+00
   0.14600000E+01           0.56718049E+00
   0.14700000E+01           0.56823259E+00
   0.14800000E+01           0.56780790E+00
   0.14900000E+01           0.56788148E+00
   0.15000000E+01           0.56797358E+00
   0.15100000E+01           0.56815951E+00
   0.15200000E+01           0.56766617E+00
   0.15300000E+01           0.56719827E+00
   0.15400000E+01           0.56683679E+00
   0.15500000E+01           0.56631111E+00
   0.15600000E+01           0.56604198E+00
   0.15700000E+01           0.56538543E+00
   0.15800000E+01           0.56399383E+00
   0.15900000E+01           0.56388173E+00
   0.16000000E+01           0.56316173E+00
   0.16100000E+01           0.56132642E+00
   0.16200000E+01           0.56046198E+00
   0.16300000E+01           0.55916173E+00
   0.16400000E+01           0.55709284E+00
   0.16500000E+01           0.55593037E+00
   0.16600000E+01           0.55472765E+00
   0.16700000E+01           0.55279383E+00
   0.16800000E+01           0.55128741E+00
   0.16900000E+01           0.54883679E+00
   0.17000000E+01           0.54684247E+00
   0.17100000E+01           0.54547062E+00
   0.17200000E+01           0.54271284E+00
   0.17300000E+01           0.54091630E+00
   0.17400000E+01           0.53897457E+00
   0.17500000E+01           0.53693086E+00
   0.17600000E+01           0.53459605E+00
   0.17700000E+01           0.53084988E+00
   0.17800000E+01           0.52874000E+00
   0.17900000E+01           0.52620099E+00
   0.18000000E+01           0.52390247E+00
   0.18100000E+01           0.52094988E+00
   0.18200000E+01           0.51822741E+00
   0.18300000E+01           0.51425728E+00
   0.18400000E+01           0.51260148E+00
   0.18500000E+01           0.50935580E+00
   0.18600000E+01           0.50581383E+00
   0.18700000E+01           0.50243037E+00
   0.18800000E+01           0.49914000E+00
   0.18900000E+01           0.49582667E+00
   0.19000000E+01           0.49259432E+00
   0.19100000E+01           0.48886074E+00
   0.19200000E+01           0.48606741E+00
   0.19300000E+01           0.48174938E+00
   0.19400000E+01           0.47875383E+00
   0.19500000E+01           0.47561901E+00
   0.19600000E+01           0.47150321E+00
   0.19700000E+01           0.46836444E+00
   0.19800000E+01           0.46391975E+00
   0.19900000E+01           0.46064025E+00
   0.20000000E+01           0.45641802E+00
   0.20100000E+01           0.45259185E+00
   0.20200000E+01           0.44893457E+00
   0.20300000E+01           0.44467333E+00
   0.20400000E+01           0.44077827E+00
   0.20500000E+01           0.43704716E+00
   0.20600000E+01           0.43259975E+00
   0.20700000E+01           0.42836889E+00
   0.20800000E+01           0.42442864E+00
   0.20900000E+01           0.42055654E+00
   0.21000000E+01           0.41647852E+00
   0.21100000E+01           0.41202494E+00
   0.21200000E+01           0.40800963E+00
   0.21300000E+01           0.40362864E+00
   0.21400000E+01           0.39978370E+00
   0.21500000E+01           0.39558716E+00
   0.21600000E+01           0.39154741E+00
   0.21700000E+01           0.38704247E+00
   0.21800000E+01           0.38230494E+00
   0.21900000E+01           0.37927012E+00
   0.22000000E+01           0.37419333E+00
   0.22100000E+01           0.37008840E+00
   0.22200000E+01           0.36622247E+00
   0.22300000E+01           0.36170321E+00
   0.22400000E+01           0.35715877E+00
   0.22500000E+01           0.35340272E+00
   0.22600000E+01           0.34931556E+00
   0.22700000E+01           0.34499160E+00
   0.22800000E+01           0.34010000E+00
   0.22900000E+01           0.33624395E+00
   0.23000000E+01           0.33215136E+00
   0.23100000E+01           0.32815160E+00
   0.23200000E+01           0.32352123E+00
   0.23300000E+01           0.31928568E+00
   0.23400000E+01           0.31525630E+00
   0.23500000E+01           0.31095827E+00
   0.23600000E+01           0.30672914E+00
   0.23700000E+01           0.30274691E+00
   0.23800000E+01           0.29903481E+00
   0.23900000E+01           0.29424025E+00
   0.24000000E+01           0.29023630E+00
   0.24100000E+01           0.28724617E+00
   0.24200000E+01           0.28236370E+00
   0.24300000E+01           0.27901852E+00
   0.24400000E+01           0.27460765E+00
   0.24500000E+01           0.26990988E+00
   0.24600000E+01           0.26645531E+00
   0.24700000E+01           0.26274840E+00
   0.24800000E+01           0.25859111E+00
   0.24900000E+01           0.25487728E+00
   0.25000000E+01           0.25120617E+00
   0.25100000E+01           0.24740642E+00
   0.25200000E+01           0.24332469E+00
   0.25300000E+01           0.23961037E+00
   0.25400000E+01           0.23572494E+00
   0.25500000E+01           0.23190469E+00
   0.25600000E+01           0.22871605E+00
   0.25700000E+01           0.22489753E+00
   0.25800000E+01           0.22145481E+00
   0.25900000E+01           0.21763210E+00
   0.26000000E+01           0.21413259E+00
   0.26100000E+01           0.21046543E+00
   0.26200000E+01           0.20652148E+00
   0.26300000E+01           0.20381630E+00
   0.26400000E+01           0.20036691E+00
   0.26500000E+01           0.19642593E+00
   0.26600000E+01           0.19330840E+00
   0.26700000E+01           0.18973975E+00
   0.26800000E+01           0.18665580E+00
   0.26900000E+01           0.18321383E+00
   0.27000000E+01           0.18048099E+00
   0.27100000E+01           0.17699951E+00
   0.27200000E+01           0.17366815E+00
   0.27300000E+01           0.17028247E+00
   0.27400000E+01           0.16728864E+00
   0.27500000E+01           0.16420148E+00
   0.27600000E+01           0.16134395E+00
   0.27700000E+01           0.15851506E+00
   0.27800000E+01           0.15502198E+00
   0.27900000E+01           0.15194000E+00
   0.28000000E+01           0.14978272E+00
   0.28100000E+01           0.14672420E+00
   0.28200000E+01           0.14368198E+00
   0.28300000E+01           0.14157580E+00
   0.28400000E+01           0.13850642E+00
   0.28500000E+01           0.13571852E+00
   0.28600000E+01           0.13315309E+00
   0.28700000E+01           0.13016025E+00
   0.28800000E+01           0.12766914E+00
   0.28900000E+01           0.12515012E+00
   0.29000000E+01           0.12272198E+00
   0.29100000E+01           0.12048049E+00
   0.29200000E+01           0.11774914E+00
   0.29300000E+01           0.11510963E+00
   0.29400000E+01           0.11295383E+00
   0.29500000E+01           0.11032691E+00
   0.29600000E+01           0.10827012E+00
   0.29700000E+01           0.10613531E+00
   0.29800000E+01           0.10356914E+00
   0.29900000E+01           0.10158938E+00
   0.30000000E+01           0.99458025E-01
   0.30100000E+01           0.96972593E-01
   0.30200000E+01           0.95148148E-01
   0.30300000E+01           0.92919506E-01
   0.30400000E+01           0.91004198E-01
   0.30500000E+01           0.88970370E-01
   0.30600000E+01           0.86988642E-01
   0.30700000E+01           0.85366420E-01
   0.30800000E+01           0.83092593E-01
   0.30900000E+01           0.81213827E-01
   0.31000000E+01           0.79084691E-01
   0.31100000E+01           0.77607654E-01
   0.31200000E+01           0.75544938E-01
   0.31300000E+01           0.73822716E-01
   0.31400000E+01           0.72236543E-01
   0.31500000E+01           0.70536049E-01
   0.31600000E+01           0.68840247E-01
   0.31700000E+01           0.67139753E-01
   0.31800000E+01           0.65671852E-01
   0.31900000E+01           0.64051605E-01
   0.32000000E+01           0.62561975E-01
   0.32100000E+01           0.61219753E-01
   0.32200000E+01           0.59655309E-01
   0.32300000E+01           0.58266914E-01
   0.32400000E+01           0.56571358E-01
   0.32500000E+01           0.55231852E-01
   0.32600000E+01           0.53901975E-01
   0.32700000E+01           0.52485185E-01
   0.32800000E+01           0.51180000E-01
   0.32900000E+01           0.50200741E-01
   0.33000000E+01           0.48927654E-01
   0.33100000E+01           0.47500000E-01
   0.33200000E+01           0.46333580E-01
   0.33300000E+01           0.45132840E-01
   0.33400000E+01           0.43822469E-01
   0.33500000E+01           0.42820494E-01
   0.33600000E+01           0.41457037E-01
   0.33700000E+01           0.40606173E-01
   0.33800000E+01           0.39569383E-01
   0.33900000E+01           0.38511852E-01
   0.34000000E+01           0.37497037E-01
   0.34100000E+01           0.36385185E-01
   0.34200000E+01           0.35409877E-01
   0.34300000E+01           0.34611605E-01
   0.34400000E+01           0.33473580E-01
   0.34500000E+01           0.32395309E-01
   0.34600000E+01           0.31704938E-01
   0.34700000E+01           0.30760988E-01
   0.34800000E+01           0.30036543E-01
   0.34900000E+01           0.29031605E-01
   0.35000000E+01           0.28209136E-01
   0.35100000E+01           0.27481235E-01
   0.35200000E+01           0.26756049E-01
   0.35300000E+01           0.25988395E-01
   0.35400000E+01           0.25197037E-01
   0.35500000E+01           0.24461235E-01
   0.35600000E+01           0.23834074E-01
   0.35700000E+01           0.23016296E-01
   0.35800000E+01           0.22371111E-01
   0.35900000E+01           0.21764198E-01
   0.36000000E+01           0.21012840E-01
   0.36100000E+01           0.20491852E-01
   0.36200000E+01           0.19891111E-01
   0.36300000E+01           0.19288148E-01
   0.36400000E+01           0.18623457E-01
   0.36500000E+01           0.18217531E-01
   0.36600000E+01           0.17495062E-01
   0.36700000E+01           0.17066667E-01
   0.36800000E+01           0.16593580E-01
   0.36900000E+01           0.15984444E-01
   0.37000000E+01           0.15554815E-01
   0.37100000E+01           0.14993333E-01
   0.37200000E+01           0.14545679E-01
   0.37300000E+01           0.14135062E-01
   0.37400000E+01           0.13692346E-01
   0.37500000E+01           0.13298025E-01
   0.37600000E+01           0.12781728E-01
   0.37700000E+01           0.12429136E-01
   0.37800000E+01           0.11988889E-01
   0.37900000E+01           0.11588642E-01
   0.38000000E+01           0.11380494E-01
   0.38100000E+01           0.10830123E-01
   0.38200000E+01           0.10496543E-01
   0.38300000E+01           0.10214074E-01
   0.38400000E+01           0.99207407E-02
   0.38500000E+01           0.95140741E-02
   0.38600000E+01           0.91864198E-02
   0.38700000E+01           0.88920988E-02
   0.38800000E+01           0.86140741E-02
   0.38900000E+01           0.82493827E-02
   0.39000000E+01           0.79982716E-02
   0.39100000E+01           0.77738272E-02
   0.39200000E+01           0.74698765E-02
   0.39300000E+01           0.71792593E-02
   0.39400000E+01           0.70483951E-02
   0.39500000E+01           0.67264198E-02
   0.39600000E+01           0.65074074E-02
   0.39700000E+01           0.63543210E-02
   0.39800000E+01           0.59409877E-02
   0.39900000E+01           0.58691358E-02
   0.40000000E+01           0.56792593E-02
   0.40100000E+01           0.54666667E-02
   0.40200000E+01           0.52901235E-02
   0.40300000E+01           0.50696296E-02
   0.40400000E+01           0.49022222E-02
   0.40500000E+01           0.47404938E-02
   0.40600000E+01           0.45562963E-02
   0.40700000E+01           0.43437037E-02
   0.40800000E+01           0.42560494E-02
   0.40900000E+01           0.40651852E-02
   0.41000000E+01           0.39088889E-02
   0.41100000E+01           0.37622222E-02
   0.41200000E+01           0.36066667E-02
   0.41300000E+01           0.34750617E-02
   0.41400000E+01           0.33725926E-02
   0.41500000E+01           0.32501235E-02
   0.41600000E+01           0.31343210E-02
   0.41700000E+01           0.30249383E-02
   0.41800000E+01           0.28340741E-02
   0.41900000E+01           0.27790123E-02
   0.42000000E+01           0.26617284E-02
   0.42100000E+01           0.25404938E-02
   0.42200000E+01           0.24535802E-02
   0.42300000E+01           0.23520988E-02
   0.42400000E+01           0.22264198E-02
   0.42500000E+01           0.22069136E-02
   0.42600000E+01           0.20782716E-02
   0.42700000E+01           0.20387654E-02
   0.42800000E+01           0.19303704E-02
   0.42900000E+01           0.18965432E-02
   0.43000000E+01           0.17856790E-02
   0.43100000E+01           0.17034568E-02
   0.43200000E+01           0.16585185E-02
   0.43300000E+01           0.15916049E-02
   0.43400000E+01           0.15286420E-02
   0.43500000E+01           0.14251852E-02
   0.43600000E+01           0.13780247E-02
   0.43700000E+01           0.13182716E-02
   0.43800000E+01           0.12503704E-02
   0.43900000E+01           0.12446914E-02
   0.44000000E+01           0.11513580E-02
   0.44100000E+01           0.11276543E-02
   0.44200000E+01           0.10644444E-02
   0.44300000E+01           0.10195062E-02
   0.44400000E+01           0.10012346E-02
   0.44500000E+01           0.91580247E-03
   0.44600000E+01           0.90222222E-03
   0.44700000E+01           0.85753086E-03
   0.44800000E+01           0.80888889E-03
   0.44900000E+01           0.78098765E-03
   0.45000000E+01           0.75061728E-03
   0.45100000E+01           0.72987654E-03
   0.45200000E+01           0.66098765E-03
   0.45300000E+01           0.63901235E-03
   0.45400000E+01           0.60938272E-03
   0.45500000E+01           0.61481481E-03
   0.45600000E+01           0.56074074E-03
   0.45700000E+01           0.52197531E-03
   0.45800000E+01           0.51950617E-03
   0.45900000E+01           0.48987654E-03
   0.46000000E+01           0.46962963E-03
   0.46100000E+01           0.44074074E-03
   0.46200000E+01           0.39753086E-03
   0.46300000E+01           0.40543210E-03
   0.46400000E+01           0.38740741E-03
   0.46500000E+01           0.35234568E-03
   0.46600000E+01           0.34320988E-03
   0.46700000E+01           0.33901235E-03
   0.46800000E+01           0.31555556E-03
   0.46900000E+01           0.30024691E-03
   0.47000000E+01           0.28024691E-03
   0.47100000E+01           0.26938272E-03
   0.47200000E+01           0.26000000E-03
   0.47300000E+01           0.24024691E-03
   0.47400000E+01           0.23037037E-03
   0.47500000E+01           0.22641975E-03
   0.47600000E+01           0.20074074E-03
   0.47700000E+01           0.20987654E-03
   0.47800000E+01           0.19111111E-03
   0.47900000E+01           0.16395062E-03
   0.48000000E+01           0.16567901E-03
   0.48100000E+01           0.16172840E-03
   0.48200000E+01           0.15432099E-03
   0.48300000E+01           0.15234568E-03
   0.48400000E+01           0.13012346E-03
   0.48500000E+01           0.12814815E-03
   0.48600000E+01           0.12938272E-03
   0.48700000E+01           0.11481481E-03
   0.48800000E+01           0.11358025E-03
   0.48900000E+01           0.10666667E-03
   0.49000000E+01           0.94320988E-04
   0.49100000E+01           0.90123457E-04
   0.49200000E+01           0.84444444E-04
   0.49300000E+01           0.80000000E-04
   0.49400000E+01           0.77777778E-04
   0.49500000E+01           0.69629630E-04
   0.49600000E+01           0.77283951E-04
   0.49700000E+01           0.60246914E-04
   0.49800000E+01           0.59506173E-04
   0.49900000E+01           0.60493827E-04
   0.50000000E+01           0.53086420E-04
   0.50100000E+01           0.53827160E-04
   0.50200000E+01           0.47160494E-04
   0.50300000E+01           0.47160494E-04
   0.50400000E+01           0.46666667E-04
   0.50500000E+01           0.36543210E-04
   0.50600000E+01           0.38024691E-04
   0.50700000E+01           0.37283951E-04
   0.50800000E+01           0.35061728E-04
   0.50900000E+01           0.28148148E-04
   0.51000000E+01           0.29876543E-04
   0.51100000E+01           0.26172840E-04
   0.51200000E+01           0.19012346E-04
   0.51300000E+01           0.23456790E-04
   0.51400000E+01           0.17283951E-04
   0.51500000E+01           0.19012346E-04
   0.51600000E+01           0.16049383E-04
   0.51700000E+01           0.14814815E-04
   0.51800000E+01           0.14567901E-04
   0.51900000E+01           0.12839506E-04
   0.52000000E+01           0.17777778E-04
   0.52100000E+01           0.14814815E-04
   0.52200000E+01           0.11604938E-04
   0.52300000E+01           0.10864198E-04
   0.52400000E+01           0.83950617E-05
   0.52500000E+01           0.83950617E-05
   0.52600000E+01           0.98765432E-05
   0.52700000E+01           0.88888889E-05
   0.52800000E+01           0.10864198E-04
   0.52900000E+01           0.83950617E-05
   0.53000000E+01           0.71604938E-05
   0.53100000E+01           0.59259259E-05
   0.53200000E+01           0.46913580E-05
   0.53300000E+01           0.34567901E-05
   0.53400000E+01           0.56790123E-05
   0.53500000E+01           0.34567901E-05
   0.53600000E+01           0.44444444E-05
   0.53700000E+01           0.54320988E-05
   0.53800000E+01           0.27160494E-05
   0.53900000E+01           0.29629630E-05
   0.54000000E+01           0.29629630E-05
   0.54100000E+01           0.17283951E-05
   0.54200000E+01           0.19753086E-05
   0.54300000E+01           0.19753086E-05
   0.54400000E+01           0.17283951E-05
   0.54500000E+01           0.19753086E-05
   0.54600000E+01           0.49382716E-06
   0.54700000E+01           0.24691358E-05
   0.54800000E+01           0.14814815E-05
   0.54900000E+01           0.17283951E-05
   0.55000000E+01           0.12345679E-05
   0.55100000E+01           0.12345679E-05
   0.55200000E+01           0.98765432E-06
   0.55300000E+01           0.49382716E-06
   0.55400000E+01           0.24691358E-06
   0.55500000E+01           0.49382716E-06
   0.55600000E+01           0.74074074E-06
   0.55700000E+01           0.24691358E-06
   0.55800000E+01           0.24691358E-06
   0.55900000E+01           0.00000000E+00
   0.56000000E+01           0.00000000E+00
   0.56100000E+01           0.74074074E-06
   0.56200000E+01           0.00000000E+00
   0.56300000E+01           0.00000000E+00
   0.56400000E+01           0.24691358E-06
   0.56500000E+01           0.49382716E-06
   0.56600000E+01           0.74074074E-06
   0.56700000E+01           0.24691358E-06
   0.56800000E+01           0.00000000E+00
   0.56900000E+01           0.24691358E-06
   0.57000000E+01           0.00000000E+00
   0.57100000E+01           0.00000000E+00
   0.57200000E+01           0.00000000E+00
   0.57300000E+01           0.00000000E+00
   0.57400000E+01           0.49382716E-06
   0.57500000E+01           0.00000000E+00
   0.57600000E+01           0.00000000E+00
   0.57700000E+01           0.00000000E+00
   0.57800000E+01           0.00000000E+00
   0.57900000E+01           0.00000000E+00
   0.58000000E+01           0.00000000E+00
   0.58100000E+01           0.00000000E+00
   0.58200000E+01           0.00000000E+00
   0.58300000E+01           0.00000000E+00
   0.58400000E+01           0.00000000E+00
   0.58500000E+01           0.00000000E+00
   0.58600000E+01           0.00000000E+00
   0.58700000E+01           0.00000000E+00
   0.58800000E+01           0.00000000E+00
   0.58900000E+01           0.00000000E+00
   0.59000000E+01           0.00000000E+00
   0.59100000E+01           0.00000000E+00
   0.59200000E+01           0.00000000E+00
   0.59300000E+01           0.00000000E+00
   0.59400000E+01           0.00000000E+00
   0.59500000E+01           0.00000000E+00
   0.59600000E+01           0.00000000E+00
   0.59700000E+01           0.00000000E+00
   0.59800000E+01           0.00000000E+00
   0.59900000E+01           0.00000000E+00
   0.60000000E+01           0.00000000E+00
