 #written on  3Dec2024 at 13:34:05 
 #----------------------------------------------- MONTECARLO ---------------------------------------------------#
 # Temp      Magnetization     Energy_ave          C_M              Sus              U_E              U_M       #
 #--------------------------------------------------------------------------------------------------------------#
   5.0000   0.19693511E-02  -0.22322230E+03   0.10081218E+01   0.33554133E-03   0.66666639E+00   0.44503399E+00
   6.0000   0.21561021E-02  -0.22220811E+03   0.10218941E+01   0.33691090E-03   0.66666626E+00   0.44309735E+00
   7.0000   0.23332663E-02  -0.22118863E+03   0.10222610E+01   0.33716424E-03   0.66666610E+00   0.44387749E+00
   8.0000   0.24933399E-02  -0.22016360E+03   0.10207326E+01   0.33564271E-03   0.66666593E+00   0.44495104E+00
   9.0000   0.26459522E-02  -0.21913690E+03   0.10234280E+01   0.33609048E-03   0.66666572E+00   0.44458792E+00
  10.0000   0.27846534E-02  -0.21810335E+03   0.10326879E+01   0.33543394E-03   0.66666548E+00   0.44437347E+00
  11.0000   0.29230939E-02  -0.21706592E+03   0.10435874E+01   0.33614636E-03   0.66666520E+00   0.44452971E+00
  12.0000   0.30572329E-02  -0.21602279E+03   0.10393753E+01   0.33640369E-03   0.66666491E+00   0.44487483E+00
  13.0000   0.31783596E-02  -0.21497308E+03   0.10560208E+01   0.33674426E-03   0.66666455E+00   0.44344643E+00
  14.0000   0.33045471E-02  -0.21392083E+03   0.10554411E+01   0.33745114E-03   0.66666419E+00   0.44452496E+00
  15.0000   0.34161526E-02  -0.21285838E+03   0.10608196E+01   0.33642073E-03   0.66666378E+00   0.44457687E+00
  16.0000   0.35283635E-02  -0.21179565E+03   0.10666461E+01   0.33634890E-03   0.66666333E+00   0.44493985E+00
  17.0000   0.36363209E-02  -0.21072324E+03   0.10713670E+01   0.33651269E-03   0.66666284E+00   0.44421315E+00
  18.0000   0.37481862E-02  -0.20964530E+03   0.10807536E+01   0.33766232E-03   0.66666230E+00   0.44442472E+00
  19.0000   0.38500924E-02  -0.20855859E+03   0.10907197E+01   0.33864346E-03   0.66666170E+00   0.44340874E+00
  20.0000   0.39504789E-02  -0.20746459E+03   0.10956838E+01   0.33675065E-03   0.66666108E+00   0.44529503E+00
  21.0000   0.40465206E-02  -0.20636441E+03   0.11081404E+01   0.33784580E-03   0.66666037E+00   0.44430069E+00
  22.0000   0.41462668E-02  -0.20525363E+03   0.11172695E+01   0.33831837E-03   0.66665962E+00   0.44489193E+00
  23.0000   0.42438941E-02  -0.20413514E+03   0.11332395E+01   0.33915553E-03   0.66665877E+00   0.44418392E+00
  24.0000   0.43335052E-02  -0.20300358E+03   0.11396348E+01   0.33856297E-03   0.66665793E+00   0.44428417E+00
  25.0000   0.44236281E-02  -0.20186462E+03   0.11467349E+01   0.33839940E-03   0.66665702E+00   0.44482757E+00
  26.0000   0.45137003E-02  -0.20071140E+03   0.11587746E+01   0.33949483E-03   0.66665600E+00   0.44452933E+00
  27.0000   0.46012638E-02  -0.19955133E+03   0.11721333E+01   0.33937933E-03   0.66665489E+00   0.44438752E+00
  28.0000   0.46846940E-02  -0.19837506E+03   0.11882645E+01   0.33847485E-03   0.66665368E+00   0.44481365E+00
  29.0000   0.47697402E-02  -0.19718435E+03   0.12040568E+01   0.33973183E-03   0.66665238E+00   0.44438670E+00
  30.0000   0.48531567E-02  -0.19597252E+03   0.12175463E+01   0.33991279E-03   0.66665101E+00   0.44410715E+00
  31.0000   0.49396222E-02  -0.19475042E+03   0.12366495E+01   0.34112689E-03   0.66664948E+00   0.44415184E+00
  32.0000   0.50208005E-02  -0.19350365E+03   0.12641307E+01   0.34119801E-03   0.66664770E+00   0.44405551E+00
  33.0000   0.50962578E-02  -0.19223178E+03   0.12874031E+01   0.34052071E-03   0.66664585E+00   0.44398933E+00
  34.0000   0.51815895E-02  -0.19093109E+03   0.13080302E+01   0.34132992E-03   0.66664391E+00   0.44493197E+00
  35.0000   0.52542790E-02  -0.18960201E+03   0.13434617E+01   0.34174659E-03   0.66664155E+00   0.44391400E+00
  36.0000   0.53340387E-02  -0.18824340E+03   0.13864728E+01   0.34191990E-03   0.66663885E+00   0.44470837E+00
  37.0000   0.54102571E-02  -0.18684452E+03   0.14231512E+01   0.34283413E-03   0.66663605E+00   0.44463042E+00
  38.0000   0.54889532E-02  -0.18538629E+03   0.14779508E+01   0.34269935E-03   0.66663261E+00   0.44477816E+00
  39.0000   0.55625491E-02  -0.18388991E+03   0.15316852E+01   0.34351085E-03   0.66662888E+00   0.44417452E+00
  40.0000   0.56433903E-02  -0.18231611E+03   0.16001623E+01   0.34421602E-03   0.66662442E+00   0.44448623E+00
  41.0000   0.57123602E-02  -0.18067356E+03   0.16881351E+01   0.34504100E-03   0.66661899E+00   0.44371352E+00
  42.0000   0.57928396E-02  -0.17894856E+03   0.17660775E+01   0.34538443E-03   0.66661331E+00   0.44524464E+00
  43.0000   0.58619175E-02  -0.17711874E+03   0.18876081E+01   0.34532429E-03   0.66660565E+00   0.44464680E+00
  44.0000   0.59396957E-02  -0.17518204E+03   0.19992041E+01   0.34690784E-03   0.66659750E+00   0.44476755E+00
  45.0000   0.60074215E-02  -0.17316216E+03   0.20495891E+01   0.34695464E-03   0.66659075E+00   0.44460770E+00
  46.0000   0.60770995E-02  -0.17108212E+03   0.20917991E+01   0.34679313E-03   0.66658372E+00   0.44531262E+00
  47.0000   0.61461995E-02  -0.16899576E+03   0.20856726E+01   0.34769447E-03   0.66657817E+00   0.44481478E+00
  48.0000   0.62094649E-02  -0.16694515E+03   0.20152953E+01   0.34768518E-03   0.66657526E+00   0.44415879E+00
  49.0000   0.62731012E-02  -0.16495797E+03   0.19253222E+01   0.34745069E-03   0.66657345E+00   0.44429214E+00
  50.0000   0.63379409E-02  -0.16309348E+03   0.18221132E+01   0.34733872E-03   0.66657270E+00   0.44514808E+00
  51.0000   0.63999452E-02  -0.16131550E+03   0.17103367E+01   0.34728269E-03   0.66657286E+00   0.44454547E+00
  52.0000   0.64498143E-02  -0.15966936E+03   0.15963453E+01   0.34554545E-03   0.66657376E+00   0.44495796E+00
  53.0000   0.65086897E-02  -0.15812468E+03   0.14955700E+01   0.34628012E-03   0.66657447E+00   0.44409575E+00
  54.0000   0.65641199E-02  -0.15667388E+03   0.14099777E+01   0.34465955E-03   0.66657476E+00   0.44469781E+00
  55.0000   0.66240800E-02  -0.15529661E+03   0.13386395E+01   0.34533033E-03   0.66657453E+00   0.44458590E+00
  56.0000   0.66743102E-02  -0.15398955E+03   0.12764013E+01   0.34498105E-03   0.66657404E+00   0.44405781E+00
  57.0000   0.67251046E-02  -0.15274805E+03   0.12202414E+01   0.34327858E-03   0.66657343E+00   0.44470079E+00
  58.0000   0.67785030E-02  -0.15155509E+03   0.11643362E+01   0.34276731E-03   0.66657311E+00   0.44436928E+00
  59.0000   0.68301658E-02  -0.15041171E+03   0.11208274E+01   0.34285512E-03   0.66657205E+00   0.44410170E+00
  60.0000   0.68800038E-02  -0.14930874E+03   0.10757263E+01   0.34200983E-03   0.66657136E+00   0.44413384E+00
  61.0000   0.69274491E-02  -0.14824844E+03   0.10449445E+01   0.34049981E-03   0.66656960E+00   0.44464931E+00
  62.0000   0.69763032E-02  -0.14721287E+03   0.10109222E+01   0.33944086E-03   0.66656829E+00   0.44475650E+00
  63.0000   0.70251819E-02  -0.14622490E+03   0.98631183E+00   0.33947743E-03   0.66656623E+00   0.44421058E+00
  64.0000   0.70733633E-02  -0.14525451E+03   0.95683356E+00   0.33807680E-03   0.66656476E+00   0.44458950E+00
  65.0000   0.71205332E-02  -0.14431070E+03   0.92827439E+00   0.33732702E-03   0.66656335E+00   0.44492152E+00
  66.0000   0.71714385E-02  -0.14339998E+03   0.90386093E+00   0.33694904E-03   0.66656163E+00   0.44484233E+00
  67.0000   0.72166502E-02  -0.14250140E+03   0.88122819E+00   0.33599726E-03   0.66655980E+00   0.44491457E+00
  68.0000   0.72670857E-02  -0.14162898E+03   0.86254196E+00   0.33629242E-03   0.66655759E+00   0.44420323E+00
  69.0000   0.73055278E-02  -0.14077999E+03   0.84510681E+00   0.33503146E-03   0.66655530E+00   0.44443759E+00
  70.0000   0.73565940E-02  -0.13994836E+03   0.82706028E+00   0.33397609E-03   0.66655316E+00   0.44535564E+00
  71.0000   0.73970459E-02  -0.13912896E+03   0.80545994E+00   0.33351344E-03   0.66655160E+00   0.44467944E+00
  72.0000   0.74449428E-02  -0.13832632E+03   0.79273560E+00   0.33321331E-03   0.66654885E+00   0.44432259E+00
  73.0000   0.74893801E-02  -0.13754005E+03   0.77767031E+00   0.33321754E-03   0.66654650E+00   0.44366816E+00
  74.0000   0.75329130E-02  -0.13676981E+03   0.76228148E+00   0.33128531E-03   0.66654426E+00   0.44487000E+00
  75.0000   0.75707882E-02  -0.13601592E+03   0.74804756E+00   0.33066092E-03   0.66654191E+00   0.44478051E+00
  76.0000   0.76211364E-02  -0.13527082E+03   0.73648667E+00   0.33011728E-03   0.66653915E+00   0.44492273E+00
  77.0000   0.76624765E-02  -0.13454072E+03   0.72406427E+00   0.32962413E-03   0.66653658E+00   0.44495374E+00
  78.0000   0.77088775E-02  -0.13381864E+03   0.71327361E+00   0.32966497E-03   0.66653375E+00   0.44432479E+00
  79.0000   0.77495829E-02  -0.13311089E+03   0.70228420E+00   0.32873448E-03   0.66653099E+00   0.44458828E+00
  80.0000   0.77873362E-02  -0.13241836E+03   0.69191522E+00   0.32772866E-03   0.66652815E+00   0.44452968E+00
  81.0000   0.78309429E-02  -0.13173451E+03   0.68023833E+00   0.32808518E-03   0.66652560E+00   0.44404412E+00
  82.0000   0.78734631E-02  -0.13105657E+03   0.66919157E+00   0.32710045E-03   0.66652297E+00   0.44418999E+00
  83.0000   0.79148310E-02  -0.13039229E+03   0.66071934E+00   0.32615903E-03   0.66651982E+00   0.44482139E+00
  84.0000   0.79553202E-02  -0.12973519E+03   0.65187338E+00   0.32571620E-03   0.66651678E+00   0.44444492E+00
