 #written on  8Aug2024 at 19:16:26 
 #----------------- MONTECARLO -------------------#
 #        M                      P(M)             #
 #------------------------------------------------#
 #T=   270.0000
  -0.20000000E+01           0.00000000E+00
  -0.19900000E+01           0.00000000E+00
  -0.19800000E+01           0.00000000E+00
  -0.19700000E+01           0.00000000E+00
  -0.19600000E+01           0.00000000E+00
  -0.19500000E+01           0.00000000E+00
  -0.19400000E+01           0.00000000E+00
  -0.19300000E+01           0.00000000E+00
  -0.19200000E+01           0.00000000E+00
  -0.19100000E+01           0.00000000E+00
  -0.19000000E+01           0.00000000E+00
  -0.18900000E+01           0.00000000E+00
  -0.18800000E+01           0.00000000E+00
  -0.18700000E+01           0.00000000E+00
  -0.18600000E+01           0.00000000E+00
  -0.18500000E+01           0.00000000E+00
  -0.18400000E+01           0.00000000E+00
  -0.18300000E+01           0.00000000E+00
  -0.18200000E+01           0.00000000E+00
  -0.18100000E+01           0.00000000E+00
  -0.18000000E+01           0.00000000E+00
  -0.17900000E+01           0.00000000E+00
  -0.17800000E+01           0.00000000E+00
  -0.17700000E+01           0.00000000E+00
  -0.17600000E+01           0.00000000E+00
  -0.17500000E+01           0.00000000E+00
  -0.17400000E+01           0.00000000E+00
  -0.17300000E+01           0.00000000E+00
  -0.17200000E+01           0.00000000E+00
  -0.17100000E+01           0.00000000E+00
  -0.17000000E+01           0.00000000E+00
  -0.16900000E+01           0.00000000E+00
  -0.16800000E+01           0.00000000E+00
  -0.16700000E+01           0.00000000E+00
  -0.16600000E+01           0.00000000E+00
  -0.16500000E+01           0.00000000E+00
  -0.16400000E+01           0.00000000E+00
  -0.16300000E+01           0.00000000E+00
  -0.16200000E+01           0.00000000E+00
  -0.16100000E+01           0.00000000E+00
  -0.16000000E+01           0.00000000E+00
  -0.15900000E+01           0.00000000E+00
  -0.15800000E+01           0.00000000E+00
  -0.15700000E+01           0.00000000E+00
  -0.15600000E+01           0.00000000E+00
  -0.15500000E+01           0.00000000E+00
  -0.15400000E+01           0.00000000E+00
  -0.15300000E+01           0.00000000E+00
  -0.15200000E+01           0.00000000E+00
  -0.15100000E+01           0.00000000E+00
  -0.15000000E+01           0.00000000E+00
  -0.14900000E+01           0.00000000E+00
  -0.14800000E+01           0.00000000E+00
  -0.14700000E+01           0.00000000E+00
  -0.14600000E+01           0.00000000E+00
  -0.14500000E+01           0.00000000E+00
  -0.14400000E+01           0.00000000E+00
  -0.14300000E+01           0.00000000E+00
  -0.14200000E+01           0.00000000E+00
  -0.14100000E+01           0.00000000E+00
  -0.14000000E+01           0.00000000E+00
  -0.13900000E+01           0.00000000E+00
  -0.13800000E+01           0.00000000E+00
  -0.13700000E+01           0.00000000E+00
  -0.13600000E+01           0.00000000E+00
  -0.13500000E+01           0.00000000E+00
  -0.13400000E+01           0.00000000E+00
  -0.13300000E+01           0.00000000E+00
  -0.13200000E+01           0.00000000E+00
  -0.13100000E+01           0.00000000E+00
  -0.13000000E+01           0.00000000E+00
  -0.12900000E+01           0.00000000E+00
  -0.12800000E+01           0.00000000E+00
  -0.12700000E+01           0.00000000E+00
  -0.12600000E+01           0.00000000E+00
  -0.12500000E+01           0.00000000E+00
  -0.12400000E+01           0.00000000E+00
  -0.12300000E+01           0.00000000E+00
  -0.12200000E+01           0.00000000E+00
  -0.12100000E+01           0.00000000E+00
  -0.12000000E+01           0.00000000E+00
  -0.11900000E+01           0.00000000E+00
  -0.11800000E+01           0.00000000E+00
  -0.11700000E+01           0.00000000E+00
  -0.11600000E+01           0.00000000E+00
  -0.11500000E+01           0.00000000E+00
  -0.11400000E+01           0.00000000E+00
  -0.11300000E+01           0.00000000E+00
  -0.11200000E+01           0.00000000E+00
  -0.11100000E+01           0.00000000E+00
  -0.11000000E+01           0.00000000E+00
  -0.10900000E+01           0.00000000E+00
  -0.10800000E+01           0.00000000E+00
  -0.10700000E+01           0.00000000E+00
  -0.10600000E+01           0.00000000E+00
  -0.10500000E+01           0.00000000E+00
  -0.10400000E+01           0.00000000E+00
  -0.10300000E+01           0.00000000E+00
  -0.10200000E+01           0.00000000E+00
  -0.10100000E+01           0.00000000E+00
  -0.10000000E+01           0.00000000E+00
  -0.99000000E+00           0.00000000E+00
  -0.98000000E+00           0.00000000E+00
  -0.97000000E+00           0.00000000E+00
  -0.96000000E+00           0.00000000E+00
  -0.95000000E+00           0.00000000E+00
  -0.94000000E+00           0.00000000E+00
  -0.93000000E+00           0.00000000E+00
  -0.92000000E+00           0.00000000E+00
  -0.91000000E+00           0.00000000E+00
  -0.90000000E+00           0.00000000E+00
  -0.89000000E+00           0.00000000E+00
  -0.88000000E+00           0.00000000E+00
  -0.87000000E+00           0.00000000E+00
  -0.86000000E+00           0.00000000E+00
  -0.85000000E+00           0.00000000E+00
  -0.84000000E+00           0.00000000E+00
  -0.83000000E+00           0.00000000E+00
  -0.82000000E+00           0.00000000E+00
  -0.81000000E+00           0.00000000E+00
  -0.80000000E+00           0.00000000E+00
  -0.79000000E+00           0.00000000E+00
  -0.78000000E+00           0.00000000E+00
  -0.77000000E+00           0.00000000E+00
  -0.76000000E+00           0.00000000E+00
  -0.75000000E+00           0.00000000E+00
  -0.74000000E+00           0.00000000E+00
  -0.73000000E+00           0.00000000E+00
  -0.72000000E+00           0.00000000E+00
  -0.71000000E+00           0.00000000E+00
  -0.70000000E+00           0.00000000E+00
  -0.69000000E+00           0.00000000E+00
  -0.68000000E+00           0.00000000E+00
  -0.67000000E+00           0.00000000E+00
  -0.66000000E+00           0.00000000E+00
  -0.65000000E+00           0.00000000E+00
  -0.64000000E+00           0.00000000E+00
  -0.63000000E+00           0.00000000E+00
  -0.62000000E+00           0.00000000E+00
  -0.61000000E+00           0.00000000E+00
  -0.60000000E+00           0.00000000E+00
  -0.59000000E+00           0.00000000E+00
  -0.58000000E+00           0.00000000E+00
  -0.57000000E+00           0.00000000E+00
  -0.56000000E+00           0.00000000E+00
  -0.55000000E+00           0.00000000E+00
  -0.54000000E+00           0.00000000E+00
  -0.53000000E+00           0.00000000E+00
  -0.52000000E+00           0.00000000E+00
  -0.51000000E+00           0.00000000E+00
  -0.50000000E+00           0.00000000E+00
  -0.49000000E+00           0.00000000E+00
  -0.48000000E+00           0.00000000E+00
  -0.47000000E+00           0.00000000E+00
  -0.46000000E+00           0.00000000E+00
  -0.45000000E+00           0.00000000E+00
  -0.44000000E+00           0.00000000E+00
  -0.43000000E+00           0.00000000E+00
  -0.42000000E+00           0.00000000E+00
  -0.41000000E+00           0.00000000E+00
  -0.40000000E+00           0.00000000E+00
  -0.39000000E+00           0.00000000E+00
  -0.38000000E+00           0.00000000E+00
  -0.37000000E+00           0.00000000E+00
  -0.36000000E+00           0.00000000E+00
  -0.35000000E+00           0.00000000E+00
  -0.34000000E+00           0.00000000E+00
  -0.33000000E+00           0.00000000E+00
  -0.32000000E+00           0.00000000E+00
  -0.31000000E+00           0.00000000E+00
  -0.30000000E+00           0.00000000E+00
  -0.29000000E+00           0.00000000E+00
  -0.28000000E+00           0.00000000E+00
  -0.27000000E+00           0.00000000E+00
  -0.26000000E+00           0.00000000E+00
  -0.25000000E+00           0.00000000E+00
  -0.24000000E+00           0.00000000E+00
  -0.23000000E+00           0.00000000E+00
  -0.22000000E+00           0.00000000E+00
  -0.21000000E+00           0.00000000E+00
  -0.20000000E+00           0.00000000E+00
  -0.19000000E+00           0.00000000E+00
  -0.18000000E+00           0.00000000E+00
  -0.17000000E+00           0.00000000E+00
  -0.16000000E+00           0.00000000E+00
  -0.15000000E+00           0.00000000E+00
  -0.14000000E+00           0.00000000E+00
  -0.13000000E+00           0.00000000E+00
  -0.12000000E+00           0.00000000E+00
  -0.11000000E+00           0.00000000E+00
  -0.10000000E+00           0.00000000E+00
  -0.90000000E-01           0.00000000E+00
  -0.80000000E-01           0.00000000E+00
  -0.70000000E-01           0.00000000E+00
  -0.60000000E-01           0.00000000E+00
  -0.50000000E-01           0.00000000E+00
  -0.40000000E-01           0.00000000E+00
  -0.30000000E-01           0.00000000E+00
  -0.20000000E-01           0.00000000E+00
  -0.10000000E-01           0.00000000E+00
   0.00000000E+00           0.15913000E-02
   0.10000000E-01           0.12627400E-01
   0.20000000E-01           0.25387400E-01
   0.30000000E-01           0.37986000E-01
   0.40000000E-01           0.50556600E-01
   0.50000000E-01           0.63389700E-01
   0.60000000E-01           0.75951200E-01
   0.70000000E-01           0.88418100E-01
   0.80000000E-01           0.10108380E+00
   0.90000000E-01           0.11355420E+00
   0.10000000E+00           0.12632800E+00
   0.11000000E+00           0.13891770E+00
   0.12000000E+00           0.15138190E+00
   0.13000000E+00           0.16333590E+00
   0.14000000E+00           0.17584050E+00
   0.15000000E+00           0.18782750E+00
   0.16000000E+00           0.20052800E+00
   0.17000000E+00           0.21240810E+00
   0.18000000E+00           0.22438690E+00
   0.19000000E+00           0.23663030E+00
   0.20000000E+00           0.24887540E+00
   0.21000000E+00           0.26027160E+00
   0.22000000E+00           0.27235100E+00
   0.23000000E+00           0.28416170E+00
   0.24000000E+00           0.29589610E+00
   0.25000000E+00           0.30753510E+00
   0.26000000E+00           0.31897390E+00
   0.27000000E+00           0.33015000E+00
   0.28000000E+00           0.34148690E+00
   0.29000000E+00           0.35268210E+00
   0.30000000E+00           0.36370670E+00
   0.31000000E+00           0.37495650E+00
   0.32000000E+00           0.38618130E+00
   0.33000000E+00           0.39621710E+00
   0.34000000E+00           0.40684880E+00
   0.35000000E+00           0.41818320E+00
   0.36000000E+00           0.42772120E+00
   0.37000000E+00           0.43835760E+00
   0.38000000E+00           0.44813290E+00
   0.39000000E+00           0.45892770E+00
   0.40000000E+00           0.46891910E+00
   0.41000000E+00           0.47826980E+00
   0.42000000E+00           0.48829850E+00
   0.43000000E+00           0.49746330E+00
   0.44000000E+00           0.50709280E+00
   0.45000000E+00           0.51615610E+00
   0.46000000E+00           0.52506380E+00
   0.47000000E+00           0.53353910E+00
   0.48000000E+00           0.54308320E+00
   0.49000000E+00           0.55103240E+00
   0.50000000E+00           0.55974060E+00
   0.51000000E+00           0.56831620E+00
   0.52000000E+00           0.57643750E+00
   0.53000000E+00           0.58461950E+00
   0.54000000E+00           0.59198850E+00
   0.55000000E+00           0.59968380E+00
   0.56000000E+00           0.60706500E+00
   0.57000000E+00           0.61449750E+00
   0.58000000E+00           0.62120680E+00
   0.59000000E+00           0.62877680E+00
   0.60000000E+00           0.63548690E+00
   0.61000000E+00           0.64204520E+00
   0.62000000E+00           0.64819490E+00
   0.63000000E+00           0.65397310E+00
   0.64000000E+00           0.66061470E+00
   0.65000000E+00           0.66648980E+00
   0.66000000E+00           0.67219400E+00
   0.67000000E+00           0.67751100E+00
   0.68000000E+00           0.68337470E+00
   0.69000000E+00           0.68795950E+00
   0.70000000E+00           0.69324500E+00
   0.71000000E+00           0.69784650E+00
   0.72000000E+00           0.70261700E+00
   0.73000000E+00           0.70672280E+00
   0.74000000E+00           0.71143150E+00
   0.75000000E+00           0.71509150E+00
   0.76000000E+00           0.71846960E+00
   0.77000000E+00           0.72276550E+00
   0.78000000E+00           0.72625110E+00
   0.79000000E+00           0.72968080E+00
   0.80000000E+00           0.73284370E+00
   0.81000000E+00           0.73531870E+00
   0.82000000E+00           0.73802730E+00
   0.83000000E+00           0.74022420E+00
   0.84000000E+00           0.74319270E+00
   0.85000000E+00           0.74514740E+00
   0.86000000E+00           0.74684430E+00
   0.87000000E+00           0.74890200E+00
   0.88000000E+00           0.75054320E+00
   0.89000000E+00           0.75137880E+00
   0.90000000E+00           0.75273360E+00
   0.91000000E+00           0.75382520E+00
   0.92000000E+00           0.75437280E+00
   0.93000000E+00           0.75479360E+00
   0.94000000E+00           0.75485890E+00
   0.95000000E+00           0.75578310E+00
   0.96000000E+00           0.75516950E+00
   0.97000000E+00           0.75477240E+00
   0.98000000E+00           0.75569460E+00
   0.99000000E+00           0.75400160E+00
   0.10000000E+01           0.75446070E+00
   0.10100000E+01           0.75336630E+00
   0.10200000E+01           0.75171470E+00
   0.10300000E+01           0.75025810E+00
   0.10400000E+01           0.74913070E+00
   0.10500000E+01           0.74736450E+00
   0.10600000E+01           0.74554090E+00
   0.10700000E+01           0.74467700E+00
   0.10800000E+01           0.74205680E+00
   0.10900000E+01           0.73906100E+00
   0.11000000E+01           0.73687240E+00
   0.11100000E+01           0.73380530E+00
   0.11200000E+01           0.73150020E+00
   0.11300000E+01           0.72829750E+00
   0.11400000E+01           0.72503840E+00
   0.11500000E+01           0.72241870E+00
   0.11600000E+01           0.71882910E+00
   0.11700000E+01           0.71523010E+00
   0.11800000E+01           0.71138910E+00
   0.11900000E+01           0.70770980E+00
   0.12000000E+01           0.70411390E+00
   0.12100000E+01           0.69915210E+00
   0.12200000E+01           0.69522230E+00
   0.12300000E+01           0.69107960E+00
   0.12400000E+01           0.68649500E+00
   0.12500000E+01           0.68111970E+00
   0.12600000E+01           0.67680570E+00
   0.12700000E+01           0.67185120E+00
   0.12800000E+01           0.66674300E+00
   0.12900000E+01           0.66127110E+00
   0.13000000E+01           0.65644010E+00
   0.13100000E+01           0.65056990E+00
   0.13200000E+01           0.64416910E+00
   0.13300000E+01           0.63948220E+00
   0.13400000E+01           0.63339920E+00
   0.13500000E+01           0.62737630E+00
   0.13600000E+01           0.62183630E+00
   0.13700000E+01           0.61520330E+00
   0.13800000E+01           0.60960610E+00
   0.13900000E+01           0.60251580E+00
   0.14000000E+01           0.59604050E+00
   0.14100000E+01           0.58962350E+00
   0.14200000E+01           0.58270650E+00
   0.14300000E+01           0.57678000E+00
   0.14400000E+01           0.56983310E+00
   0.14500000E+01           0.56307900E+00
   0.14600000E+01           0.55602850E+00
   0.14700000E+01           0.54927550E+00
   0.14800000E+01           0.54209070E+00
   0.14900000E+01           0.53503590E+00
   0.15000000E+01           0.52810450E+00
   0.15100000E+01           0.52139900E+00
   0.15200000E+01           0.51335470E+00
   0.15300000E+01           0.50582500E+00
   0.15400000E+01           0.49810600E+00
   0.15500000E+01           0.49082360E+00
   0.15600000E+01           0.48357820E+00
   0.15700000E+01           0.47617740E+00
   0.15800000E+01           0.46835590E+00
   0.15900000E+01           0.46062510E+00
   0.16000000E+01           0.45307750E+00
   0.16100000E+01           0.44526320E+00
   0.16200000E+01           0.43784180E+00
   0.16300000E+01           0.43022610E+00
   0.16400000E+01           0.42227590E+00
   0.16500000E+01           0.41444070E+00
   0.16600000E+01           0.40695280E+00
   0.16700000E+01           0.39908830E+00
   0.16800000E+01           0.39157460E+00
   0.16900000E+01           0.38310280E+00
   0.17000000E+01           0.37590640E+00
   0.17100000E+01           0.36798600E+00
   0.17200000E+01           0.36019440E+00
   0.17300000E+01           0.35203440E+00
   0.17400000E+01           0.34403060E+00
   0.17500000E+01           0.33702330E+00
   0.17600000E+01           0.32897130E+00
   0.17700000E+01           0.32128180E+00
   0.17800000E+01           0.31383070E+00
   0.17900000E+01           0.30599460E+00
   0.18000000E+01           0.29835240E+00
   0.18100000E+01           0.29067180E+00
   0.18200000E+01           0.28294470E+00
   0.18300000E+01           0.27556240E+00
   0.18400000E+01           0.26778410E+00
   0.18500000E+01           0.26040450E+00
   0.18600000E+01           0.25323930E+00
   0.18700000E+01           0.24573460E+00
   0.18800000E+01           0.23861830E+00
   0.18900000E+01           0.23131300E+00
   0.19000000E+01           0.22392880E+00
   0.19100000E+01           0.21692380E+00
   0.19200000E+01           0.20950710E+00
   0.19300000E+01           0.20267290E+00
   0.19400000E+01           0.19576090E+00
   0.19500000E+01           0.18868150E+00
   0.19600000E+01           0.18198840E+00
   0.19700000E+01           0.17529490E+00
   0.19800000E+01           0.16822050E+00
   0.19900000E+01           0.16155280E+00
   0.20000000E+01           0.78340000E-01
 #T=   271.0000
  -0.20000000E+01           0.00000000E+00
  -0.19900000E+01           0.00000000E+00
  -0.19800000E+01           0.00000000E+00
  -0.19700000E+01           0.00000000E+00
  -0.19600000E+01           0.00000000E+00
  -0.19500000E+01           0.00000000E+00
  -0.19400000E+01           0.00000000E+00
  -0.19300000E+01           0.00000000E+00
  -0.19200000E+01           0.00000000E+00
  -0.19100000E+01           0.00000000E+00
  -0.19000000E+01           0.00000000E+00
  -0.18900000E+01           0.00000000E+00
  -0.18800000E+01           0.00000000E+00
  -0.18700000E+01           0.00000000E+00
  -0.18600000E+01           0.00000000E+00
  -0.18500000E+01           0.00000000E+00
  -0.18400000E+01           0.00000000E+00
  -0.18300000E+01           0.00000000E+00
  -0.18200000E+01           0.00000000E+00
  -0.18100000E+01           0.00000000E+00
  -0.18000000E+01           0.00000000E+00
  -0.17900000E+01           0.00000000E+00
  -0.17800000E+01           0.00000000E+00
  -0.17700000E+01           0.00000000E+00
  -0.17600000E+01           0.00000000E+00
  -0.17500000E+01           0.00000000E+00
  -0.17400000E+01           0.00000000E+00
  -0.17300000E+01           0.00000000E+00
  -0.17200000E+01           0.00000000E+00
  -0.17100000E+01           0.00000000E+00
  -0.17000000E+01           0.00000000E+00
  -0.16900000E+01           0.00000000E+00
  -0.16800000E+01           0.00000000E+00
  -0.16700000E+01           0.00000000E+00
  -0.16600000E+01           0.00000000E+00
  -0.16500000E+01           0.00000000E+00
  -0.16400000E+01           0.00000000E+00
  -0.16300000E+01           0.00000000E+00
  -0.16200000E+01           0.00000000E+00
  -0.16100000E+01           0.00000000E+00
  -0.16000000E+01           0.00000000E+00
  -0.15900000E+01           0.00000000E+00
  -0.15800000E+01           0.00000000E+00
  -0.15700000E+01           0.00000000E+00
  -0.15600000E+01           0.00000000E+00
  -0.15500000E+01           0.00000000E+00
  -0.15400000E+01           0.00000000E+00
  -0.15300000E+01           0.00000000E+00
  -0.15200000E+01           0.00000000E+00
  -0.15100000E+01           0.00000000E+00
  -0.15000000E+01           0.00000000E+00
  -0.14900000E+01           0.00000000E+00
  -0.14800000E+01           0.00000000E+00
  -0.14700000E+01           0.00000000E+00
  -0.14600000E+01           0.00000000E+00
  -0.14500000E+01           0.00000000E+00
  -0.14400000E+01           0.00000000E+00
  -0.14300000E+01           0.00000000E+00
  -0.14200000E+01           0.00000000E+00
  -0.14100000E+01           0.00000000E+00
  -0.14000000E+01           0.00000000E+00
  -0.13900000E+01           0.00000000E+00
  -0.13800000E+01           0.00000000E+00
  -0.13700000E+01           0.00000000E+00
  -0.13600000E+01           0.00000000E+00
  -0.13500000E+01           0.00000000E+00
  -0.13400000E+01           0.00000000E+00
  -0.13300000E+01           0.00000000E+00
  -0.13200000E+01           0.00000000E+00
  -0.13100000E+01           0.00000000E+00
  -0.13000000E+01           0.00000000E+00
  -0.12900000E+01           0.00000000E+00
  -0.12800000E+01           0.00000000E+00
  -0.12700000E+01           0.00000000E+00
  -0.12600000E+01           0.00000000E+00
  -0.12500000E+01           0.00000000E+00
  -0.12400000E+01           0.00000000E+00
  -0.12300000E+01           0.00000000E+00
  -0.12200000E+01           0.00000000E+00
  -0.12100000E+01           0.00000000E+00
  -0.12000000E+01           0.00000000E+00
  -0.11900000E+01           0.00000000E+00
  -0.11800000E+01           0.00000000E+00
  -0.11700000E+01           0.00000000E+00
  -0.11600000E+01           0.00000000E+00
  -0.11500000E+01           0.00000000E+00
  -0.11400000E+01           0.00000000E+00
  -0.11300000E+01           0.00000000E+00
  -0.11200000E+01           0.00000000E+00
  -0.11100000E+01           0.00000000E+00
  -0.11000000E+01           0.00000000E+00
  -0.10900000E+01           0.00000000E+00
  -0.10800000E+01           0.00000000E+00
  -0.10700000E+01           0.00000000E+00
  -0.10600000E+01           0.00000000E+00
  -0.10500000E+01           0.00000000E+00
  -0.10400000E+01           0.00000000E+00
  -0.10300000E+01           0.00000000E+00
  -0.10200000E+01           0.00000000E+00
  -0.10100000E+01           0.00000000E+00
  -0.10000000E+01           0.00000000E+00
  -0.99000000E+00           0.00000000E+00
  -0.98000000E+00           0.00000000E+00
  -0.97000000E+00           0.00000000E+00
  -0.96000000E+00           0.00000000E+00
  -0.95000000E+00           0.00000000E+00
  -0.94000000E+00           0.00000000E+00
  -0.93000000E+00           0.00000000E+00
  -0.92000000E+00           0.00000000E+00
  -0.91000000E+00           0.00000000E+00
  -0.90000000E+00           0.00000000E+00
  -0.89000000E+00           0.00000000E+00
  -0.88000000E+00           0.00000000E+00
  -0.87000000E+00           0.00000000E+00
  -0.86000000E+00           0.00000000E+00
  -0.85000000E+00           0.00000000E+00
  -0.84000000E+00           0.00000000E+00
  -0.83000000E+00           0.00000000E+00
  -0.82000000E+00           0.00000000E+00
  -0.81000000E+00           0.00000000E+00
  -0.80000000E+00           0.00000000E+00
  -0.79000000E+00           0.00000000E+00
  -0.78000000E+00           0.00000000E+00
  -0.77000000E+00           0.00000000E+00
  -0.76000000E+00           0.00000000E+00
  -0.75000000E+00           0.00000000E+00
  -0.74000000E+00           0.00000000E+00
  -0.73000000E+00           0.00000000E+00
  -0.72000000E+00           0.00000000E+00
  -0.71000000E+00           0.00000000E+00
  -0.70000000E+00           0.00000000E+00
  -0.69000000E+00           0.00000000E+00
  -0.68000000E+00           0.00000000E+00
  -0.67000000E+00           0.00000000E+00
  -0.66000000E+00           0.00000000E+00
  -0.65000000E+00           0.00000000E+00
  -0.64000000E+00           0.00000000E+00
  -0.63000000E+00           0.00000000E+00
  -0.62000000E+00           0.00000000E+00
  -0.61000000E+00           0.00000000E+00
  -0.60000000E+00           0.00000000E+00
  -0.59000000E+00           0.00000000E+00
  -0.58000000E+00           0.00000000E+00
  -0.57000000E+00           0.00000000E+00
  -0.56000000E+00           0.00000000E+00
  -0.55000000E+00           0.00000000E+00
  -0.54000000E+00           0.00000000E+00
  -0.53000000E+00           0.00000000E+00
  -0.52000000E+00           0.00000000E+00
  -0.51000000E+00           0.00000000E+00
  -0.50000000E+00           0.00000000E+00
  -0.49000000E+00           0.00000000E+00
  -0.48000000E+00           0.00000000E+00
  -0.47000000E+00           0.00000000E+00
  -0.46000000E+00           0.00000000E+00
  -0.45000000E+00           0.00000000E+00
  -0.44000000E+00           0.00000000E+00
  -0.43000000E+00           0.00000000E+00
  -0.42000000E+00           0.00000000E+00
  -0.41000000E+00           0.00000000E+00
  -0.40000000E+00           0.00000000E+00
  -0.39000000E+00           0.00000000E+00
  -0.38000000E+00           0.00000000E+00
  -0.37000000E+00           0.00000000E+00
  -0.36000000E+00           0.00000000E+00
  -0.35000000E+00           0.00000000E+00
  -0.34000000E+00           0.00000000E+00
  -0.33000000E+00           0.00000000E+00
  -0.32000000E+00           0.00000000E+00
  -0.31000000E+00           0.00000000E+00
  -0.30000000E+00           0.00000000E+00
  -0.29000000E+00           0.00000000E+00
  -0.28000000E+00           0.00000000E+00
  -0.27000000E+00           0.00000000E+00
  -0.26000000E+00           0.00000000E+00
  -0.25000000E+00           0.00000000E+00
  -0.24000000E+00           0.00000000E+00
  -0.23000000E+00           0.00000000E+00
  -0.22000000E+00           0.00000000E+00
  -0.21000000E+00           0.00000000E+00
  -0.20000000E+00           0.00000000E+00
  -0.19000000E+00           0.00000000E+00
  -0.18000000E+00           0.00000000E+00
  -0.17000000E+00           0.00000000E+00
  -0.16000000E+00           0.00000000E+00
  -0.15000000E+00           0.00000000E+00
  -0.14000000E+00           0.00000000E+00
  -0.13000000E+00           0.00000000E+00
  -0.12000000E+00           0.00000000E+00
  -0.11000000E+00           0.00000000E+00
  -0.10000000E+00           0.00000000E+00
  -0.90000000E-01           0.00000000E+00
  -0.80000000E-01           0.00000000E+00
  -0.70000000E-01           0.00000000E+00
  -0.60000000E-01           0.00000000E+00
  -0.50000000E-01           0.00000000E+00
  -0.40000000E-01           0.00000000E+00
  -0.30000000E-01           0.00000000E+00
  -0.20000000E-01           0.00000000E+00
  -0.10000000E-01           0.00000000E+00
   0.00000000E+00           0.15916000E-02
   0.10000000E-01           0.12591000E-01
   0.20000000E-01           0.25232200E-01
   0.30000000E-01           0.37726600E-01
   0.40000000E-01           0.50345600E-01
   0.50000000E-01           0.62961600E-01
   0.60000000E-01           0.75277700E-01
   0.70000000E-01           0.87645300E-01
   0.80000000E-01           0.10034070E+00
   0.90000000E-01           0.11286970E+00
   0.10000000E+00           0.12520060E+00
   0.11000000E+00           0.13755540E+00
   0.12000000E+00           0.15001710E+00
   0.13000000E+00           0.16219730E+00
   0.14000000E+00           0.17473880E+00
   0.15000000E+00           0.18650380E+00
   0.16000000E+00           0.19861690E+00
   0.17000000E+00           0.21118210E+00
   0.18000000E+00           0.22332050E+00
   0.19000000E+00           0.23504710E+00
   0.20000000E+00           0.24655140E+00
   0.21000000E+00           0.25902650E+00
   0.22000000E+00           0.27056330E+00
   0.23000000E+00           0.28213440E+00
   0.24000000E+00           0.29377440E+00
   0.25000000E+00           0.30506150E+00
   0.26000000E+00           0.31673440E+00
   0.27000000E+00           0.32813450E+00
   0.28000000E+00           0.33924210E+00
   0.29000000E+00           0.35000910E+00
   0.30000000E+00           0.36145480E+00
   0.31000000E+00           0.37225890E+00
   0.32000000E+00           0.38300130E+00
   0.33000000E+00           0.39415230E+00
   0.34000000E+00           0.40453310E+00
   0.35000000E+00           0.41474490E+00
   0.36000000E+00           0.42521610E+00
   0.37000000E+00           0.43561600E+00
   0.38000000E+00           0.44508620E+00
   0.39000000E+00           0.45551960E+00
   0.40000000E+00           0.46569590E+00
   0.41000000E+00           0.47510390E+00
   0.42000000E+00           0.48471570E+00
   0.43000000E+00           0.49399530E+00
   0.44000000E+00           0.50336700E+00
   0.45000000E+00           0.51250020E+00
   0.46000000E+00           0.52178850E+00
   0.47000000E+00           0.53039960E+00
   0.48000000E+00           0.53950970E+00
   0.49000000E+00           0.54764830E+00
   0.50000000E+00           0.55610950E+00
   0.51000000E+00           0.56463880E+00
   0.52000000E+00           0.57261810E+00
   0.53000000E+00           0.58058530E+00
   0.54000000E+00           0.58857940E+00
   0.55000000E+00           0.59587930E+00
   0.56000000E+00           0.60369510E+00
   0.57000000E+00           0.61111000E+00
   0.58000000E+00           0.61792470E+00
   0.59000000E+00           0.62467820E+00
   0.60000000E+00           0.63188150E+00
   0.61000000E+00           0.63784310E+00
   0.62000000E+00           0.64479580E+00
   0.63000000E+00           0.65089180E+00
   0.64000000E+00           0.65694150E+00
   0.65000000E+00           0.66269150E+00
   0.66000000E+00           0.66867440E+00
   0.67000000E+00           0.67472470E+00
   0.68000000E+00           0.67909030E+00
   0.69000000E+00           0.68521550E+00
   0.70000000E+00           0.68973270E+00
   0.71000000E+00           0.69467630E+00
   0.72000000E+00           0.69951590E+00
   0.73000000E+00           0.70349500E+00
   0.74000000E+00           0.70821100E+00
   0.75000000E+00           0.71220480E+00
   0.76000000E+00           0.71581720E+00
   0.77000000E+00           0.71952540E+00
   0.78000000E+00           0.72258340E+00
   0.79000000E+00           0.72603640E+00
   0.80000000E+00           0.72897120E+00
   0.81000000E+00           0.73209320E+00
   0.82000000E+00           0.73534540E+00
   0.83000000E+00           0.73760800E+00
   0.84000000E+00           0.73989930E+00
   0.85000000E+00           0.74190440E+00
   0.86000000E+00           0.74385310E+00
   0.87000000E+00           0.74642720E+00
   0.88000000E+00           0.74794470E+00
   0.89000000E+00           0.74831970E+00
   0.90000000E+00           0.75027430E+00
   0.91000000E+00           0.75114590E+00
   0.92000000E+00           0.75180150E+00
   0.93000000E+00           0.75310330E+00
   0.94000000E+00           0.75300610E+00
   0.95000000E+00           0.75290170E+00
   0.96000000E+00           0.75362650E+00
   0.97000000E+00           0.75305330E+00
   0.98000000E+00           0.75320560E+00
   0.99000000E+00           0.75260490E+00
   0.10000000E+01           0.75200400E+00
   0.10100000E+01           0.75111590E+00
   0.10200000E+01           0.75039620E+00
   0.10300000E+01           0.74908530E+00
   0.10400000E+01           0.74772200E+00
   0.10500000E+01           0.74599390E+00
   0.10600000E+01           0.74436420E+00
   0.10700000E+01           0.74318480E+00
   0.10800000E+01           0.74061190E+00
   0.10900000E+01           0.73845420E+00
   0.11000000E+01           0.73546960E+00
   0.11100000E+01           0.73363230E+00
   0.11200000E+01           0.73077140E+00
   0.11300000E+01           0.72821840E+00
   0.11400000E+01           0.72470520E+00
   0.11500000E+01           0.72200720E+00
   0.11600000E+01           0.71843530E+00
   0.11700000E+01           0.71508110E+00
   0.11800000E+01           0.71107830E+00
   0.11900000E+01           0.70782840E+00
   0.12000000E+01           0.70398790E+00
   0.12100000E+01           0.70004170E+00
   0.12200000E+01           0.69572210E+00
   0.12300000E+01           0.69160820E+00
   0.12400000E+01           0.68664940E+00
   0.12500000E+01           0.68229800E+00
   0.12600000E+01           0.67749660E+00
   0.12700000E+01           0.67268980E+00
   0.12800000E+01           0.66727660E+00
   0.12900000E+01           0.66261290E+00
   0.13000000E+01           0.65770780E+00
   0.13100000E+01           0.65190440E+00
   0.13200000E+01           0.64647440E+00
   0.13300000E+01           0.64116140E+00
   0.13400000E+01           0.63473260E+00
   0.13500000E+01           0.62953410E+00
   0.13600000E+01           0.62354770E+00
   0.13700000E+01           0.61690960E+00
   0.13800000E+01           0.61096560E+00
   0.13900000E+01           0.60506260E+00
   0.14000000E+01           0.59868640E+00
   0.14100000E+01           0.59242560E+00
   0.14200000E+01           0.58586910E+00
   0.14300000E+01           0.57925910E+00
   0.14400000E+01           0.57297300E+00
   0.14500000E+01           0.56600090E+00
   0.14600000E+01           0.55920310E+00
   0.14700000E+01           0.55201240E+00
   0.14800000E+01           0.54495990E+00
   0.14900000E+01           0.53838010E+00
   0.15000000E+01           0.53108470E+00
   0.15100000E+01           0.52390700E+00
   0.15200000E+01           0.51706320E+00
   0.15300000E+01           0.50915310E+00
   0.15400000E+01           0.50201930E+00
   0.15500000E+01           0.49479250E+00
   0.15600000E+01           0.48734490E+00
   0.15700000E+01           0.47993040E+00
   0.15800000E+01           0.47201780E+00
   0.15900000E+01           0.46455340E+00
   0.16000000E+01           0.45713010E+00
   0.16100000E+01           0.44965270E+00
   0.16200000E+01           0.44168880E+00
   0.16300000E+01           0.43374960E+00
   0.16400000E+01           0.42673890E+00
   0.16500000E+01           0.41905510E+00
   0.16600000E+01           0.41131740E+00
   0.16700000E+01           0.40331420E+00
   0.16800000E+01           0.39558210E+00
   0.16900000E+01           0.38797880E+00
   0.17000000E+01           0.37995500E+00
   0.17100000E+01           0.37256850E+00
   0.17200000E+01           0.36454950E+00
   0.17300000E+01           0.35716470E+00
   0.17400000E+01           0.34908690E+00
   0.17500000E+01           0.34149650E+00
   0.17600000E+01           0.33360500E+00
   0.17700000E+01           0.32607100E+00
   0.17800000E+01           0.31862630E+00
   0.17900000E+01           0.31063700E+00
   0.18000000E+01           0.30283470E+00
   0.18100000E+01           0.29514720E+00
   0.18200000E+01           0.28787040E+00
   0.18300000E+01           0.28049070E+00
   0.18400000E+01           0.27295450E+00
   0.18500000E+01           0.26528510E+00
   0.18600000E+01           0.25808440E+00
   0.18700000E+01           0.25047050E+00
   0.18800000E+01           0.24330720E+00
   0.18900000E+01           0.23600120E+00
   0.19000000E+01           0.22893680E+00
   0.19100000E+01           0.22145990E+00
   0.19200000E+01           0.21449540E+00
   0.19300000E+01           0.20713250E+00
   0.19400000E+01           0.20025030E+00
   0.19500000E+01           0.19321260E+00
   0.19600000E+01           0.18637880E+00
   0.19700000E+01           0.17956870E+00
   0.19800000E+01           0.17286260E+00
   0.19900000E+01           0.16637820E+00
   0.20000000E+01           0.80774900E-01
 #T=   272.0000
  -0.20000000E+01           0.00000000E+00
  -0.19900000E+01           0.00000000E+00
  -0.19800000E+01           0.00000000E+00
  -0.19700000E+01           0.00000000E+00
  -0.19600000E+01           0.00000000E+00
  -0.19500000E+01           0.00000000E+00
  -0.19400000E+01           0.00000000E+00
  -0.19300000E+01           0.00000000E+00
  -0.19200000E+01           0.00000000E+00
  -0.19100000E+01           0.00000000E+00
  -0.19000000E+01           0.00000000E+00
  -0.18900000E+01           0.00000000E+00
  -0.18800000E+01           0.00000000E+00
  -0.18700000E+01           0.00000000E+00
  -0.18600000E+01           0.00000000E+00
  -0.18500000E+01           0.00000000E+00
  -0.18400000E+01           0.00000000E+00
  -0.18300000E+01           0.00000000E+00
  -0.18200000E+01           0.00000000E+00
  -0.18100000E+01           0.00000000E+00
  -0.18000000E+01           0.00000000E+00
  -0.17900000E+01           0.00000000E+00
  -0.17800000E+01           0.00000000E+00
  -0.17700000E+01           0.00000000E+00
  -0.17600000E+01           0.00000000E+00
  -0.17500000E+01           0.00000000E+00
  -0.17400000E+01           0.00000000E+00
  -0.17300000E+01           0.00000000E+00
  -0.17200000E+01           0.00000000E+00
  -0.17100000E+01           0.00000000E+00
  -0.17000000E+01           0.00000000E+00
  -0.16900000E+01           0.00000000E+00
  -0.16800000E+01           0.00000000E+00
  -0.16700000E+01           0.00000000E+00
  -0.16600000E+01           0.00000000E+00
  -0.16500000E+01           0.00000000E+00
  -0.16400000E+01           0.00000000E+00
  -0.16300000E+01           0.00000000E+00
  -0.16200000E+01           0.00000000E+00
  -0.16100000E+01           0.00000000E+00
  -0.16000000E+01           0.00000000E+00
  -0.15900000E+01           0.00000000E+00
  -0.15800000E+01           0.00000000E+00
  -0.15700000E+01           0.00000000E+00
  -0.15600000E+01           0.00000000E+00
  -0.15500000E+01           0.00000000E+00
  -0.15400000E+01           0.00000000E+00
  -0.15300000E+01           0.00000000E+00
  -0.15200000E+01           0.00000000E+00
  -0.15100000E+01           0.00000000E+00
  -0.15000000E+01           0.00000000E+00
  -0.14900000E+01           0.00000000E+00
  -0.14800000E+01           0.00000000E+00
  -0.14700000E+01           0.00000000E+00
  -0.14600000E+01           0.00000000E+00
  -0.14500000E+01           0.00000000E+00
  -0.14400000E+01           0.00000000E+00
  -0.14300000E+01           0.00000000E+00
  -0.14200000E+01           0.00000000E+00
  -0.14100000E+01           0.00000000E+00
  -0.14000000E+01           0.00000000E+00
  -0.13900000E+01           0.00000000E+00
  -0.13800000E+01           0.00000000E+00
  -0.13700000E+01           0.00000000E+00
  -0.13600000E+01           0.00000000E+00
  -0.13500000E+01           0.00000000E+00
  -0.13400000E+01           0.00000000E+00
  -0.13300000E+01           0.00000000E+00
  -0.13200000E+01           0.00000000E+00
  -0.13100000E+01           0.00000000E+00
  -0.13000000E+01           0.00000000E+00
  -0.12900000E+01           0.00000000E+00
  -0.12800000E+01           0.00000000E+00
  -0.12700000E+01           0.00000000E+00
  -0.12600000E+01           0.00000000E+00
  -0.12500000E+01           0.00000000E+00
  -0.12400000E+01           0.00000000E+00
  -0.12300000E+01           0.00000000E+00
  -0.12200000E+01           0.00000000E+00
  -0.12100000E+01           0.00000000E+00
  -0.12000000E+01           0.00000000E+00
  -0.11900000E+01           0.00000000E+00
  -0.11800000E+01           0.00000000E+00
  -0.11700000E+01           0.00000000E+00
  -0.11600000E+01           0.00000000E+00
  -0.11500000E+01           0.00000000E+00
  -0.11400000E+01           0.00000000E+00
  -0.11300000E+01           0.00000000E+00
  -0.11200000E+01           0.00000000E+00
  -0.11100000E+01           0.00000000E+00
  -0.11000000E+01           0.00000000E+00
  -0.10900000E+01           0.00000000E+00
  -0.10800000E+01           0.00000000E+00
  -0.10700000E+01           0.00000000E+00
  -0.10600000E+01           0.00000000E+00
  -0.10500000E+01           0.00000000E+00
  -0.10400000E+01           0.00000000E+00
  -0.10300000E+01           0.00000000E+00
  -0.10200000E+01           0.00000000E+00
  -0.10100000E+01           0.00000000E+00
  -0.10000000E+01           0.00000000E+00
  -0.99000000E+00           0.00000000E+00
  -0.98000000E+00           0.00000000E+00
  -0.97000000E+00           0.00000000E+00
  -0.96000000E+00           0.00000000E+00
  -0.95000000E+00           0.00000000E+00
  -0.94000000E+00           0.00000000E+00
  -0.93000000E+00           0.00000000E+00
  -0.92000000E+00           0.00000000E+00
  -0.91000000E+00           0.00000000E+00
  -0.90000000E+00           0.00000000E+00
  -0.89000000E+00           0.00000000E+00
  -0.88000000E+00           0.00000000E+00
  -0.87000000E+00           0.00000000E+00
  -0.86000000E+00           0.00000000E+00
  -0.85000000E+00           0.00000000E+00
  -0.84000000E+00           0.00000000E+00
  -0.83000000E+00           0.00000000E+00
  -0.82000000E+00           0.00000000E+00
  -0.81000000E+00           0.00000000E+00
  -0.80000000E+00           0.00000000E+00
  -0.79000000E+00           0.00000000E+00
  -0.78000000E+00           0.00000000E+00
  -0.77000000E+00           0.00000000E+00
  -0.76000000E+00           0.00000000E+00
  -0.75000000E+00           0.00000000E+00
  -0.74000000E+00           0.00000000E+00
  -0.73000000E+00           0.00000000E+00
  -0.72000000E+00           0.00000000E+00
  -0.71000000E+00           0.00000000E+00
  -0.70000000E+00           0.00000000E+00
  -0.69000000E+00           0.00000000E+00
  -0.68000000E+00           0.00000000E+00
  -0.67000000E+00           0.00000000E+00
  -0.66000000E+00           0.00000000E+00
  -0.65000000E+00           0.00000000E+00
  -0.64000000E+00           0.00000000E+00
  -0.63000000E+00           0.00000000E+00
  -0.62000000E+00           0.00000000E+00
  -0.61000000E+00           0.00000000E+00
  -0.60000000E+00           0.00000000E+00
  -0.59000000E+00           0.00000000E+00
  -0.58000000E+00           0.00000000E+00
  -0.57000000E+00           0.00000000E+00
  -0.56000000E+00           0.00000000E+00
  -0.55000000E+00           0.00000000E+00
  -0.54000000E+00           0.00000000E+00
  -0.53000000E+00           0.00000000E+00
  -0.52000000E+00           0.00000000E+00
  -0.51000000E+00           0.00000000E+00
  -0.50000000E+00           0.00000000E+00
  -0.49000000E+00           0.00000000E+00
  -0.48000000E+00           0.00000000E+00
  -0.47000000E+00           0.00000000E+00
  -0.46000000E+00           0.00000000E+00
  -0.45000000E+00           0.00000000E+00
  -0.44000000E+00           0.00000000E+00
  -0.43000000E+00           0.00000000E+00
  -0.42000000E+00           0.00000000E+00
  -0.41000000E+00           0.00000000E+00
  -0.40000000E+00           0.00000000E+00
  -0.39000000E+00           0.00000000E+00
  -0.38000000E+00           0.00000000E+00
  -0.37000000E+00           0.00000000E+00
  -0.36000000E+00           0.00000000E+00
  -0.35000000E+00           0.00000000E+00
  -0.34000000E+00           0.00000000E+00
  -0.33000000E+00           0.00000000E+00
  -0.32000000E+00           0.00000000E+00
  -0.31000000E+00           0.00000000E+00
  -0.30000000E+00           0.00000000E+00
  -0.29000000E+00           0.00000000E+00
  -0.28000000E+00           0.00000000E+00
  -0.27000000E+00           0.00000000E+00
  -0.26000000E+00           0.00000000E+00
  -0.25000000E+00           0.00000000E+00
  -0.24000000E+00           0.00000000E+00
  -0.23000000E+00           0.00000000E+00
  -0.22000000E+00           0.00000000E+00
  -0.21000000E+00           0.00000000E+00
  -0.20000000E+00           0.00000000E+00
  -0.19000000E+00           0.00000000E+00
  -0.18000000E+00           0.00000000E+00
  -0.17000000E+00           0.00000000E+00
  -0.16000000E+00           0.00000000E+00
  -0.15000000E+00           0.00000000E+00
  -0.14000000E+00           0.00000000E+00
  -0.13000000E+00           0.00000000E+00
  -0.12000000E+00           0.00000000E+00
  -0.11000000E+00           0.00000000E+00
  -0.10000000E+00           0.00000000E+00
  -0.90000000E-01           0.00000000E+00
  -0.80000000E-01           0.00000000E+00
  -0.70000000E-01           0.00000000E+00
  -0.60000000E-01           0.00000000E+00
  -0.50000000E-01           0.00000000E+00
  -0.40000000E-01           0.00000000E+00
  -0.30000000E-01           0.00000000E+00
  -0.20000000E-01           0.00000000E+00
  -0.10000000E-01           0.00000000E+00
   0.00000000E+00           0.15587000E-02
   0.10000000E-01           0.12479400E-01
   0.20000000E-01           0.24947900E-01
   0.30000000E-01           0.37470200E-01
   0.40000000E-01           0.49869300E-01
   0.50000000E-01           0.62401900E-01
   0.60000000E-01           0.74894800E-01
   0.70000000E-01           0.87415400E-01
   0.80000000E-01           0.99829200E-01
   0.90000000E-01           0.11185890E+00
   0.10000000E+00           0.12423370E+00
   0.11000000E+00           0.13650950E+00
   0.12000000E+00           0.14882090E+00
   0.13000000E+00           0.16071070E+00
   0.14000000E+00           0.17322700E+00
   0.15000000E+00           0.18527120E+00
   0.16000000E+00           0.19748410E+00
   0.17000000E+00           0.20940200E+00
   0.18000000E+00           0.22109700E+00
   0.19000000E+00           0.23303000E+00
   0.20000000E+00           0.24497780E+00
   0.21000000E+00           0.25662320E+00
   0.22000000E+00           0.26838210E+00
   0.23000000E+00           0.28001650E+00
   0.24000000E+00           0.29158700E+00
   0.25000000E+00           0.30291720E+00
   0.26000000E+00           0.31425620E+00
   0.27000000E+00           0.32533970E+00
   0.28000000E+00           0.33669220E+00
   0.29000000E+00           0.34793800E+00
   0.30000000E+00           0.35877940E+00
   0.31000000E+00           0.36967860E+00
   0.32000000E+00           0.38001070E+00
   0.33000000E+00           0.39086770E+00
   0.34000000E+00           0.40176790E+00
   0.35000000E+00           0.41201590E+00
   0.36000000E+00           0.42210240E+00
   0.37000000E+00           0.43230600E+00
   0.38000000E+00           0.44247630E+00
   0.39000000E+00           0.45251280E+00
   0.40000000E+00           0.46256980E+00
   0.41000000E+00           0.47188440E+00
   0.42000000E+00           0.48142360E+00
   0.43000000E+00           0.49111430E+00
   0.44000000E+00           0.50008930E+00
   0.45000000E+00           0.50951950E+00
   0.46000000E+00           0.51822890E+00
   0.47000000E+00           0.52700420E+00
   0.48000000E+00           0.53599940E+00
   0.49000000E+00           0.54439880E+00
   0.50000000E+00           0.55262560E+00
   0.51000000E+00           0.56105000E+00
   0.52000000E+00           0.56909460E+00
   0.53000000E+00           0.57698570E+00
   0.54000000E+00           0.58501830E+00
   0.55000000E+00           0.59205130E+00
   0.56000000E+00           0.60000470E+00
   0.57000000E+00           0.60693610E+00
   0.58000000E+00           0.61479650E+00
   0.59000000E+00           0.62101930E+00
   0.60000000E+00           0.62822770E+00
   0.61000000E+00           0.63443150E+00
   0.62000000E+00           0.64083700E+00
   0.63000000E+00           0.64752560E+00
   0.64000000E+00           0.65355860E+00
   0.65000000E+00           0.65960850E+00
   0.66000000E+00           0.66498500E+00
   0.67000000E+00           0.67057970E+00
   0.68000000E+00           0.67595490E+00
   0.69000000E+00           0.68137250E+00
   0.70000000E+00           0.68634190E+00
   0.71000000E+00           0.69081270E+00
   0.72000000E+00           0.69565380E+00
   0.73000000E+00           0.70014180E+00
   0.74000000E+00           0.70403730E+00
   0.75000000E+00           0.70876900E+00
   0.76000000E+00           0.71215090E+00
   0.77000000E+00           0.71625180E+00
   0.78000000E+00           0.71917770E+00
   0.79000000E+00           0.72375310E+00
   0.80000000E+00           0.72626500E+00
   0.81000000E+00           0.72872630E+00
   0.82000000E+00           0.73214090E+00
   0.83000000E+00           0.73457710E+00
   0.84000000E+00           0.73645300E+00
   0.85000000E+00           0.73913590E+00
   0.86000000E+00           0.74116940E+00
   0.87000000E+00           0.74331570E+00
   0.88000000E+00           0.74459330E+00
   0.89000000E+00           0.74600970E+00
   0.90000000E+00           0.74746580E+00
   0.91000000E+00           0.74798140E+00
   0.92000000E+00           0.74942800E+00
   0.93000000E+00           0.74981620E+00
   0.94000000E+00           0.75080980E+00
   0.95000000E+00           0.75084190E+00
   0.96000000E+00           0.75162270E+00
   0.97000000E+00           0.75108310E+00
   0.98000000E+00           0.75103290E+00
   0.99000000E+00           0.75108870E+00
   0.10000000E+01           0.75074480E+00
   0.10100000E+01           0.74967770E+00
   0.10200000E+01           0.74854450E+00
   0.10300000E+01           0.74797740E+00
   0.10400000E+01           0.74685260E+00
   0.10500000E+01           0.74431500E+00
   0.10600000E+01           0.74314550E+00
   0.10700000E+01           0.74139150E+00
   0.10800000E+01           0.73972120E+00
   0.10900000E+01           0.73757290E+00
   0.11000000E+01           0.73515690E+00
   0.11100000E+01           0.73334620E+00
   0.11200000E+01           0.73048320E+00
   0.11300000E+01           0.72769160E+00
   0.11400000E+01           0.72515280E+00
   0.11500000E+01           0.72141500E+00
   0.11600000E+01           0.71827080E+00
   0.11700000E+01           0.71480390E+00
   0.11800000E+01           0.71178770E+00
   0.11900000E+01           0.70788120E+00
   0.12000000E+01           0.70454220E+00
   0.12100000E+01           0.70066190E+00
   0.12200000E+01           0.69574100E+00
   0.12300000E+01           0.69207500E+00
   0.12400000E+01           0.68732250E+00
   0.12500000E+01           0.68287170E+00
   0.12600000E+01           0.67839090E+00
   0.12700000E+01           0.67340190E+00
   0.12800000E+01           0.66852890E+00
   0.12900000E+01           0.66352050E+00
   0.13000000E+01           0.65855010E+00
   0.13100000E+01           0.65305560E+00
   0.13200000E+01           0.64813050E+00
   0.13300000E+01           0.64316260E+00
   0.13400000E+01           0.63651900E+00
   0.13500000E+01           0.63112170E+00
   0.13600000E+01           0.62531580E+00
   0.13700000E+01           0.61965690E+00
   0.13800000E+01           0.61359570E+00
   0.13900000E+01           0.60712230E+00
   0.14000000E+01           0.60111430E+00
   0.14100000E+01           0.59475100E+00
   0.14200000E+01           0.58840360E+00
   0.14300000E+01           0.58198800E+00
   0.14400000E+01           0.57551000E+00
   0.14500000E+01           0.56878490E+00
   0.14600000E+01           0.56190230E+00
   0.14700000E+01           0.55517730E+00
   0.14800000E+01           0.54810370E+00
   0.14900000E+01           0.54111660E+00
   0.15000000E+01           0.53457130E+00
   0.15100000E+01           0.52736960E+00
   0.15200000E+01           0.52049550E+00
   0.15300000E+01           0.51322920E+00
   0.15400000E+01           0.50563400E+00
   0.15500000E+01           0.49779040E+00
   0.15600000E+01           0.49081910E+00
   0.15700000E+01           0.48379420E+00
   0.15800000E+01           0.47629300E+00
   0.15900000E+01           0.46849320E+00
   0.16000000E+01           0.46166080E+00
   0.16100000E+01           0.45369350E+00
   0.16200000E+01           0.44631480E+00
   0.16300000E+01           0.43846800E+00
   0.16400000E+01           0.43075790E+00
   0.16500000E+01           0.42323770E+00
   0.16600000E+01           0.41522140E+00
   0.16700000E+01           0.40787190E+00
   0.16800000E+01           0.40017320E+00
   0.16900000E+01           0.39209960E+00
   0.17000000E+01           0.38447860E+00
   0.17100000E+01           0.37731300E+00
   0.17200000E+01           0.36914130E+00
   0.17300000E+01           0.36151040E+00
   0.17400000E+01           0.35405670E+00
   0.17500000E+01           0.34597880E+00
   0.17600000E+01           0.33855260E+00
   0.17700000E+01           0.33081680E+00
   0.17800000E+01           0.32312850E+00
   0.17900000E+01           0.31556940E+00
   0.18000000E+01           0.30784500E+00
   0.18100000E+01           0.30019820E+00
   0.18200000E+01           0.29268750E+00
   0.18300000E+01           0.28502810E+00
   0.18400000E+01           0.27778990E+00
   0.18500000E+01           0.27028100E+00
   0.18600000E+01           0.26268860E+00
   0.18700000E+01           0.25534300E+00
   0.18800000E+01           0.24799520E+00
   0.18900000E+01           0.24075740E+00
   0.19000000E+01           0.23357800E+00
   0.19100000E+01           0.22643510E+00
   0.19200000E+01           0.21906310E+00
   0.19300000E+01           0.21228810E+00
   0.19400000E+01           0.20503400E+00
   0.19500000E+01           0.19820610E+00
   0.19600000E+01           0.19113100E+00
   0.19700000E+01           0.18432050E+00
   0.19800000E+01           0.17754440E+00
   0.19900000E+01           0.17101170E+00
   0.20000000E+01           0.82867400E-01
 #T=   273.0000
  -0.20000000E+01           0.00000000E+00
  -0.19900000E+01           0.00000000E+00
  -0.19800000E+01           0.00000000E+00
  -0.19700000E+01           0.00000000E+00
  -0.19600000E+01           0.00000000E+00
  -0.19500000E+01           0.00000000E+00
  -0.19400000E+01           0.00000000E+00
  -0.19300000E+01           0.00000000E+00
  -0.19200000E+01           0.00000000E+00
  -0.19100000E+01           0.00000000E+00
  -0.19000000E+01           0.00000000E+00
  -0.18900000E+01           0.00000000E+00
  -0.18800000E+01           0.00000000E+00
  -0.18700000E+01           0.00000000E+00
  -0.18600000E+01           0.00000000E+00
  -0.18500000E+01           0.00000000E+00
  -0.18400000E+01           0.00000000E+00
  -0.18300000E+01           0.00000000E+00
  -0.18200000E+01           0.00000000E+00
  -0.18100000E+01           0.00000000E+00
  -0.18000000E+01           0.00000000E+00
  -0.17900000E+01           0.00000000E+00
  -0.17800000E+01           0.00000000E+00
  -0.17700000E+01           0.00000000E+00
  -0.17600000E+01           0.00000000E+00
  -0.17500000E+01           0.00000000E+00
  -0.17400000E+01           0.00000000E+00
  -0.17300000E+01           0.00000000E+00
  -0.17200000E+01           0.00000000E+00
  -0.17100000E+01           0.00000000E+00
  -0.17000000E+01           0.00000000E+00
  -0.16900000E+01           0.00000000E+00
  -0.16800000E+01           0.00000000E+00
  -0.16700000E+01           0.00000000E+00
  -0.16600000E+01           0.00000000E+00
  -0.16500000E+01           0.00000000E+00
  -0.16400000E+01           0.00000000E+00
  -0.16300000E+01           0.00000000E+00
  -0.16200000E+01           0.00000000E+00
  -0.16100000E+01           0.00000000E+00
  -0.16000000E+01           0.00000000E+00
  -0.15900000E+01           0.00000000E+00
  -0.15800000E+01           0.00000000E+00
  -0.15700000E+01           0.00000000E+00
  -0.15600000E+01           0.00000000E+00
  -0.15500000E+01           0.00000000E+00
  -0.15400000E+01           0.00000000E+00
  -0.15300000E+01           0.00000000E+00
  -0.15200000E+01           0.00000000E+00
  -0.15100000E+01           0.00000000E+00
  -0.15000000E+01           0.00000000E+00
  -0.14900000E+01           0.00000000E+00
  -0.14800000E+01           0.00000000E+00
  -0.14700000E+01           0.00000000E+00
  -0.14600000E+01           0.00000000E+00
  -0.14500000E+01           0.00000000E+00
  -0.14400000E+01           0.00000000E+00
  -0.14300000E+01           0.00000000E+00
  -0.14200000E+01           0.00000000E+00
  -0.14100000E+01           0.00000000E+00
  -0.14000000E+01           0.00000000E+00
  -0.13900000E+01           0.00000000E+00
  -0.13800000E+01           0.00000000E+00
  -0.13700000E+01           0.00000000E+00
  -0.13600000E+01           0.00000000E+00
  -0.13500000E+01           0.00000000E+00
  -0.13400000E+01           0.00000000E+00
  -0.13300000E+01           0.00000000E+00
  -0.13200000E+01           0.00000000E+00
  -0.13100000E+01           0.00000000E+00
  -0.13000000E+01           0.00000000E+00
  -0.12900000E+01           0.00000000E+00
  -0.12800000E+01           0.00000000E+00
  -0.12700000E+01           0.00000000E+00
  -0.12600000E+01           0.00000000E+00
  -0.12500000E+01           0.00000000E+00
  -0.12400000E+01           0.00000000E+00
  -0.12300000E+01           0.00000000E+00
  -0.12200000E+01           0.00000000E+00
  -0.12100000E+01           0.00000000E+00
  -0.12000000E+01           0.00000000E+00
  -0.11900000E+01           0.00000000E+00
  -0.11800000E+01           0.00000000E+00
  -0.11700000E+01           0.00000000E+00
  -0.11600000E+01           0.00000000E+00
  -0.11500000E+01           0.00000000E+00
  -0.11400000E+01           0.00000000E+00
  -0.11300000E+01           0.00000000E+00
  -0.11200000E+01           0.00000000E+00
  -0.11100000E+01           0.00000000E+00
  -0.11000000E+01           0.00000000E+00
  -0.10900000E+01           0.00000000E+00
  -0.10800000E+01           0.00000000E+00
  -0.10700000E+01           0.00000000E+00
  -0.10600000E+01           0.00000000E+00
  -0.10500000E+01           0.00000000E+00
  -0.10400000E+01           0.00000000E+00
  -0.10300000E+01           0.00000000E+00
  -0.10200000E+01           0.00000000E+00
  -0.10100000E+01           0.00000000E+00
  -0.10000000E+01           0.00000000E+00
  -0.99000000E+00           0.00000000E+00
  -0.98000000E+00           0.00000000E+00
  -0.97000000E+00           0.00000000E+00
  -0.96000000E+00           0.00000000E+00
  -0.95000000E+00           0.00000000E+00
  -0.94000000E+00           0.00000000E+00
  -0.93000000E+00           0.00000000E+00
  -0.92000000E+00           0.00000000E+00
  -0.91000000E+00           0.00000000E+00
  -0.90000000E+00           0.00000000E+00
  -0.89000000E+00           0.00000000E+00
  -0.88000000E+00           0.00000000E+00
  -0.87000000E+00           0.00000000E+00
  -0.86000000E+00           0.00000000E+00
  -0.85000000E+00           0.00000000E+00
  -0.84000000E+00           0.00000000E+00
  -0.83000000E+00           0.00000000E+00
  -0.82000000E+00           0.00000000E+00
  -0.81000000E+00           0.00000000E+00
  -0.80000000E+00           0.00000000E+00
  -0.79000000E+00           0.00000000E+00
  -0.78000000E+00           0.00000000E+00
  -0.77000000E+00           0.00000000E+00
  -0.76000000E+00           0.00000000E+00
  -0.75000000E+00           0.00000000E+00
  -0.74000000E+00           0.00000000E+00
  -0.73000000E+00           0.00000000E+00
  -0.72000000E+00           0.00000000E+00
  -0.71000000E+00           0.00000000E+00
  -0.70000000E+00           0.00000000E+00
  -0.69000000E+00           0.00000000E+00
  -0.68000000E+00           0.00000000E+00
  -0.67000000E+00           0.00000000E+00
  -0.66000000E+00           0.00000000E+00
  -0.65000000E+00           0.00000000E+00
  -0.64000000E+00           0.00000000E+00
  -0.63000000E+00           0.00000000E+00
  -0.62000000E+00           0.00000000E+00
  -0.61000000E+00           0.00000000E+00
  -0.60000000E+00           0.00000000E+00
  -0.59000000E+00           0.00000000E+00
  -0.58000000E+00           0.00000000E+00
  -0.57000000E+00           0.00000000E+00
  -0.56000000E+00           0.00000000E+00
  -0.55000000E+00           0.00000000E+00
  -0.54000000E+00           0.00000000E+00
  -0.53000000E+00           0.00000000E+00
  -0.52000000E+00           0.00000000E+00
  -0.51000000E+00           0.00000000E+00
  -0.50000000E+00           0.00000000E+00
  -0.49000000E+00           0.00000000E+00
  -0.48000000E+00           0.00000000E+00
  -0.47000000E+00           0.00000000E+00
  -0.46000000E+00           0.00000000E+00
  -0.45000000E+00           0.00000000E+00
  -0.44000000E+00           0.00000000E+00
  -0.43000000E+00           0.00000000E+00
  -0.42000000E+00           0.00000000E+00
  -0.41000000E+00           0.00000000E+00
  -0.40000000E+00           0.00000000E+00
  -0.39000000E+00           0.00000000E+00
  -0.38000000E+00           0.00000000E+00
  -0.37000000E+00           0.00000000E+00
  -0.36000000E+00           0.00000000E+00
  -0.35000000E+00           0.00000000E+00
  -0.34000000E+00           0.00000000E+00
  -0.33000000E+00           0.00000000E+00
  -0.32000000E+00           0.00000000E+00
  -0.31000000E+00           0.00000000E+00
  -0.30000000E+00           0.00000000E+00
  -0.29000000E+00           0.00000000E+00
  -0.28000000E+00           0.00000000E+00
  -0.27000000E+00           0.00000000E+00
  -0.26000000E+00           0.00000000E+00
  -0.25000000E+00           0.00000000E+00
  -0.24000000E+00           0.00000000E+00
  -0.23000000E+00           0.00000000E+00
  -0.22000000E+00           0.00000000E+00
  -0.21000000E+00           0.00000000E+00
  -0.20000000E+00           0.00000000E+00
  -0.19000000E+00           0.00000000E+00
  -0.18000000E+00           0.00000000E+00
  -0.17000000E+00           0.00000000E+00
  -0.16000000E+00           0.00000000E+00
  -0.15000000E+00           0.00000000E+00
  -0.14000000E+00           0.00000000E+00
  -0.13000000E+00           0.00000000E+00
  -0.12000000E+00           0.00000000E+00
  -0.11000000E+00           0.00000000E+00
  -0.10000000E+00           0.00000000E+00
  -0.90000000E-01           0.00000000E+00
  -0.80000000E-01           0.00000000E+00
  -0.70000000E-01           0.00000000E+00
  -0.60000000E-01           0.00000000E+00
  -0.50000000E-01           0.00000000E+00
  -0.40000000E-01           0.00000000E+00
  -0.30000000E-01           0.00000000E+00
  -0.20000000E-01           0.00000000E+00
  -0.10000000E-01           0.00000000E+00
   0.00000000E+00           0.15489000E-02
   0.10000000E-01           0.12439300E-01
   0.20000000E-01           0.24819300E-01
   0.30000000E-01           0.37147700E-01
   0.40000000E-01           0.49543300E-01
   0.50000000E-01           0.61919500E-01
   0.60000000E-01           0.74234700E-01
   0.70000000E-01           0.86418900E-01
   0.80000000E-01           0.98856200E-01
   0.90000000E-01           0.11100930E+00
   0.10000000E+00           0.12357930E+00
   0.11000000E+00           0.13552080E+00
   0.12000000E+00           0.14765400E+00
   0.13000000E+00           0.15974050E+00
   0.14000000E+00           0.17202150E+00
   0.15000000E+00           0.18368850E+00
   0.16000000E+00           0.19568760E+00
   0.17000000E+00           0.20727270E+00
   0.18000000E+00           0.21968900E+00
   0.19000000E+00           0.23123700E+00
   0.20000000E+00           0.24305780E+00
   0.21000000E+00           0.25498560E+00
   0.22000000E+00           0.26604810E+00
   0.23000000E+00           0.27790060E+00
   0.24000000E+00           0.28937360E+00
   0.25000000E+00           0.30067230E+00
   0.26000000E+00           0.31172880E+00
   0.27000000E+00           0.32316050E+00
   0.28000000E+00           0.33393870E+00
   0.29000000E+00           0.34552190E+00
   0.30000000E+00           0.35626140E+00
   0.31000000E+00           0.36660670E+00
   0.32000000E+00           0.37768640E+00
   0.33000000E+00           0.38835240E+00
   0.34000000E+00           0.39873540E+00
   0.35000000E+00           0.40918400E+00
   0.36000000E+00           0.41895190E+00
   0.37000000E+00           0.42920020E+00
   0.38000000E+00           0.43892230E+00
   0.39000000E+00           0.44897570E+00
   0.40000000E+00           0.45889400E+00
   0.41000000E+00           0.46849020E+00
   0.42000000E+00           0.47805730E+00
   0.43000000E+00           0.48740470E+00
   0.44000000E+00           0.49668110E+00
   0.45000000E+00           0.50578140E+00
   0.46000000E+00           0.51520360E+00
   0.47000000E+00           0.52318240E+00
   0.48000000E+00           0.53225020E+00
   0.49000000E+00           0.54104080E+00
   0.50000000E+00           0.54942540E+00
   0.51000000E+00           0.55700920E+00
   0.52000000E+00           0.56513750E+00
   0.53000000E+00           0.57349540E+00
   0.54000000E+00           0.58124120E+00
   0.55000000E+00           0.58920430E+00
   0.56000000E+00           0.59608910E+00
   0.57000000E+00           0.60362730E+00
   0.58000000E+00           0.61089790E+00
   0.59000000E+00           0.61721570E+00
   0.60000000E+00           0.62446290E+00
   0.61000000E+00           0.63124630E+00
   0.62000000E+00           0.63726550E+00
   0.63000000E+00           0.64389620E+00
   0.64000000E+00           0.65005070E+00
   0.65000000E+00           0.65571140E+00
   0.66000000E+00           0.66080910E+00
   0.67000000E+00           0.66686150E+00
   0.68000000E+00           0.67258110E+00
   0.69000000E+00           0.67676970E+00
   0.70000000E+00           0.68254390E+00
   0.71000000E+00           0.68750230E+00
   0.72000000E+00           0.69221170E+00
   0.73000000E+00           0.69637550E+00
   0.74000000E+00           0.70127320E+00
   0.75000000E+00           0.70531740E+00
   0.76000000E+00           0.70901480E+00
   0.77000000E+00           0.71216920E+00
   0.78000000E+00           0.71610120E+00
   0.79000000E+00           0.71972050E+00
   0.80000000E+00           0.72286100E+00
   0.81000000E+00           0.72602210E+00
   0.82000000E+00           0.72894530E+00
   0.83000000E+00           0.73151650E+00
   0.84000000E+00           0.73413480E+00
   0.85000000E+00           0.73578930E+00
   0.86000000E+00           0.73841150E+00
   0.87000000E+00           0.74057730E+00
   0.88000000E+00           0.74152720E+00
   0.89000000E+00           0.74344190E+00
   0.90000000E+00           0.74482190E+00
   0.91000000E+00           0.74588210E+00
   0.92000000E+00           0.74731410E+00
   0.93000000E+00           0.74790700E+00
   0.94000000E+00           0.74882980E+00
   0.95000000E+00           0.74889630E+00
   0.96000000E+00           0.74883500E+00
   0.97000000E+00           0.74949250E+00
   0.98000000E+00           0.74901660E+00
   0.99000000E+00           0.74868080E+00
   0.10000000E+01           0.74886050E+00
   0.10100000E+01           0.74769200E+00
   0.10200000E+01           0.74655260E+00
   0.10300000E+01           0.74632300E+00
   0.10400000E+01           0.74493640E+00
   0.10500000E+01           0.74379560E+00
   0.10600000E+01           0.74177910E+00
   0.10700000E+01           0.74020820E+00
   0.10800000E+01           0.73859990E+00
   0.10900000E+01           0.73657360E+00
   0.11000000E+01           0.73460290E+00
   0.11100000E+01           0.73227380E+00
   0.11200000E+01           0.72956240E+00
   0.11300000E+01           0.72731510E+00
   0.11400000E+01           0.72450490E+00
   0.11500000E+01           0.72142310E+00
   0.11600000E+01           0.71823590E+00
   0.11700000E+01           0.71490740E+00
   0.11800000E+01           0.71151070E+00
   0.11900000E+01           0.70833820E+00
   0.12000000E+01           0.70458660E+00
   0.12100000E+01           0.70049820E+00
   0.12200000E+01           0.69618520E+00
   0.12300000E+01           0.69281220E+00
   0.12400000E+01           0.68813590E+00
   0.12500000E+01           0.68391780E+00
   0.12600000E+01           0.67900570E+00
   0.12700000E+01           0.67431540E+00
   0.12800000E+01           0.66986170E+00
   0.12900000E+01           0.66475610E+00
   0.13000000E+01           0.66000670E+00
   0.13100000E+01           0.65510720E+00
   0.13200000E+01           0.64987720E+00
   0.13300000E+01           0.64429520E+00
   0.13400000E+01           0.63916110E+00
   0.13500000E+01           0.63308320E+00
   0.13600000E+01           0.62714520E+00
   0.13700000E+01           0.62170640E+00
   0.13800000E+01           0.61574060E+00
   0.13900000E+01           0.60989870E+00
   0.14000000E+01           0.60316580E+00
   0.14100000E+01           0.59719910E+00
   0.14200000E+01           0.59072920E+00
   0.14300000E+01           0.58451870E+00
   0.14400000E+01           0.57778370E+00
   0.14500000E+01           0.57121040E+00
   0.14600000E+01           0.56499200E+00
   0.14700000E+01           0.55802170E+00
   0.14800000E+01           0.55145540E+00
   0.14900000E+01           0.54470020E+00
   0.15000000E+01           0.53789340E+00
   0.15100000E+01           0.53080910E+00
   0.15200000E+01           0.52348770E+00
   0.15300000E+01           0.51636770E+00
   0.15400000E+01           0.50924480E+00
   0.15500000E+01           0.50179950E+00
   0.15600000E+01           0.49483440E+00
   0.15700000E+01           0.48724780E+00
   0.15800000E+01           0.48011710E+00
   0.15900000E+01           0.47267700E+00
   0.16000000E+01           0.46531600E+00
   0.16100000E+01           0.45762880E+00
   0.16200000E+01           0.44995790E+00
   0.16300000E+01           0.44285060E+00
   0.16400000E+01           0.43541000E+00
   0.16500000E+01           0.42715460E+00
   0.16600000E+01           0.42002240E+00
   0.16700000E+01           0.41244410E+00
   0.16800000E+01           0.40457030E+00
   0.16900000E+01           0.39669920E+00
   0.17000000E+01           0.38912810E+00
   0.17100000E+01           0.38169250E+00
   0.17200000E+01           0.37358380E+00
   0.17300000E+01           0.36635610E+00
   0.17400000E+01           0.35871750E+00
   0.17500000E+01           0.35096090E+00
   0.17600000E+01           0.34327060E+00
   0.17700000E+01           0.33563490E+00
   0.17800000E+01           0.32824580E+00
   0.17900000E+01           0.32050520E+00
   0.18000000E+01           0.31287580E+00
   0.18100000E+01           0.30526800E+00
   0.18200000E+01           0.29802510E+00
   0.18300000E+01           0.29032240E+00
   0.18400000E+01           0.28272210E+00
   0.18500000E+01           0.27534610E+00
   0.18600000E+01           0.26778000E+00
   0.18700000E+01           0.26052480E+00
   0.18800000E+01           0.25317030E+00
   0.18900000E+01           0.24621500E+00
   0.19000000E+01           0.23872260E+00
   0.19100000E+01           0.23126600E+00
   0.19200000E+01           0.22404870E+00
   0.19300000E+01           0.21706410E+00
   0.19400000E+01           0.21008780E+00
   0.19500000E+01           0.20297620E+00
   0.19600000E+01           0.19611400E+00
   0.19700000E+01           0.18911570E+00
   0.19800000E+01           0.18240240E+00
   0.19900000E+01           0.17574990E+00
   0.20000000E+01           0.85299300E-01
 #T=   274.0000
  -0.20000000E+01           0.00000000E+00
  -0.19900000E+01           0.00000000E+00
  -0.19800000E+01           0.00000000E+00
  -0.19700000E+01           0.00000000E+00
  -0.19600000E+01           0.00000000E+00
  -0.19500000E+01           0.00000000E+00
  -0.19400000E+01           0.00000000E+00
  -0.19300000E+01           0.00000000E+00
  -0.19200000E+01           0.00000000E+00
  -0.19100000E+01           0.00000000E+00
  -0.19000000E+01           0.00000000E+00
  -0.18900000E+01           0.00000000E+00
  -0.18800000E+01           0.00000000E+00
  -0.18700000E+01           0.00000000E+00
  -0.18600000E+01           0.00000000E+00
  -0.18500000E+01           0.00000000E+00
  -0.18400000E+01           0.00000000E+00
  -0.18300000E+01           0.00000000E+00
  -0.18200000E+01           0.00000000E+00
  -0.18100000E+01           0.00000000E+00
  -0.18000000E+01           0.00000000E+00
  -0.17900000E+01           0.00000000E+00
  -0.17800000E+01           0.00000000E+00
  -0.17700000E+01           0.00000000E+00
  -0.17600000E+01           0.00000000E+00
  -0.17500000E+01           0.00000000E+00
  -0.17400000E+01           0.00000000E+00
  -0.17300000E+01           0.00000000E+00
  -0.17200000E+01           0.00000000E+00
  -0.17100000E+01           0.00000000E+00
  -0.17000000E+01           0.00000000E+00
  -0.16900000E+01           0.00000000E+00
  -0.16800000E+01           0.00000000E+00
  -0.16700000E+01           0.00000000E+00
  -0.16600000E+01           0.00000000E+00
  -0.16500000E+01           0.00000000E+00
  -0.16400000E+01           0.00000000E+00
  -0.16300000E+01           0.00000000E+00
  -0.16200000E+01           0.00000000E+00
  -0.16100000E+01           0.00000000E+00
  -0.16000000E+01           0.00000000E+00
  -0.15900000E+01           0.00000000E+00
  -0.15800000E+01           0.00000000E+00
  -0.15700000E+01           0.00000000E+00
  -0.15600000E+01           0.00000000E+00
  -0.15500000E+01           0.00000000E+00
  -0.15400000E+01           0.00000000E+00
  -0.15300000E+01           0.00000000E+00
  -0.15200000E+01           0.00000000E+00
  -0.15100000E+01           0.00000000E+00
  -0.15000000E+01           0.00000000E+00
  -0.14900000E+01           0.00000000E+00
  -0.14800000E+01           0.00000000E+00
  -0.14700000E+01           0.00000000E+00
  -0.14600000E+01           0.00000000E+00
  -0.14500000E+01           0.00000000E+00
  -0.14400000E+01           0.00000000E+00
  -0.14300000E+01           0.00000000E+00
  -0.14200000E+01           0.00000000E+00
  -0.14100000E+01           0.00000000E+00
  -0.14000000E+01           0.00000000E+00
  -0.13900000E+01           0.00000000E+00
  -0.13800000E+01           0.00000000E+00
  -0.13700000E+01           0.00000000E+00
  -0.13600000E+01           0.00000000E+00
  -0.13500000E+01           0.00000000E+00
  -0.13400000E+01           0.00000000E+00
  -0.13300000E+01           0.00000000E+00
  -0.13200000E+01           0.00000000E+00
  -0.13100000E+01           0.00000000E+00
  -0.13000000E+01           0.00000000E+00
  -0.12900000E+01           0.00000000E+00
  -0.12800000E+01           0.00000000E+00
  -0.12700000E+01           0.00000000E+00
  -0.12600000E+01           0.00000000E+00
  -0.12500000E+01           0.00000000E+00
  -0.12400000E+01           0.00000000E+00
  -0.12300000E+01           0.00000000E+00
  -0.12200000E+01           0.00000000E+00
  -0.12100000E+01           0.00000000E+00
  -0.12000000E+01           0.00000000E+00
  -0.11900000E+01           0.00000000E+00
  -0.11800000E+01           0.00000000E+00
  -0.11700000E+01           0.00000000E+00
  -0.11600000E+01           0.00000000E+00
  -0.11500000E+01           0.00000000E+00
  -0.11400000E+01           0.00000000E+00
  -0.11300000E+01           0.00000000E+00
  -0.11200000E+01           0.00000000E+00
  -0.11100000E+01           0.00000000E+00
  -0.11000000E+01           0.00000000E+00
  -0.10900000E+01           0.00000000E+00
  -0.10800000E+01           0.00000000E+00
  -0.10700000E+01           0.00000000E+00
  -0.10600000E+01           0.00000000E+00
  -0.10500000E+01           0.00000000E+00
  -0.10400000E+01           0.00000000E+00
  -0.10300000E+01           0.00000000E+00
  -0.10200000E+01           0.00000000E+00
  -0.10100000E+01           0.00000000E+00
  -0.10000000E+01           0.00000000E+00
  -0.99000000E+00           0.00000000E+00
  -0.98000000E+00           0.00000000E+00
  -0.97000000E+00           0.00000000E+00
  -0.96000000E+00           0.00000000E+00
  -0.95000000E+00           0.00000000E+00
  -0.94000000E+00           0.00000000E+00
  -0.93000000E+00           0.00000000E+00
  -0.92000000E+00           0.00000000E+00
  -0.91000000E+00           0.00000000E+00
  -0.90000000E+00           0.00000000E+00
  -0.89000000E+00           0.00000000E+00
  -0.88000000E+00           0.00000000E+00
  -0.87000000E+00           0.00000000E+00
  -0.86000000E+00           0.00000000E+00
  -0.85000000E+00           0.00000000E+00
  -0.84000000E+00           0.00000000E+00
  -0.83000000E+00           0.00000000E+00
  -0.82000000E+00           0.00000000E+00
  -0.81000000E+00           0.00000000E+00
  -0.80000000E+00           0.00000000E+00
  -0.79000000E+00           0.00000000E+00
  -0.78000000E+00           0.00000000E+00
  -0.77000000E+00           0.00000000E+00
  -0.76000000E+00           0.00000000E+00
  -0.75000000E+00           0.00000000E+00
  -0.74000000E+00           0.00000000E+00
  -0.73000000E+00           0.00000000E+00
  -0.72000000E+00           0.00000000E+00
  -0.71000000E+00           0.00000000E+00
  -0.70000000E+00           0.00000000E+00
  -0.69000000E+00           0.00000000E+00
  -0.68000000E+00           0.00000000E+00
  -0.67000000E+00           0.00000000E+00
  -0.66000000E+00           0.00000000E+00
  -0.65000000E+00           0.00000000E+00
  -0.64000000E+00           0.00000000E+00
  -0.63000000E+00           0.00000000E+00
  -0.62000000E+00           0.00000000E+00
  -0.61000000E+00           0.00000000E+00
  -0.60000000E+00           0.00000000E+00
  -0.59000000E+00           0.00000000E+00
  -0.58000000E+00           0.00000000E+00
  -0.57000000E+00           0.00000000E+00
  -0.56000000E+00           0.00000000E+00
  -0.55000000E+00           0.00000000E+00
  -0.54000000E+00           0.00000000E+00
  -0.53000000E+00           0.00000000E+00
  -0.52000000E+00           0.00000000E+00
  -0.51000000E+00           0.00000000E+00
  -0.50000000E+00           0.00000000E+00
  -0.49000000E+00           0.00000000E+00
  -0.48000000E+00           0.00000000E+00
  -0.47000000E+00           0.00000000E+00
  -0.46000000E+00           0.00000000E+00
  -0.45000000E+00           0.00000000E+00
  -0.44000000E+00           0.00000000E+00
  -0.43000000E+00           0.00000000E+00
  -0.42000000E+00           0.00000000E+00
  -0.41000000E+00           0.00000000E+00
  -0.40000000E+00           0.00000000E+00
  -0.39000000E+00           0.00000000E+00
  -0.38000000E+00           0.00000000E+00
  -0.37000000E+00           0.00000000E+00
  -0.36000000E+00           0.00000000E+00
  -0.35000000E+00           0.00000000E+00
  -0.34000000E+00           0.00000000E+00
  -0.33000000E+00           0.00000000E+00
  -0.32000000E+00           0.00000000E+00
  -0.31000000E+00           0.00000000E+00
  -0.30000000E+00           0.00000000E+00
  -0.29000000E+00           0.00000000E+00
  -0.28000000E+00           0.00000000E+00
  -0.27000000E+00           0.00000000E+00
  -0.26000000E+00           0.00000000E+00
  -0.25000000E+00           0.00000000E+00
  -0.24000000E+00           0.00000000E+00
  -0.23000000E+00           0.00000000E+00
  -0.22000000E+00           0.00000000E+00
  -0.21000000E+00           0.00000000E+00
  -0.20000000E+00           0.00000000E+00
  -0.19000000E+00           0.00000000E+00
  -0.18000000E+00           0.00000000E+00
  -0.17000000E+00           0.00000000E+00
  -0.16000000E+00           0.00000000E+00
  -0.15000000E+00           0.00000000E+00
  -0.14000000E+00           0.00000000E+00
  -0.13000000E+00           0.00000000E+00
  -0.12000000E+00           0.00000000E+00
  -0.11000000E+00           0.00000000E+00
  -0.10000000E+00           0.00000000E+00
  -0.90000000E-01           0.00000000E+00
  -0.80000000E-01           0.00000000E+00
  -0.70000000E-01           0.00000000E+00
  -0.60000000E-01           0.00000000E+00
  -0.50000000E-01           0.00000000E+00
  -0.40000000E-01           0.00000000E+00
  -0.30000000E-01           0.00000000E+00
  -0.20000000E-01           0.00000000E+00
  -0.10000000E-01           0.00000000E+00
   0.00000000E+00           0.15452000E-02
   0.10000000E-01           0.12193000E-01
   0.20000000E-01           0.24582900E-01
   0.30000000E-01           0.36882300E-01
   0.40000000E-01           0.49105800E-01
   0.50000000E-01           0.61517900E-01
   0.60000000E-01           0.73576800E-01
   0.70000000E-01           0.85779800E-01
   0.80000000E-01           0.98010900E-01
   0.90000000E-01           0.11020120E+00
   0.10000000E+00           0.12249340E+00
   0.11000000E+00           0.13447580E+00
   0.12000000E+00           0.14645070E+00
   0.13000000E+00           0.15853760E+00
   0.14000000E+00           0.17063840E+00
   0.15000000E+00           0.18232210E+00
   0.16000000E+00           0.19424330E+00
   0.17000000E+00           0.20634280E+00
   0.18000000E+00           0.21815920E+00
   0.19000000E+00           0.23006960E+00
   0.20000000E+00           0.24111330E+00
   0.21000000E+00           0.25295080E+00
   0.22000000E+00           0.26460350E+00
   0.23000000E+00           0.27607840E+00
   0.24000000E+00           0.28765980E+00
   0.25000000E+00           0.29821430E+00
   0.26000000E+00           0.30936810E+00
   0.27000000E+00           0.32080790E+00
   0.28000000E+00           0.33157200E+00
   0.29000000E+00           0.34288820E+00
   0.30000000E+00           0.35361700E+00
   0.31000000E+00           0.36423360E+00
   0.32000000E+00           0.37497390E+00
   0.33000000E+00           0.38526220E+00
   0.34000000E+00           0.39570750E+00
   0.35000000E+00           0.40608980E+00
   0.36000000E+00           0.41618260E+00
   0.37000000E+00           0.42638300E+00
   0.38000000E+00           0.43681190E+00
   0.39000000E+00           0.44637740E+00
   0.40000000E+00           0.45558340E+00
   0.41000000E+00           0.46520150E+00
   0.42000000E+00           0.47485400E+00
   0.43000000E+00           0.48421360E+00
   0.44000000E+00           0.49344970E+00
   0.45000000E+00           0.50198360E+00
   0.46000000E+00           0.51120230E+00
   0.47000000E+00           0.52016340E+00
   0.48000000E+00           0.52833050E+00
   0.49000000E+00           0.53727510E+00
[...]
   0.13800000E+01           0.69172420E+00
   0.13900000E+01           0.69390320E+00
   0.14000000E+01           0.69605680E+00
   0.14100000E+01           0.69721720E+00
   0.14200000E+01           0.69984930E+00
   0.14300000E+01           0.70108200E+00
   0.14400000E+01           0.70312730E+00
   0.14500000E+01           0.70460500E+00
   0.14600000E+01           0.70621560E+00
   0.14700000E+01           0.70802290E+00
   0.14800000E+01           0.70920560E+00
   0.14900000E+01           0.71090020E+00
   0.15000000E+01           0.71232610E+00
   0.15100000E+01           0.71282110E+00
   0.15200000E+01           0.71479090E+00
   0.15300000E+01           0.71591030E+00
   0.15400000E+01           0.71721090E+00
   0.15500000E+01           0.71815890E+00
   0.15600000E+01           0.71912390E+00
   0.15700000E+01           0.72007200E+00
   0.15800000E+01           0.72127980E+00
   0.15900000E+01           0.72202210E+00
   0.16000000E+01           0.72302570E+00
   0.16100000E+01           0.72365970E+00
   0.16200000E+01           0.72378760E+00
   0.16300000E+01           0.72501630E+00
   0.16400000E+01           0.72522820E+00
   0.16500000E+01           0.72598050E+00
   0.16600000E+01           0.72655140E+00
   0.16700000E+01           0.72710240E+00
   0.16800000E+01           0.72764190E+00
   0.16900000E+01           0.72794670E+00
   0.17000000E+01           0.72768190E+00
   0.17100000E+01           0.72870600E+00
   0.17200000E+01           0.72844440E+00
   0.17300000E+01           0.72830380E+00
   0.17400000E+01           0.72856170E+00
   0.17500000E+01           0.72863230E+00
   0.17600000E+01           0.72858770E+00
   0.17700000E+01           0.72809400E+00
   0.17800000E+01           0.72862680E+00
   0.17900000E+01           0.72796610E+00
   0.18000000E+01           0.72792480E+00
   0.18100000E+01           0.72766690E+00
   0.18200000E+01           0.72627000E+00
   0.18300000E+01           0.72666420E+00
   0.18400000E+01           0.72613600E+00
   0.18500000E+01           0.72539360E+00
   0.18600000E+01           0.72494230E+00
   0.18700000E+01           0.72461850E+00
   0.18800000E+01           0.72388520E+00
   0.18900000E+01           0.72302830E+00
   0.19000000E+01           0.72240870E+00
   0.19100000E+01           0.72120960E+00
   0.19200000E+01           0.72057030E+00
   0.19300000E+01           0.71937420E+00
   0.19400000E+01           0.71830380E+00
   0.19500000E+01           0.71760980E+00
   0.19600000E+01           0.71695670E+00
   0.19700000E+01           0.71571740E+00
   0.19800000E+01           0.71386660E+00
   0.19900000E+01           0.71249040E+00
   0.20000000E+01           0.35590240E+00
 #T=   349.0000
  -0.20000000E+01           0.00000000E+00
  -0.19900000E+01           0.00000000E+00
  -0.19800000E+01           0.00000000E+00
  -0.19700000E+01           0.00000000E+00
  -0.19600000E+01           0.00000000E+00
  -0.19500000E+01           0.00000000E+00
  -0.19400000E+01           0.00000000E+00
  -0.19300000E+01           0.00000000E+00
  -0.19200000E+01           0.00000000E+00
  -0.19100000E+01           0.00000000E+00
  -0.19000000E+01           0.00000000E+00
  -0.18900000E+01           0.00000000E+00
  -0.18800000E+01           0.00000000E+00
  -0.18700000E+01           0.00000000E+00
  -0.18600000E+01           0.00000000E+00
  -0.18500000E+01           0.00000000E+00
  -0.18400000E+01           0.00000000E+00
  -0.18300000E+01           0.00000000E+00
  -0.18200000E+01           0.00000000E+00
  -0.18100000E+01           0.00000000E+00
  -0.18000000E+01           0.00000000E+00
  -0.17900000E+01           0.00000000E+00
  -0.17800000E+01           0.00000000E+00
  -0.17700000E+01           0.00000000E+00
  -0.17600000E+01           0.00000000E+00
  -0.17500000E+01           0.00000000E+00
  -0.17400000E+01           0.00000000E+00
  -0.17300000E+01           0.00000000E+00
  -0.17200000E+01           0.00000000E+00
  -0.17100000E+01           0.00000000E+00
  -0.17000000E+01           0.00000000E+00
  -0.16900000E+01           0.00000000E+00
  -0.16800000E+01           0.00000000E+00
  -0.16700000E+01           0.00000000E+00
  -0.16600000E+01           0.00000000E+00
  -0.16500000E+01           0.00000000E+00
  -0.16400000E+01           0.00000000E+00
  -0.16300000E+01           0.00000000E+00
  -0.16200000E+01           0.00000000E+00
  -0.16100000E+01           0.00000000E+00
  -0.16000000E+01           0.00000000E+00
  -0.15900000E+01           0.00000000E+00
  -0.15800000E+01           0.00000000E+00
  -0.15700000E+01           0.00000000E+00
  -0.15600000E+01           0.00000000E+00
  -0.15500000E+01           0.00000000E+00
  -0.15400000E+01           0.00000000E+00
  -0.15300000E+01           0.00000000E+00
  -0.15200000E+01           0.00000000E+00
  -0.15100000E+01           0.00000000E+00
  -0.15000000E+01           0.00000000E+00
  -0.14900000E+01           0.00000000E+00
  -0.14800000E+01           0.00000000E+00
  -0.14700000E+01           0.00000000E+00
  -0.14600000E+01           0.00000000E+00
  -0.14500000E+01           0.00000000E+00
  -0.14400000E+01           0.00000000E+00
  -0.14300000E+01           0.00000000E+00
  -0.14200000E+01           0.00000000E+00
  -0.14100000E+01           0.00000000E+00
  -0.14000000E+01           0.00000000E+00
  -0.13900000E+01           0.00000000E+00
  -0.13800000E+01           0.00000000E+00
  -0.13700000E+01           0.00000000E+00
  -0.13600000E+01           0.00000000E+00
  -0.13500000E+01           0.00000000E+00
  -0.13400000E+01           0.00000000E+00
  -0.13300000E+01           0.00000000E+00
  -0.13200000E+01           0.00000000E+00
  -0.13100000E+01           0.00000000E+00
  -0.13000000E+01           0.00000000E+00
  -0.12900000E+01           0.00000000E+00
  -0.12800000E+01           0.00000000E+00
  -0.12700000E+01           0.00000000E+00
  -0.12600000E+01           0.00000000E+00
  -0.12500000E+01           0.00000000E+00
  -0.12400000E+01           0.00000000E+00
  -0.12300000E+01           0.00000000E+00
  -0.12200000E+01           0.00000000E+00
  -0.12100000E+01           0.00000000E+00
  -0.12000000E+01           0.00000000E+00
  -0.11900000E+01           0.00000000E+00
  -0.11800000E+01           0.00000000E+00
  -0.11700000E+01           0.00000000E+00
  -0.11600000E+01           0.00000000E+00
  -0.11500000E+01           0.00000000E+00
  -0.11400000E+01           0.00000000E+00
  -0.11300000E+01           0.00000000E+00
  -0.11200000E+01           0.00000000E+00
  -0.11100000E+01           0.00000000E+00
  -0.11000000E+01           0.00000000E+00
  -0.10900000E+01           0.00000000E+00
  -0.10800000E+01           0.00000000E+00
  -0.10700000E+01           0.00000000E+00
  -0.10600000E+01           0.00000000E+00
  -0.10500000E+01           0.00000000E+00
  -0.10400000E+01           0.00000000E+00
  -0.10300000E+01           0.00000000E+00
  -0.10200000E+01           0.00000000E+00
  -0.10100000E+01           0.00000000E+00
  -0.10000000E+01           0.00000000E+00
  -0.99000000E+00           0.00000000E+00
  -0.98000000E+00           0.00000000E+00
  -0.97000000E+00           0.00000000E+00
  -0.96000000E+00           0.00000000E+00
  -0.95000000E+00           0.00000000E+00
  -0.94000000E+00           0.00000000E+00
  -0.93000000E+00           0.00000000E+00
  -0.92000000E+00           0.00000000E+00
  -0.91000000E+00           0.00000000E+00
  -0.90000000E+00           0.00000000E+00
  -0.89000000E+00           0.00000000E+00
  -0.88000000E+00           0.00000000E+00
  -0.87000000E+00           0.00000000E+00
  -0.86000000E+00           0.00000000E+00
  -0.85000000E+00           0.00000000E+00
  -0.84000000E+00           0.00000000E+00
  -0.83000000E+00           0.00000000E+00
  -0.82000000E+00           0.00000000E+00
  -0.81000000E+00           0.00000000E+00
  -0.80000000E+00           0.00000000E+00
  -0.79000000E+00           0.00000000E+00
  -0.78000000E+00           0.00000000E+00
  -0.77000000E+00           0.00000000E+00
  -0.76000000E+00           0.00000000E+00
  -0.75000000E+00           0.00000000E+00
  -0.74000000E+00           0.00000000E+00
  -0.73000000E+00           0.00000000E+00
  -0.72000000E+00           0.00000000E+00
  -0.71000000E+00           0.00000000E+00
  -0.70000000E+00           0.00000000E+00
  -0.69000000E+00           0.00000000E+00
  -0.68000000E+00           0.00000000E+00
  -0.67000000E+00           0.00000000E+00
  -0.66000000E+00           0.00000000E+00
  -0.65000000E+00           0.00000000E+00
  -0.64000000E+00           0.00000000E+00
  -0.63000000E+00           0.00000000E+00
  -0.62000000E+00           0.00000000E+00
  -0.61000000E+00           0.00000000E+00
  -0.60000000E+00           0.00000000E+00
  -0.59000000E+00           0.00000000E+00
  -0.58000000E+00           0.00000000E+00
  -0.57000000E+00           0.00000000E+00
  -0.56000000E+00           0.00000000E+00
  -0.55000000E+00           0.00000000E+00
  -0.54000000E+00           0.00000000E+00
  -0.53000000E+00           0.00000000E+00
  -0.52000000E+00           0.00000000E+00
  -0.51000000E+00           0.00000000E+00
  -0.50000000E+00           0.00000000E+00
  -0.49000000E+00           0.00000000E+00
  -0.48000000E+00           0.00000000E+00
  -0.47000000E+00           0.00000000E+00
  -0.46000000E+00           0.00000000E+00
  -0.45000000E+00           0.00000000E+00
  -0.44000000E+00           0.00000000E+00
  -0.43000000E+00           0.00000000E+00
  -0.42000000E+00           0.00000000E+00
  -0.41000000E+00           0.00000000E+00
  -0.40000000E+00           0.00000000E+00
  -0.39000000E+00           0.00000000E+00
  -0.38000000E+00           0.00000000E+00
  -0.37000000E+00           0.00000000E+00
  -0.36000000E+00           0.00000000E+00
  -0.35000000E+00           0.00000000E+00
  -0.34000000E+00           0.00000000E+00
  -0.33000000E+00           0.00000000E+00
  -0.32000000E+00           0.00000000E+00
  -0.31000000E+00           0.00000000E+00
  -0.30000000E+00           0.00000000E+00
  -0.29000000E+00           0.00000000E+00
  -0.28000000E+00           0.00000000E+00
  -0.27000000E+00           0.00000000E+00
  -0.26000000E+00           0.00000000E+00
  -0.25000000E+00           0.00000000E+00
  -0.24000000E+00           0.00000000E+00
  -0.23000000E+00           0.00000000E+00
  -0.22000000E+00           0.00000000E+00
  -0.21000000E+00           0.00000000E+00
  -0.20000000E+00           0.00000000E+00
  -0.19000000E+00           0.00000000E+00
  -0.18000000E+00           0.00000000E+00
  -0.17000000E+00           0.00000000E+00
  -0.16000000E+00           0.00000000E+00
  -0.15000000E+00           0.00000000E+00
  -0.14000000E+00           0.00000000E+00
  -0.13000000E+00           0.00000000E+00
  -0.12000000E+00           0.00000000E+00
  -0.11000000E+00           0.00000000E+00
  -0.10000000E+00           0.00000000E+00
  -0.90000000E-01           0.00000000E+00
  -0.80000000E-01           0.00000000E+00
  -0.70000000E-01           0.00000000E+00
  -0.60000000E-01           0.00000000E+00
  -0.50000000E-01           0.00000000E+00
  -0.40000000E-01           0.00000000E+00
  -0.30000000E-01           0.00000000E+00
  -0.20000000E-01           0.00000000E+00
  -0.10000000E-01           0.00000000E+00
   0.00000000E+00           0.83240000E-03
   0.10000000E-01           0.66783000E-02
   0.20000000E-01           0.13275700E-01
   0.30000000E-01           0.19892100E-01
   0.40000000E-01           0.26599400E-01
   0.50000000E-01           0.33170300E-01
   0.60000000E-01           0.39886000E-01
   0.70000000E-01           0.46498300E-01
   0.80000000E-01           0.53211300E-01
   0.90000000E-01           0.59830400E-01
   0.10000000E+00           0.66453800E-01
   0.11000000E+00           0.73193000E-01
   0.12000000E+00           0.79842400E-01
   0.13000000E+00           0.86193400E-01
   0.14000000E+00           0.92860100E-01
   0.15000000E+00           0.99563400E-01
   0.16000000E+00           0.10610840E+00
   0.17000000E+00           0.11278970E+00
   0.18000000E+00           0.11916380E+00
   0.19000000E+00           0.12596320E+00
   0.20000000E+00           0.13237990E+00
   0.21000000E+00           0.13910430E+00
   0.22000000E+00           0.14548750E+00
   0.23000000E+00           0.15199190E+00
   0.24000000E+00           0.15834060E+00
   0.25000000E+00           0.16506530E+00
   0.26000000E+00           0.17126980E+00
   0.27000000E+00           0.17758760E+00
   0.28000000E+00           0.18415650E+00
   0.29000000E+00           0.19056660E+00
   0.30000000E+00           0.19731760E+00
   0.31000000E+00           0.20351760E+00
   0.32000000E+00           0.20983150E+00
   0.33000000E+00           0.21640940E+00
   0.34000000E+00           0.22262480E+00
   0.35000000E+00           0.22888430E+00
   0.36000000E+00           0.23534390E+00
   0.37000000E+00           0.24145360E+00
   0.38000000E+00           0.24772880E+00
   0.39000000E+00           0.25406320E+00
   0.40000000E+00           0.26018590E+00
   0.41000000E+00           0.26663570E+00
   0.42000000E+00           0.27241420E+00
   0.43000000E+00           0.27882130E+00
   0.44000000E+00           0.28488370E+00
   0.45000000E+00           0.29132560E+00
   0.46000000E+00           0.29700090E+00
   0.47000000E+00           0.30287880E+00
   0.48000000E+00           0.30917960E+00
   0.49000000E+00           0.31522880E+00
   0.50000000E+00           0.32091230E+00
   0.51000000E+00           0.32676140E+00
   0.52000000E+00           0.33327890E+00
   0.53000000E+00           0.33846580E+00
   0.54000000E+00           0.34453480E+00
   0.55000000E+00           0.35026240E+00
   0.56000000E+00           0.35649840E+00
   0.57000000E+00           0.36228410E+00
   0.58000000E+00           0.36800090E+00
   0.59000000E+00           0.37324230E+00
   0.60000000E+00           0.37916280E+00
   0.61000000E+00           0.38482360E+00
   0.62000000E+00           0.39049580E+00
   0.63000000E+00           0.39586060E+00
   0.64000000E+00           0.40142770E+00
   0.65000000E+00           0.40711720E+00
   0.66000000E+00           0.41237390E+00
   0.67000000E+00           0.41762300E+00
   0.68000000E+00           0.42357090E+00
   0.69000000E+00           0.42865690E+00
   0.70000000E+00           0.43410620E+00
   0.71000000E+00           0.43937920E+00
   0.72000000E+00           0.44485260E+00
   0.73000000E+00           0.44970890E+00
   0.74000000E+00           0.45485690E+00
   0.75000000E+00           0.45997020E+00
   0.76000000E+00           0.46523930E+00
   0.77000000E+00           0.47038900E+00
   0.78000000E+00           0.47497340E+00
   0.79000000E+00           0.47989570E+00
   0.80000000E+00           0.48534300E+00
   0.81000000E+00           0.49015860E+00
   0.82000000E+00           0.49480350E+00
   0.83000000E+00           0.49915230E+00
   0.84000000E+00           0.50450280E+00
   0.85000000E+00           0.50927900E+00
   0.86000000E+00           0.51402590E+00
   0.87000000E+00           0.51835510E+00
   0.88000000E+00           0.52313870E+00
   0.89000000E+00           0.52764720E+00
   0.90000000E+00           0.53245920E+00
   0.91000000E+00           0.53674980E+00
   0.92000000E+00           0.54147250E+00
   0.93000000E+00           0.54551570E+00
   0.94000000E+00           0.55006910E+00
   0.95000000E+00           0.55413380E+00
   0.96000000E+00           0.55819700E+00
   0.97000000E+00           0.56300370E+00
   0.98000000E+00           0.56653390E+00
   0.99000000E+00           0.57084240E+00
   0.10000000E+01           0.57470890E+00
   0.10100000E+01           0.57916110E+00
   0.10200000E+01           0.58326050E+00
   0.10300000E+01           0.58674840E+00
   0.10400000E+01           0.59067280E+00
   0.10500000E+01           0.59470070E+00
   0.10600000E+01           0.59808270E+00
   0.10700000E+01           0.60212320E+00
   0.10800000E+01           0.60543980E+00
   0.10900000E+01           0.60961730E+00
   0.11000000E+01           0.61291640E+00
   0.11100000E+01           0.61671900E+00
   0.11200000E+01           0.62011150E+00
   0.11300000E+01           0.62327630E+00
   0.11400000E+01           0.62681320E+00
   0.11500000E+01           0.62995810E+00
   0.11600000E+01           0.63331330E+00
   0.11700000E+01           0.63668680E+00
   0.11800000E+01           0.63912120E+00
   0.11900000E+01           0.64297730E+00
   0.12000000E+01           0.64609320E+00
   0.12100000E+01           0.64924170E+00
   0.12200000E+01           0.65187560E+00
   0.12300000E+01           0.65454570E+00
   0.12400000E+01           0.65762770E+00
   0.12500000E+01           0.66022320E+00
   0.12600000E+01           0.66331830E+00
   0.12700000E+01           0.66579520E+00
   0.12800000E+01           0.66817220E+00
   0.12900000E+01           0.67102410E+00
   0.13000000E+01           0.67384410E+00
   0.13100000E+01           0.67613370E+00
   0.13200000E+01           0.67841700E+00
   0.13300000E+01           0.68110530E+00
   0.13400000E+01           0.68302380E+00
   0.13500000E+01           0.68542390E+00
   0.13600000E+01           0.68747220E+00
   0.13700000E+01           0.68979180E+00
   0.13800000E+01           0.69189940E+00
   0.13900000E+01           0.69356820E+00
   0.14000000E+01           0.69575460E+00
   0.14100000E+01           0.69789040E+00
   0.14200000E+01           0.70001790E+00
   0.14300000E+01           0.70146450E+00
   0.14400000E+01           0.70294060E+00
   0.14500000E+01           0.70509880E+00
   0.14600000E+01           0.70672890E+00
   0.14700000E+01           0.70862180E+00
   0.14800000E+01           0.70970820E+00
   0.14900000E+01           0.71126580E+00
   0.15000000E+01           0.71255210E+00
   0.15100000E+01           0.71427590E+00
   0.15200000E+01           0.71526900E+00
   0.15300000E+01           0.71681990E+00
   0.15400000E+01           0.71801500E+00
   0.15500000E+01           0.71942450E+00
   0.15600000E+01           0.72056780E+00
   0.15700000E+01           0.72173080E+00
   0.15800000E+01           0.72257600E+00
   0.15900000E+01           0.72355440E+00
   0.16000000E+01           0.72406100E+00
   0.16100000E+01           0.72470130E+00
   0.16200000E+01           0.72565910E+00
   0.16300000E+01           0.72656390E+00
   0.16400000E+01           0.72753450E+00
   0.16500000E+01           0.72816910E+00
   0.16600000E+01           0.72877870E+00
   0.16700000E+01           0.72948040E+00
   0.16800000E+01           0.72937880E+00
   0.16900000E+01           0.72993390E+00
   0.17000000E+01           0.73002300E+00
   0.17100000E+01           0.73024660E+00
   0.17200000E+01           0.73017250E+00
   0.17300000E+01           0.73085300E+00
   0.17400000E+01           0.73156680E+00
   0.17500000E+01           0.73169350E+00
   0.17600000E+01           0.73135020E+00
   0.17700000E+01           0.73155560E+00
   0.17800000E+01           0.73107830E+00
   0.17900000E+01           0.73046020E+00
   0.18000000E+01           0.73109560E+00
   0.18100000E+01           0.73050250E+00
   0.18200000E+01           0.73034260E+00
   0.18300000E+01           0.72987890E+00
   0.18400000E+01           0.72955220E+00
   0.18500000E+01           0.72918050E+00
   0.18600000E+01           0.72856320E+00
   0.18700000E+01           0.72774100E+00
   0.18800000E+01           0.72686120E+00
   0.18900000E+01           0.72649420E+00
   0.19000000E+01           0.72643410E+00
   0.19100000E+01           0.72490660E+00
   0.19200000E+01           0.72467240E+00
   0.19300000E+01           0.72383180E+00
   0.19400000E+01           0.72292920E+00
   0.19500000E+01           0.72240190E+00
   0.19600000E+01           0.72093130E+00
   0.19700000E+01           0.71965070E+00
   0.19800000E+01           0.71838070E+00
   0.19900000E+01           0.71710750E+00
   0.20000000E+01           0.35820690E+00
