 #written on  6Dec2024 at 19:31:17 
 #----------------- MONTECARLO -------------------#
 #        M                      P(M)             #
 #------------------------------------------------#
 #T=   370.0000
  -0.40000000E+01           0.00000000E+00
  -0.39900000E+01           0.00000000E+00
  -0.39800000E+01           0.00000000E+00
  -0.39700000E+01           0.00000000E+00
  -0.39600000E+01           0.00000000E+00
  -0.39500000E+01           0.00000000E+00
  -0.39400000E+01           0.00000000E+00
  -0.39300000E+01           0.00000000E+00
  -0.39200000E+01           0.00000000E+00
  -0.39100000E+01           0.00000000E+00
  -0.39000000E+01           0.00000000E+00
  -0.38900000E+01           0.00000000E+00
  -0.38800000E+01           0.00000000E+00
  -0.38700000E+01           0.00000000E+00
  -0.38600000E+01           0.00000000E+00
  -0.38500000E+01           0.00000000E+00
  -0.38400000E+01           0.00000000E+00
  -0.38300000E+01           0.00000000E+00
  -0.38200000E+01           0.00000000E+00
  -0.38100000E+01           0.00000000E+00
  -0.38000000E+01           0.00000000E+00
  -0.37900000E+01           0.00000000E+00
  -0.37800000E+01           0.00000000E+00
  -0.37700000E+01           0.00000000E+00
  -0.37600000E+01           0.00000000E+00
  -0.37500000E+01           0.00000000E+00
  -0.37400000E+01           0.00000000E+00
  -0.37300000E+01           0.00000000E+00
  -0.37200000E+01           0.00000000E+00
  -0.37100000E+01           0.00000000E+00
  -0.37000000E+01           0.00000000E+00
  -0.36900000E+01           0.00000000E+00
  -0.36800000E+01           0.00000000E+00
  -0.36700000E+01           0.00000000E+00
  -0.36600000E+01           0.00000000E+00
  -0.36500000E+01           0.00000000E+00
  -0.36400000E+01           0.00000000E+00
  -0.36300000E+01           0.00000000E+00
  -0.36200000E+01           0.00000000E+00
  -0.36100000E+01           0.00000000E+00
  -0.36000000E+01           0.00000000E+00
  -0.35900000E+01           0.00000000E+00
  -0.35800000E+01           0.00000000E+00
  -0.35700000E+01           0.00000000E+00
  -0.35600000E+01           0.00000000E+00
  -0.35500000E+01           0.00000000E+00
  -0.35400000E+01           0.00000000E+00
  -0.35300000E+01           0.00000000E+00
  -0.35200000E+01           0.00000000E+00
  -0.35100000E+01           0.00000000E+00
  -0.35000000E+01           0.00000000E+00
  -0.34900000E+01           0.00000000E+00
  -0.34800000E+01           0.00000000E+00
  -0.34700000E+01           0.00000000E+00
  -0.34600000E+01           0.00000000E+00
  -0.34500000E+01           0.00000000E+00
  -0.34400000E+01           0.00000000E+00
  -0.34300000E+01           0.00000000E+00
  -0.34200000E+01           0.00000000E+00
  -0.34100000E+01           0.00000000E+00
  -0.34000000E+01           0.00000000E+00
  -0.33900000E+01           0.00000000E+00
  -0.33800000E+01           0.00000000E+00
  -0.33700000E+01           0.00000000E+00
  -0.33600000E+01           0.00000000E+00
  -0.33500000E+01           0.00000000E+00
  -0.33400000E+01           0.00000000E+00
  -0.33300000E+01           0.00000000E+00
  -0.33200000E+01           0.00000000E+00
  -0.33100000E+01           0.00000000E+00
  -0.33000000E+01           0.00000000E+00
  -0.32900000E+01           0.00000000E+00
  -0.32800000E+01           0.00000000E+00
  -0.32700000E+01           0.00000000E+00
  -0.32600000E+01           0.00000000E+00
  -0.32500000E+01           0.00000000E+00
  -0.32400000E+01           0.00000000E+00
  -0.32300000E+01           0.00000000E+00
  -0.32200000E+01           0.00000000E+00
  -0.32100000E+01           0.00000000E+00
  -0.32000000E+01           0.00000000E+00
  -0.31900000E+01           0.00000000E+00
  -0.31800000E+01           0.00000000E+00
  -0.31700000E+01           0.00000000E+00
  -0.31600000E+01           0.00000000E+00
  -0.31500000E+01           0.00000000E+00
  -0.31400000E+01           0.00000000E+00
  -0.31300000E+01           0.00000000E+00
  -0.31200000E+01           0.00000000E+00
  -0.31100000E+01           0.00000000E+00
  -0.31000000E+01           0.00000000E+00
  -0.30900000E+01           0.00000000E+00
  -0.30800000E+01           0.00000000E+00
  -0.30700000E+01           0.00000000E+00
  -0.30600000E+01           0.00000000E+00
  -0.30500000E+01           0.00000000E+00
  -0.30400000E+01           0.00000000E+00
  -0.30300000E+01           0.00000000E+00
  -0.30200000E+01           0.00000000E+00
  -0.30100000E+01           0.00000000E+00
  -0.30000000E+01           0.00000000E+00
  -0.29900000E+01           0.00000000E+00
  -0.29800000E+01           0.00000000E+00
  -0.29700000E+01           0.00000000E+00
  -0.29600000E+01           0.00000000E+00
  -0.29500000E+01           0.00000000E+00
  -0.29400000E+01           0.00000000E+00
  -0.29300000E+01           0.00000000E+00
  -0.29200000E+01           0.00000000E+00
  -0.29100000E+01           0.00000000E+00
  -0.29000000E+01           0.00000000E+00
  -0.28900000E+01           0.00000000E+00
  -0.28800000E+01           0.00000000E+00
  -0.28700000E+01           0.00000000E+00
  -0.28600000E+01           0.00000000E+00
  -0.28500000E+01           0.00000000E+00
  -0.28400000E+01           0.00000000E+00
  -0.28300000E+01           0.00000000E+00
  -0.28200000E+01           0.00000000E+00
  -0.28100000E+01           0.00000000E+00
  -0.28000000E+01           0.00000000E+00
  -0.27900000E+01           0.00000000E+00
  -0.27800000E+01           0.00000000E+00
  -0.27700000E+01           0.00000000E+00
  -0.27600000E+01           0.00000000E+00
  -0.27500000E+01           0.00000000E+00
  -0.27400000E+01           0.00000000E+00
  -0.27300000E+01           0.00000000E+00
  -0.27200000E+01           0.00000000E+00
  -0.27100000E+01           0.00000000E+00
  -0.27000000E+01           0.00000000E+00
  -0.26900000E+01           0.00000000E+00
  -0.26800000E+01           0.00000000E+00
  -0.26700000E+01           0.00000000E+00
  -0.26600000E+01           0.00000000E+00
  -0.26500000E+01           0.00000000E+00
  -0.26400000E+01           0.00000000E+00
  -0.26300000E+01           0.00000000E+00
  -0.26200000E+01           0.00000000E+00
  -0.26100000E+01           0.00000000E+00
  -0.26000000E+01           0.00000000E+00
  -0.25900000E+01           0.00000000E+00
  -0.25800000E+01           0.00000000E+00
  -0.25700000E+01           0.00000000E+00
  -0.25600000E+01           0.00000000E+00
  -0.25500000E+01           0.00000000E+00
  -0.25400000E+01           0.00000000E+00
  -0.25300000E+01           0.00000000E+00
  -0.25200000E+01           0.00000000E+00
  -0.25100000E+01           0.00000000E+00
  -0.25000000E+01           0.00000000E+00
  -0.24900000E+01           0.00000000E+00
  -0.24800000E+01           0.00000000E+00
  -0.24700000E+01           0.00000000E+00
  -0.24600000E+01           0.00000000E+00
  -0.24500000E+01           0.00000000E+00
  -0.24400000E+01           0.00000000E+00
  -0.24300000E+01           0.00000000E+00
  -0.24200000E+01           0.00000000E+00
  -0.24100000E+01           0.00000000E+00
  -0.24000000E+01           0.00000000E+00
  -0.23900000E+01           0.00000000E+00
  -0.23800000E+01           0.00000000E+00
  -0.23700000E+01           0.00000000E+00
  -0.23600000E+01           0.00000000E+00
  -0.23500000E+01           0.00000000E+00
  -0.23400000E+01           0.00000000E+00
  -0.23300000E+01           0.00000000E+00
  -0.23200000E+01           0.00000000E+00
  -0.23100000E+01           0.00000000E+00
  -0.23000000E+01           0.00000000E+00
  -0.22900000E+01           0.00000000E+00
  -0.22800000E+01           0.00000000E+00
  -0.22700000E+01           0.00000000E+00
  -0.22600000E+01           0.00000000E+00
  -0.22500000E+01           0.00000000E+00
  -0.22400000E+01           0.00000000E+00
  -0.22300000E+01           0.00000000E+00
  -0.22200000E+01           0.00000000E+00
  -0.22100000E+01           0.00000000E+00
  -0.22000000E+01           0.00000000E+00
  -0.21900000E+01           0.00000000E+00
  -0.21800000E+01           0.00000000E+00
  -0.21700000E+01           0.00000000E+00
  -0.21600000E+01           0.00000000E+00
  -0.21500000E+01           0.00000000E+00
  -0.21400000E+01           0.00000000E+00
  -0.21300000E+01           0.00000000E+00
  -0.21200000E+01           0.00000000E+00
  -0.21100000E+01           0.00000000E+00
  -0.21000000E+01           0.00000000E+00
  -0.20900000E+01           0.00000000E+00
  -0.20800000E+01           0.00000000E+00
  -0.20700000E+01           0.00000000E+00
  -0.20600000E+01           0.00000000E+00
  -0.20500000E+01           0.00000000E+00
  -0.20400000E+01           0.00000000E+00
  -0.20300000E+01           0.00000000E+00
  -0.20200000E+01           0.00000000E+00
  -0.20100000E+01           0.00000000E+00
  -0.20000000E+01           0.00000000E+00
  -0.19900000E+01           0.00000000E+00
  -0.19800000E+01           0.00000000E+00
  -0.19700000E+01           0.00000000E+00
  -0.19600000E+01           0.00000000E+00
  -0.19500000E+01           0.00000000E+00
  -0.19400000E+01           0.00000000E+00
  -0.19300000E+01           0.00000000E+00
  -0.19200000E+01           0.00000000E+00
  -0.19100000E+01           0.00000000E+00
  -0.19000000E+01           0.00000000E+00
  -0.18900000E+01           0.00000000E+00
  -0.18800000E+01           0.00000000E+00
  -0.18700000E+01           0.00000000E+00
  -0.18600000E+01           0.00000000E+00
  -0.18500000E+01           0.00000000E+00
  -0.18400000E+01           0.00000000E+00
  -0.18300000E+01           0.00000000E+00
  -0.18200000E+01           0.00000000E+00
  -0.18100000E+01           0.00000000E+00
  -0.18000000E+01           0.00000000E+00
  -0.17900000E+01           0.00000000E+00
  -0.17800000E+01           0.00000000E+00
  -0.17700000E+01           0.00000000E+00
  -0.17600000E+01           0.00000000E+00
  -0.17500000E+01           0.00000000E+00
  -0.17400000E+01           0.00000000E+00
  -0.17300000E+01           0.00000000E+00
  -0.17200000E+01           0.00000000E+00
  -0.17100000E+01           0.00000000E+00
  -0.17000000E+01           0.00000000E+00
  -0.16900000E+01           0.00000000E+00
  -0.16800000E+01           0.00000000E+00
  -0.16700000E+01           0.00000000E+00
  -0.16600000E+01           0.00000000E+00
  -0.16500000E+01           0.00000000E+00
  -0.16400000E+01           0.00000000E+00
  -0.16300000E+01           0.00000000E+00
  -0.16200000E+01           0.00000000E+00
  -0.16100000E+01           0.00000000E+00
  -0.16000000E+01           0.00000000E+00
  -0.15900000E+01           0.00000000E+00
  -0.15800000E+01           0.00000000E+00
  -0.15700000E+01           0.00000000E+00
  -0.15600000E+01           0.00000000E+00
  -0.15500000E+01           0.00000000E+00
  -0.15400000E+01           0.00000000E+00
  -0.15300000E+01           0.00000000E+00
  -0.15200000E+01           0.00000000E+00
  -0.15100000E+01           0.00000000E+00
  -0.15000000E+01           0.00000000E+00
  -0.14900000E+01           0.00000000E+00
  -0.14800000E+01           0.00000000E+00
  -0.14700000E+01           0.00000000E+00
  -0.14600000E+01           0.00000000E+00
  -0.14500000E+01           0.00000000E+00
  -0.14400000E+01           0.00000000E+00
  -0.14300000E+01           0.00000000E+00
  -0.14200000E+01           0.00000000E+00
  -0.14100000E+01           0.00000000E+00
  -0.14000000E+01           0.00000000E+00
  -0.13900000E+01           0.00000000E+00
  -0.13800000E+01           0.00000000E+00
  -0.13700000E+01           0.00000000E+00
  -0.13600000E+01           0.00000000E+00
  -0.13500000E+01           0.00000000E+00
  -0.13400000E+01           0.00000000E+00
  -0.13300000E+01           0.00000000E+00
  -0.13200000E+01           0.00000000E+00
  -0.13100000E+01           0.00000000E+00
  -0.13000000E+01           0.00000000E+00
  -0.12900000E+01           0.00000000E+00
  -0.12800000E+01           0.00000000E+00
  -0.12700000E+01           0.00000000E+00
  -0.12600000E+01           0.00000000E+00
  -0.12500000E+01           0.00000000E+00
  -0.12400000E+01           0.00000000E+00
  -0.12300000E+01           0.00000000E+00
  -0.12200000E+01           0.00000000E+00
  -0.12100000E+01           0.00000000E+00
  -0.12000000E+01           0.00000000E+00
  -0.11900000E+01           0.00000000E+00
  -0.11800000E+01           0.00000000E+00
  -0.11700000E+01           0.00000000E+00
  -0.11600000E+01           0.00000000E+00
  -0.11500000E+01           0.00000000E+00
  -0.11400000E+01           0.00000000E+00
  -0.11300000E+01           0.00000000E+00
  -0.11200000E+01           0.00000000E+00
  -0.11100000E+01           0.00000000E+00
  -0.11000000E+01           0.00000000E+00
  -0.10900000E+01           0.00000000E+00
  -0.10800000E+01           0.00000000E+00
  -0.10700000E+01           0.00000000E+00
  -0.10600000E+01           0.00000000E+00
  -0.10500000E+01           0.00000000E+00
  -0.10400000E+01           0.00000000E+00
  -0.10300000E+01           0.00000000E+00
  -0.10200000E+01           0.00000000E+00
  -0.10100000E+01           0.00000000E+00
  -0.10000000E+01           0.00000000E+00
  -0.99000000E+00           0.00000000E+00
  -0.98000000E+00           0.00000000E+00
  -0.97000000E+00           0.00000000E+00
  -0.96000000E+00           0.00000000E+00
  -0.95000000E+00           0.00000000E+00
  -0.94000000E+00           0.00000000E+00
  -0.93000000E+00           0.00000000E+00
  -0.92000000E+00           0.00000000E+00
  -0.91000000E+00           0.00000000E+00
  -0.90000000E+00           0.00000000E+00
  -0.89000000E+00           0.00000000E+00
  -0.88000000E+00           0.00000000E+00
  -0.87000000E+00           0.00000000E+00
  -0.86000000E+00           0.00000000E+00
  -0.85000000E+00           0.00000000E+00
  -0.84000000E+00           0.00000000E+00
  -0.83000000E+00           0.00000000E+00
  -0.82000000E+00           0.00000000E+00
  -0.81000000E+00           0.00000000E+00
  -0.80000000E+00           0.00000000E+00
  -0.79000000E+00           0.00000000E+00
  -0.78000000E+00           0.00000000E+00
  -0.77000000E+00           0.00000000E+00
  -0.76000000E+00           0.00000000E+00
  -0.75000000E+00           0.00000000E+00
  -0.74000000E+00           0.00000000E+00
  -0.73000000E+00           0.00000000E+00
  -0.72000000E+00           0.00000000E+00
  -0.71000000E+00           0.00000000E+00
  -0.70000000E+00           0.00000000E+00
  -0.69000000E+00           0.00000000E+00
  -0.68000000E+00           0.00000000E+00
  -0.67000000E+00           0.00000000E+00
  -0.66000000E+00           0.00000000E+00
  -0.65000000E+00           0.00000000E+00
  -0.64000000E+00           0.00000000E+00
  -0.63000000E+00           0.00000000E+00
  -0.62000000E+00           0.00000000E+00
  -0.61000000E+00           0.00000000E+00
  -0.60000000E+00           0.00000000E+00
  -0.59000000E+00           0.00000000E+00
  -0.58000000E+00           0.00000000E+00
  -0.57000000E+00           0.00000000E+00
  -0.56000000E+00           0.00000000E+00
  -0.55000000E+00           0.00000000E+00
  -0.54000000E+00           0.00000000E+00
  -0.53000000E+00           0.00000000E+00
  -0.52000000E+00           0.00000000E+00
  -0.51000000E+00           0.00000000E+00
  -0.50000000E+00           0.00000000E+00
  -0.49000000E+00           0.00000000E+00
  -0.48000000E+00           0.00000000E+00
  -0.47000000E+00           0.00000000E+00
  -0.46000000E+00           0.00000000E+00
  -0.45000000E+00           0.00000000E+00
  -0.44000000E+00           0.00000000E+00
  -0.43000000E+00           0.00000000E+00
  -0.42000000E+00           0.00000000E+00
  -0.41000000E+00           0.00000000E+00
  -0.40000000E+00           0.00000000E+00
  -0.39000000E+00           0.00000000E+00
  -0.38000000E+00           0.00000000E+00
  -0.37000000E+00           0.00000000E+00
  -0.36000000E+00           0.00000000E+00
  -0.35000000E+00           0.00000000E+00
  -0.34000000E+00           0.00000000E+00
  -0.33000000E+00           0.00000000E+00
  -0.32000000E+00           0.00000000E+00
  -0.31000000E+00           0.00000000E+00
  -0.30000000E+00           0.00000000E+00
  -0.29000000E+00           0.00000000E+00
  -0.28000000E+00           0.00000000E+00
  -0.27000000E+00           0.00000000E+00
  -0.26000000E+00           0.00000000E+00
  -0.25000000E+00           0.00000000E+00
  -0.24000000E+00           0.00000000E+00
  -0.23000000E+00           0.00000000E+00
  -0.22000000E+00           0.00000000E+00
  -0.21000000E+00           0.00000000E+00
  -0.20000000E+00           0.00000000E+00
  -0.19000000E+00           0.00000000E+00
  -0.18000000E+00           0.00000000E+00
  -0.17000000E+00           0.00000000E+00
  -0.16000000E+00           0.00000000E+00
  -0.15000000E+00           0.00000000E+00
  -0.14000000E+00           0.00000000E+00
  -0.13000000E+00           0.00000000E+00
  -0.12000000E+00           0.00000000E+00
  -0.11000000E+00           0.00000000E+00
  -0.10000000E+00           0.00000000E+00
  -0.90000000E-01           0.00000000E+00
  -0.80000000E-01           0.00000000E+00
  -0.70000000E-01           0.00000000E+00
  -0.60000000E-01           0.00000000E+00
  -0.50000000E-01           0.00000000E+00
  -0.40000000E-01           0.00000000E+00
  -0.30000000E-01           0.00000000E+00
  -0.20000000E-01           0.00000000E+00
  -0.10000000E-01           0.00000000E+00
   0.00000000E+00           0.14638448E-04
   0.10000000E-01           0.43386243E-03
   0.20000000E-01           0.16179894E-02
   0.30000000E-01           0.35867725E-02
   0.40000000E-01           0.62021164E-02
   0.50000000E-01           0.95350970E-02
   0.60000000E-01           0.13589947E-01
   0.70000000E-01           0.18281481E-01
   0.80000000E-01           0.23529806E-01
   0.90000000E-01           0.29288536E-01
   0.10000000E+00           0.35773545E-01
   0.11000000E+00           0.42622399E-01
   0.12000000E+00           0.49891711E-01
   0.13000000E+00           0.57667549E-01
   0.14000000E+00           0.66086420E-01
   0.15000000E+00           0.74614286E-01
   0.16000000E+00           0.83409877E-01
   0.17000000E+00           0.92647619E-01
   0.18000000E+00           0.10300635E+00
   0.19000000E+00           0.11287090E+00
   0.20000000E+00           0.12313651E+00
   0.21000000E+00           0.13384250E+00
   0.22000000E+00           0.14467213E+00
   0.23000000E+00           0.15560864E+00
   0.24000000E+00           0.16682822E+00
   0.25000000E+00           0.17840459E+00
   0.26000000E+00           0.19000582E+00
   0.27000000E+00           0.20180441E+00
   0.28000000E+00           0.21369665E+00
   0.29000000E+00           0.22594462E+00
   0.30000000E+00           0.23789224E+00
   0.31000000E+00           0.25041799E+00
   0.32000000E+00           0.26244974E+00
   0.33000000E+00           0.27500388E+00
   0.34000000E+00           0.28742910E+00
   0.35000000E+00           0.29920847E+00
   0.36000000E+00           0.31147055E+00
   0.37000000E+00           0.32390476E+00
   0.38000000E+00           0.33639788E+00
   0.39000000E+00           0.34880441E+00
   0.40000000E+00           0.36145397E+00
   0.41000000E+00           0.37366684E+00
   0.42000000E+00           0.38548942E+00
   0.43000000E+00           0.39755661E+00
   0.44000000E+00           0.40935538E+00
   0.45000000E+00           0.42133175E+00
   0.46000000E+00           0.43343862E+00
   0.47000000E+00           0.44528836E+00
   0.48000000E+00           0.45662381E+00
   0.49000000E+00           0.46821464E+00
   0.50000000E+00           0.47942522E+00
   0.51000000E+00           0.48996843E+00
   0.52000000E+00           0.50143263E+00
   0.53000000E+00           0.51252875E+00
   0.54000000E+00           0.52280705E+00
   0.55000000E+00           0.53275062E+00
   0.56000000E+00           0.54344145E+00
   0.57000000E+00           0.55340529E+00
   0.58000000E+00           0.56327213E+00
   0.59000000E+00           0.57288501E+00
   0.60000000E+00           0.58219559E+00
   0.61000000E+00           0.59135150E+00
   0.62000000E+00           0.59988677E+00
   0.63000000E+00           0.60888448E+00
   0.64000000E+00           0.61795326E+00
   0.65000000E+00           0.62571111E+00
   0.66000000E+00           0.63398642E+00
   0.67000000E+00           0.64162011E+00
   0.68000000E+00           0.64974638E+00
   0.69000000E+00           0.65603757E+00
   0.70000000E+00           0.66330035E+00
   0.71000000E+00           0.67003316E+00
   0.72000000E+00           0.67621975E+00
   0.73000000E+00           0.68296984E+00
   0.74000000E+00           0.68897566E+00
   0.75000000E+00           0.69471146E+00
   0.76000000E+00           0.69978660E+00
   0.77000000E+00           0.70554145E+00
   0.78000000E+00           0.71051217E+00
   0.79000000E+00           0.71503986E+00
   0.80000000E+00           0.71908166E+00
   0.81000000E+00           0.72396420E+00
   0.82000000E+00           0.72749224E+00
   0.83000000E+00           0.73087654E+00
   0.84000000E+00           0.73475714E+00
   0.85000000E+00           0.73845996E+00
   0.86000000E+00           0.74109683E+00
   0.87000000E+00           0.74289630E+00
   0.88000000E+00           0.74510547E+00
   0.89000000E+00           0.74766861E+00
   0.90000000E+00           0.74944356E+00
   0.91000000E+00           0.75088007E+00
   0.92000000E+00           0.75239330E+00
   0.93000000E+00           0.75406384E+00
   0.94000000E+00           0.75402981E+00
   0.95000000E+00           0.75495432E+00
   0.96000000E+00           0.75512910E+00
   0.97000000E+00           0.75442734E+00
   0.98000000E+00           0.75551323E+00
   0.99000000E+00           0.75425273E+00
   0.10000000E+01           0.75377108E+00
   0.10100000E+01           0.75305238E+00
   0.10200000E+01           0.75161940E+00
   0.10300000E+01           0.75017284E+00
   0.10400000E+01           0.74885115E+00
   0.10500000E+01           0.74742416E+00
   0.10600000E+01           0.74556473E+00
   0.10700000E+01           0.74260952E+00
   0.10800000E+01           0.74113792E+00
   0.10900000E+01           0.73795979E+00
   0.11000000E+01           0.73594021E+00
   0.11100000E+01           0.73244515E+00
   0.11200000E+01           0.72936049E+00
   0.11300000E+01           0.72585608E+00
   0.11400000E+01           0.72318660E+00
   0.11500000E+01           0.71977143E+00
   0.11600000E+01           0.71626420E+00
   0.11700000E+01           0.71143298E+00
   0.11800000E+01           0.70670511E+00
   0.11900000E+01           0.70334586E+00
   0.12000000E+01           0.69751411E+00
   0.12100000E+01           0.69362222E+00
   0.12200000E+01           0.68879541E+00
   0.12300000E+01           0.68350582E+00
   0.12400000E+01           0.67900018E+00
   0.12500000E+01           0.67364092E+00
   0.12600000E+01           0.66846173E+00
   0.12700000E+01           0.66300882E+00
   0.12800000E+01           0.65766878E+00
   0.12900000E+01           0.65217354E+00
   0.13000000E+01           0.64565520E+00
   0.13100000E+01           0.64058748E+00
   0.13200000E+01           0.63507601E+00
   0.13300000E+01           0.62852646E+00
   0.13400000E+01           0.62295150E+00
   0.13500000E+01           0.61642698E+00
   0.13600000E+01           0.61058801E+00
   0.13700000E+01           0.60387672E+00
   0.13800000E+01           0.59697919E+00
   0.13900000E+01           0.59105520E+00
   0.14000000E+01           0.58399330E+00
   0.14100000E+01           0.57754568E+00
   0.14200000E+01           0.57048730E+00
   0.14300000E+01           0.56430723E+00
   0.14400000E+01           0.55709065E+00
   0.14500000E+01           0.55024145E+00
   0.14600000E+01           0.54360811E+00
   0.14700000E+01           0.53657125E+00
   0.14800000E+01           0.52932575E+00
   0.14900000E+01           0.52251852E+00
   0.15000000E+01           0.51580529E+00
   0.15100000E+01           0.50851517E+00
   0.15200000E+01           0.50166243E+00
   0.15300000E+01           0.49459612E+00
   0.15400000E+01           0.48708959E+00
   0.15500000E+01           0.48063298E+00
   0.15600000E+01           0.47273739E+00
   0.15700000E+01           0.46622540E+00
   0.15800000E+01           0.45928236E+00
   0.15900000E+01           0.45159894E+00
   0.16000000E+01           0.44436772E+00
   0.16100000E+01           0.43754515E+00
   0.16200000E+01           0.43106843E+00
   0.16300000E+01           0.42366966E+00
   0.16400000E+01           0.41724162E+00
   0.16500000E+01           0.40989824E+00
   0.16600000E+01           0.40220688E+00
   0.16700000E+01           0.39591623E+00
   0.16800000E+01           0.38902892E+00
   0.16900000E+01           0.38223545E+00
   0.17000000E+01           0.37534850E+00
   0.17100000E+01           0.36877778E+00
   0.17200000E+01           0.36148395E+00
   0.17300000E+01           0.35514850E+00
   0.17400000E+01           0.34856226E+00
   0.17500000E+01           0.34217108E+00
   0.17600000E+01           0.33554656E+00
   0.17700000E+01           0.32943810E+00
   0.17800000E+01           0.32244462E+00
   0.17900000E+01           0.31603704E+00
   0.18000000E+01           0.30943228E+00
   0.18100000E+01           0.30375450E+00
   0.18200000E+01           0.29705961E+00
   0.18300000E+01           0.29088624E+00
   0.18400000E+01           0.28469295E+00
   0.18500000E+01           0.27874903E+00
   0.18600000E+01           0.27285097E+00
   0.18700000E+01           0.26669418E+00
   0.18800000E+01           0.26140071E+00
   0.18900000E+01           0.25520476E+00
   0.19000000E+01           0.24954921E+00
   0.19100000E+01           0.24407425E+00
   0.19200000E+01           0.23826455E+00
   0.19300000E+01           0.23261570E+00
   0.19400000E+01           0.22746067E+00
   0.19500000E+01           0.22201834E+00
   0.19600000E+01           0.21701817E+00
   0.19700000E+01           0.21156102E+00
   0.19800000E+01           0.20642346E+00
   0.19900000E+01           0.20148695E+00
   0.20000000E+01           0.19659965E+00
   0.20100000E+01           0.19149947E+00
   0.20200000E+01           0.18648765E+00
   0.20300000E+01           0.18163757E+00
   0.20400000E+01           0.17712610E+00
   0.20500000E+01           0.17217760E+00
   0.20600000E+01           0.16791817E+00
   0.20700000E+01           0.16366843E+00
   0.20800000E+01           0.15907213E+00
   0.20900000E+01           0.15507478E+00
   0.21000000E+01           0.15076279E+00
   0.21100000E+01           0.14720794E+00
   0.21200000E+01           0.14273051E+00
   0.21300000E+01           0.13891640E+00
   0.21400000E+01           0.13522751E+00
   0.21500000E+01           0.13120141E+00
   0.21600000E+01           0.12779506E+00
   0.21700000E+01           0.12434762E+00
   0.21800000E+01           0.12053792E+00
   0.21900000E+01           0.11710988E+00
   0.22000000E+01           0.11364321E+00
   0.22100000E+01           0.11043845E+00
   0.22200000E+01           0.10736102E+00
   0.22300000E+01           0.10406543E+00
   0.22400000E+01           0.10108995E+00
   0.22500000E+01           0.98504409E-01
   0.22600000E+01           0.95245855E-01
   0.22700000E+01           0.92527513E-01
   0.22800000E+01           0.89428219E-01
   0.22900000E+01           0.86829982E-01
   0.23000000E+01           0.84169665E-01
   0.23100000E+01           0.81456790E-01
   0.23200000E+01           0.79082011E-01
   0.23300000E+01           0.76600882E-01
   0.23400000E+01           0.74164550E-01
   0.23500000E+01           0.71877954E-01
   0.23600000E+01           0.69615697E-01
   0.23700000E+01           0.67391182E-01
   0.23800000E+01           0.65113404E-01
   0.23900000E+01           0.62911817E-01
   0.24000000E+01           0.61131570E-01
   0.24100000E+01           0.59199118E-01
   0.24200000E+01           0.56895238E-01
   0.24300000E+01           0.55211640E-01
   0.24400000E+01           0.53365079E-01
   0.24500000E+01           0.51568430E-01
   0.24600000E+01           0.49639506E-01
   0.24700000E+01           0.48149735E-01
   0.24800000E+01           0.46302998E-01
   0.24900000E+01           0.44713228E-01
   0.25000000E+01           0.43323280E-01
   0.25100000E+01           0.41641093E-01
   0.25200000E+01           0.40356085E-01
   0.25300000E+01           0.39000353E-01
   0.25400000E+01           0.37644444E-01
   0.25500000E+01           0.36170723E-01
   0.25600000E+01           0.34960317E-01
   0.25700000E+01           0.33629630E-01
   0.25800000E+01           0.32166490E-01
   0.25900000E+01           0.31194533E-01
   0.26000000E+01           0.30053616E-01
   0.26100000E+01           0.28911640E-01
   0.26200000E+01           0.27848148E-01
   0.26300000E+01           0.26752557E-01
   0.26400000E+01           0.25734392E-01
   0.26500000E+01           0.24792416E-01
   0.26600000E+01           0.23857672E-01
   0.26700000E+01           0.22950970E-01
   0.26800000E+01           0.22141975E-01
   0.26900000E+01           0.21195767E-01
   0.27000000E+01           0.20397002E-01
   0.27100000E+01           0.19625573E-01
   0.27200000E+01           0.18761023E-01
   0.27300000E+01           0.18077778E-01
   0.27400000E+01           0.17332981E-01
   0.27500000E+01           0.16619048E-01
   0.27600000E+01           0.16025397E-01
   0.27700000E+01           0.15311640E-01
   0.27800000E+01           0.14656966E-01
   0.27900000E+01           0.14045150E-01
   0.28000000E+01           0.13567725E-01
   0.28100000E+01           0.12919929E-01
   0.28200000E+01           0.12392240E-01
   0.28300000E+01           0.11841799E-01
   0.28400000E+01           0.11365961E-01
   0.28500000E+01           0.10887478E-01
   0.28600000E+01           0.10395944E-01
   0.28700000E+01           0.98386243E-02
   0.28800000E+01           0.95206349E-02
   0.28900000E+01           0.91179894E-02
   0.29000000E+01           0.87098765E-02
   0.29100000E+01           0.82726631E-02
   0.29200000E+01           0.79183422E-02
   0.29300000E+01           0.75980600E-02
   0.29400000E+01           0.72375661E-02
   0.29500000E+01           0.68853616E-02
   0.29600000E+01           0.66049383E-02
   0.29700000E+01           0.62566138E-02
   0.29800000E+01           0.59703704E-02
   0.29900000E+01           0.56802469E-02
   0.30000000E+01           0.54354497E-02
   0.30100000E+01           0.51594356E-02
   0.30200000E+01           0.49770723E-02
   0.30300000E+01           0.47010582E-02
   0.30400000E+01           0.45125220E-02
   0.30500000E+01           0.42611993E-02
   0.30600000E+01           0.40156966E-02
   0.30700000E+01           0.38458554E-02
   0.30800000E+01           0.36462081E-02
   0.30900000E+01           0.34832451E-02
   0.31000000E+01           0.33407407E-02
   0.31100000E+01           0.31259259E-02
   0.31200000E+01           0.29691358E-02
   0.31300000E+01           0.28164021E-02
   0.31400000E+01           0.27065256E-02
   0.31500000E+01           0.25038801E-02
   0.31600000E+01           0.24112875E-02
   0.31700000E+01           0.22768959E-02
   0.31800000E+01           0.21382716E-02
   0.31900000E+01           0.20490300E-02
   0.32000000E+01           0.19273369E-02
   0.32100000E+01           0.18370370E-02
   0.32200000E+01           0.17349206E-02
   0.32300000E+01           0.16227513E-02
   0.32400000E+01           0.15666667E-02
   0.32500000E+01           0.14714286E-02
   0.32600000E+01           0.13853616E-02
   0.32700000E+01           0.12901235E-02
   0.32800000E+01           0.12084656E-02
   0.32900000E+01           0.11319224E-02
   0.33000000E+01           0.10666667E-02
   0.33100000E+01           0.10119929E-02
   0.33200000E+01           0.94409171E-03
   0.33300000E+01           0.87231041E-03
   0.33400000E+01           0.82980600E-03
   0.33500000E+01           0.78077601E-03
   0.33600000E+01           0.74356261E-03
   0.33700000E+01           0.71393298E-03
   0.33800000E+01           0.66772487E-03
   0.33900000E+01           0.62010582E-03
   0.34000000E+01           0.57142857E-03
   0.34100000E+01           0.53703704E-03
   0.34200000E+01           0.48994709E-03
   0.34300000E+01           0.46190476E-03
   0.34400000E+01           0.44021164E-03
   0.34500000E+01           0.41146384E-03
   0.34600000E+01           0.37513228E-03
   0.34700000E+01           0.33350970E-03
   0.34800000E+01           0.32768959E-03
   0.34900000E+01           0.30687831E-03
   0.35000000E+01           0.28412698E-03
   0.35100000E+01           0.25379189E-03
   0.35200000E+01           0.23809524E-03
   0.35300000E+01           0.22010582E-03
   0.35400000E+01           0.21499118E-03
   0.35500000E+01           0.18994709E-03
   0.35600000E+01           0.17548501E-03
   0.35700000E+01           0.16190476E-03
   0.35800000E+01           0.15837743E-03
   0.35900000E+01           0.14179894E-03
   0.36000000E+01           0.12751323E-03
   0.36100000E+01           0.12169312E-03
   0.36200000E+01           0.10423280E-03
   0.36300000E+01           0.97530864E-04
   0.36400000E+01           0.95414462E-04
   0.36500000E+01           0.79365079E-04
   0.36600000E+01           0.74603175E-04
   0.36700000E+01           0.71604938E-04
   0.36800000E+01           0.59611993E-04
   0.36900000E+01           0.55731922E-04
   0.37000000E+01           0.49911817E-04
   0.37100000E+01           0.47971781E-04
   0.37200000E+01           0.43738977E-04
   0.37300000E+01           0.37037037E-04
   0.37400000E+01           0.32804233E-04
   0.37500000E+01           0.28218695E-04
   0.37600000E+01           0.25044092E-04
   0.37700000E+01           0.26984127E-04
   0.37800000E+01           0.20282187E-04
   0.37900000E+01           0.18871252E-04
   0.38000000E+01           0.18165785E-04
   0.38100000E+01           0.12345679E-04
   0.38200000E+01           0.12874780E-04
   0.38300000E+01           0.93474427E-05
   0.38400000E+01           0.10582011E-04
   0.38500000E+01           0.70546737E-05
   0.38600000E+01           0.47619048E-05
   0.38700000E+01           0.33509700E-05
   0.38800000E+01           0.45855379E-05
   0.38900000E+01           0.37037037E-05
   0.39000000E+01           0.19400353E-05
   0.39100000E+01           0.37037037E-05
   0.39200000E+01           0.14109347E-05
   0.39300000E+01           0.70546737E-06
   0.39400000E+01           0.70546737E-06
   0.39500000E+01           0.10582011E-05
   0.39600000E+01           0.17636684E-06
   0.39700000E+01           0.35273369E-06
   0.39800000E+01           0.00000000E+00
   0.39900000E+01           0.00000000E+00
   0.40000000E+01           0.00000000E+00
 #T=   371.0000
  -0.40000000E+01           0.00000000E+00
  -0.39900000E+01           0.00000000E+00
  -0.39800000E+01           0.00000000E+00
  -0.39700000E+01           0.00000000E+00
  -0.39600000E+01           0.00000000E+00
  -0.39500000E+01           0.00000000E+00
  -0.39400000E+01           0.00000000E+00
  -0.39300000E+01           0.00000000E+00
  -0.39200000E+01           0.00000000E+00
  -0.39100000E+01           0.00000000E+00
  -0.39000000E+01           0.00000000E+00
  -0.38900000E+01           0.00000000E+00
  -0.38800000E+01           0.00000000E+00
  -0.38700000E+01           0.00000000E+00
  -0.38600000E+01           0.00000000E+00
  -0.38500000E+01           0.00000000E+00
  -0.38400000E+01           0.00000000E+00
  -0.38300000E+01           0.00000000E+00
  -0.38200000E+01           0.00000000E+00
  -0.38100000E+01           0.00000000E+00
  -0.38000000E+01           0.00000000E+00
  -0.37900000E+01           0.00000000E+00
  -0.37800000E+01           0.00000000E+00
  -0.37700000E+01           0.00000000E+00
  -0.37600000E+01           0.00000000E+00
  -0.37500000E+01           0.00000000E+00
  -0.37400000E+01           0.00000000E+00
  -0.37300000E+01           0.00000000E+00
  -0.37200000E+01           0.00000000E+00
  -0.37100000E+01           0.00000000E+00
  -0.37000000E+01           0.00000000E+00
  -0.36900000E+01           0.00000000E+00
  -0.36800000E+01           0.00000000E+00
  -0.36700000E+01           0.00000000E+00
  -0.36600000E+01           0.00000000E+00
  -0.36500000E+01           0.00000000E+00
  -0.36400000E+01           0.00000000E+00
  -0.36300000E+01           0.00000000E+00
  -0.36200000E+01           0.00000000E+00
  -0.36100000E+01           0.00000000E+00
  -0.36000000E+01           0.00000000E+00
  -0.35900000E+01           0.00000000E+00
  -0.35800000E+01           0.00000000E+00
  -0.35700000E+01           0.00000000E+00
  -0.35600000E+01           0.00000000E+00
  -0.35500000E+01           0.00000000E+00
  -0.35400000E+01           0.00000000E+00
  -0.35300000E+01           0.00000000E+00
  -0.35200000E+01           0.00000000E+00
  -0.35100000E+01           0.00000000E+00
  -0.35000000E+01           0.00000000E+00
  -0.34900000E+01           0.00000000E+00
  -0.34800000E+01           0.00000000E+00
  -0.34700000E+01           0.00000000E+00
  -0.34600000E+01           0.00000000E+00
  -0.34500000E+01           0.00000000E+00
  -0.34400000E+01           0.00000000E+00
  -0.34300000E+01           0.00000000E+00
  -0.34200000E+01           0.00000000E+00
  -0.34100000E+01           0.00000000E+00
  -0.34000000E+01           0.00000000E+00
  -0.33900000E+01           0.00000000E+00
  -0.33800000E+01           0.00000000E+00
  -0.33700000E+01           0.00000000E+00
  -0.33600000E+01           0.00000000E+00
  -0.33500000E+01           0.00000000E+00
  -0.33400000E+01           0.00000000E+00
  -0.33300000E+01           0.00000000E+00
  -0.33200000E+01           0.00000000E+00
  -0.33100000E+01           0.00000000E+00
  -0.33000000E+01           0.00000000E+00
  -0.32900000E+01           0.00000000E+00
  -0.32800000E+01           0.00000000E+00
  -0.32700000E+01           0.00000000E+00
  -0.32600000E+01           0.00000000E+00
  -0.32500000E+01           0.00000000E+00
  -0.32400000E+01           0.00000000E+00
  -0.32300000E+01           0.00000000E+00
  -0.32200000E+01           0.00000000E+00
  -0.32100000E+01           0.00000000E+00
  -0.32000000E+01           0.00000000E+00
  -0.31900000E+01           0.00000000E+00
  -0.31800000E+01           0.00000000E+00
  -0.31700000E+01           0.00000000E+00
  -0.31600000E+01           0.00000000E+00
  -0.31500000E+01           0.00000000E+00
  -0.31400000E+01           0.00000000E+00
  -0.31300000E+01           0.00000000E+00
  -0.31200000E+01           0.00000000E+00
  -0.31100000E+01           0.00000000E+00
  -0.31000000E+01           0.00000000E+00
  -0.30900000E+01           0.00000000E+00
  -0.30800000E+01           0.00000000E+00
  -0.30700000E+01           0.00000000E+00
  -0.30600000E+01           0.00000000E+00
  -0.30500000E+01           0.00000000E+00
  -0.30400000E+01           0.00000000E+00
  -0.30300000E+01           0.00000000E+00
  -0.30200000E+01           0.00000000E+00
  -0.30100000E+01           0.00000000E+00
  -0.30000000E+01           0.00000000E+00
  -0.29900000E+01           0.00000000E+00
  -0.29800000E+01           0.00000000E+00
  -0.29700000E+01           0.00000000E+00
  -0.29600000E+01           0.00000000E+00
  -0.29500000E+01           0.00000000E+00
  -0.29400000E+01           0.00000000E+00
  -0.29300000E+01           0.00000000E+00
  -0.29200000E+01           0.00000000E+00
  -0.29100000E+01           0.00000000E+00
  -0.29000000E+01           0.00000000E+00
  -0.28900000E+01           0.00000000E+00
  -0.28800000E+01           0.00000000E+00
  -0.28700000E+01           0.00000000E+00
  -0.28600000E+01           0.00000000E+00
  -0.28500000E+01           0.00000000E+00
  -0.28400000E+01           0.00000000E+00
  -0.28300000E+01           0.00000000E+00
  -0.28200000E+01           0.00000000E+00
  -0.28100000E+01           0.00000000E+00
  -0.28000000E+01           0.00000000E+00
  -0.27900000E+01           0.00000000E+00
  -0.27800000E+01           0.00000000E+00
  -0.27700000E+01           0.00000000E+00
  -0.27600000E+01           0.00000000E+00
  -0.27500000E+01           0.00000000E+00
  -0.27400000E+01           0.00000000E+00
  -0.27300000E+01           0.00000000E+00
  -0.27200000E+01           0.00000000E+00
  -0.27100000E+01           0.00000000E+00
  -0.27000000E+01           0.00000000E+00
  -0.26900000E+01           0.00000000E+00
  -0.26800000E+01           0.00000000E+00
  -0.26700000E+01           0.00000000E+00
  -0.26600000E+01           0.00000000E+00
  -0.26500000E+01           0.00000000E+00
  -0.26400000E+01           0.00000000E+00
  -0.26300000E+01           0.00000000E+00
  -0.26200000E+01           0.00000000E+00
  -0.26100000E+01           0.00000000E+00
  -0.26000000E+01           0.00000000E+00
  -0.25900000E+01           0.00000000E+00
  -0.25800000E+01           0.00000000E+00
  -0.25700000E+01           0.00000000E+00
  -0.25600000E+01           0.00000000E+00
  -0.25500000E+01           0.00000000E+00
  -0.25400000E+01           0.00000000E+00
  -0.25300000E+01           0.00000000E+00
  -0.25200000E+01           0.00000000E+00
  -0.25100000E+01           0.00000000E+00
  -0.25000000E+01           0.00000000E+00
  -0.24900000E+01           0.00000000E+00
  -0.24800000E+01           0.00000000E+00
  -0.24700000E+01           0.00000000E+00
  -0.24600000E+01           0.00000000E+00
  -0.24500000E+01           0.00000000E+00
  -0.24400000E+01           0.00000000E+00
  -0.24300000E+01           0.00000000E+00
  -0.24200000E+01           0.00000000E+00
  -0.24100000E+01           0.00000000E+00
  -0.24000000E+01           0.00000000E+00
  -0.23900000E+01           0.00000000E+00
  -0.23800000E+01           0.00000000E+00
  -0.23700000E+01           0.00000000E+00
  -0.23600000E+01           0.00000000E+00
  -0.23500000E+01           0.00000000E+00
  -0.23400000E+01           0.00000000E+00
  -0.23300000E+01           0.00000000E+00
  -0.23200000E+01           0.00000000E+00
  -0.23100000E+01           0.00000000E+00
  -0.23000000E+01           0.00000000E+00
  -0.22900000E+01           0.00000000E+00
  -0.22800000E+01           0.00000000E+00
  -0.22700000E+01           0.00000000E+00
  -0.22600000E+01           0.00000000E+00
  -0.22500000E+01           0.00000000E+00
  -0.22400000E+01           0.00000000E+00
  -0.22300000E+01           0.00000000E+00
  -0.22200000E+01           0.00000000E+00
  -0.22100000E+01           0.00000000E+00
  -0.22000000E+01           0.00000000E+00
  -0.21900000E+01           0.00000000E+00
  -0.21800000E+01           0.00000000E+00
  -0.21700000E+01           0.00000000E+00
  -0.21600000E+01           0.00000000E+00
  -0.21500000E+01           0.00000000E+00
  -0.21400000E+01           0.00000000E+00
  -0.21300000E+01           0.00000000E+00
  -0.21200000E+01           0.00000000E+00
  -0.21100000E+01           0.00000000E+00
  -0.21000000E+01           0.00000000E+00
  -0.20900000E+01           0.00000000E+00
  -0.20800000E+01           0.00000000E+00
  -0.20700000E+01           0.00000000E+00
  -0.20600000E+01           0.00000000E+00
  -0.20500000E+01           0.00000000E+00
  -0.20400000E+01           0.00000000E+00
  -0.20300000E+01           0.00000000E+00
  -0.20200000E+01           0.00000000E+00
  -0.20100000E+01           0.00000000E+00
  -0.20000000E+01           0.00000000E+00
  -0.19900000E+01           0.00000000E+00
  -0.19800000E+01           0.00000000E+00
  -0.19700000E+01           0.00000000E+00
  -0.19600000E+01           0.00000000E+00
  -0.19500000E+01           0.00000000E+00
  -0.19400000E+01           0.00000000E+00
  -0.19300000E+01           0.00000000E+00
  -0.19200000E+01           0.00000000E+00
  -0.19100000E+01           0.00000000E+00
  -0.19000000E+01           0.00000000E+00
  -0.18900000E+01           0.00000000E+00
  -0.18800000E+01           0.00000000E+00
  -0.18700000E+01           0.00000000E+00
  -0.18600000E+01           0.00000000E+00
  -0.18500000E+01           0.00000000E+00
  -0.18400000E+01           0.00000000E+00
  -0.18300000E+01           0.00000000E+00
  -0.18200000E+01           0.00000000E+00
  -0.18100000E+01           0.00000000E+00
  -0.18000000E+01           0.00000000E+00
  -0.17900000E+01           0.00000000E+00
  -0.17800000E+01           0.00000000E+00
  -0.17700000E+01           0.00000000E+00
  -0.17600000E+01           0.00000000E+00
  -0.17500000E+01           0.00000000E+00
  -0.17400000E+01           0.00000000E+00
  -0.17300000E+01           0.00000000E+00
  -0.17200000E+01           0.00000000E+00
  -0.17100000E+01           0.00000000E+00
  -0.17000000E+01           0.00000000E+00
  -0.16900000E+01           0.00000000E+00
  -0.16800000E+01           0.00000000E+00
  -0.16700000E+01           0.00000000E+00
  -0.16600000E+01           0.00000000E+00
  -0.16500000E+01           0.00000000E+00
  -0.16400000E+01           0.00000000E+00
  -0.16300000E+01           0.00000000E+00
  -0.16200000E+01           0.00000000E+00
  -0.16100000E+01           0.00000000E+00
  -0.16000000E+01           0.00000000E+00
  -0.15900000E+01           0.00000000E+00
  -0.15800000E+01           0.00000000E+00
  -0.15700000E+01           0.00000000E+00
  -0.15600000E+01           0.00000000E+00
  -0.15500000E+01           0.00000000E+00
  -0.15400000E+01           0.00000000E+00
  -0.15300000E+01           0.00000000E+00
  -0.15200000E+01           0.00000000E+00
  -0.15100000E+01           0.00000000E+00
  -0.15000000E+01           0.00000000E+00
  -0.14900000E+01           0.00000000E+00
  -0.14800000E+01           0.00000000E+00
  -0.14700000E+01           0.00000000E+00
  -0.14600000E+01           0.00000000E+00
  -0.14500000E+01           0.00000000E+00
  -0.14400000E+01           0.00000000E+00
  -0.14300000E+01           0.00000000E+00
  -0.14200000E+01           0.00000000E+00
  -0.14100000E+01           0.00000000E+00
  -0.14000000E+01           0.00000000E+00
  -0.13900000E+01           0.00000000E+00
  -0.13800000E+01           0.00000000E+00
  -0.13700000E+01           0.00000000E+00
  -0.13600000E+01           0.00000000E+00
  -0.13500000E+01           0.00000000E+00
  -0.13400000E+01           0.00000000E+00
  -0.13300000E+01           0.00000000E+00
  -0.13200000E+01           0.00000000E+00
  -0.13100000E+01           0.00000000E+00
  -0.13000000E+01           0.00000000E+00
  -0.12900000E+01           0.00000000E+00
  -0.12800000E+01           0.00000000E+00
  -0.12700000E+01           0.00000000E+00
  -0.12600000E+01           0.00000000E+00
  -0.12500000E+01           0.00000000E+00
  -0.12400000E+01           0.00000000E+00
  -0.12300000E+01           0.00000000E+00
  -0.12200000E+01           0.00000000E+00
  -0.12100000E+01           0.00000000E+00
  -0.12000000E+01           0.00000000E+00
  -0.11900000E+01           0.00000000E+00
  -0.11800000E+01           0.00000000E+00
  -0.11700000E+01           0.00000000E+00
  -0.11600000E+01           0.00000000E+00
  -0.11500000E+01           0.00000000E+00
  -0.11400000E+01           0.00000000E+00
  -0.11300000E+01           0.00000000E+00
  -0.11200000E+01           0.00000000E+00
  -0.11100000E+01           0.00000000E+00
  -0.11000000E+01           0.00000000E+00
  -0.10900000E+01           0.00000000E+00
  -0.10800000E+01           0.00000000E+00
  -0.10700000E+01           0.00000000E+00
  -0.10600000E+01           0.00000000E+00
  -0.10500000E+01           0.00000000E+00
  -0.10400000E+01           0.00000000E+00
  -0.10300000E+01           0.00000000E+00
  -0.10200000E+01           0.00000000E+00
  -0.10100000E+01           0.00000000E+00
  -0.10000000E+01           0.00000000E+00
  -0.99000000E+00           0.00000000E+00
  -0.98000000E+00           0.00000000E+00
  -0.97000000E+00           0.00000000E+00
  -0.96000000E+00           0.00000000E+00
  -0.95000000E+00           0.00000000E+00
  -0.94000000E+00           0.00000000E+00
  -0.93000000E+00           0.00000000E+00
  -0.92000000E+00           0.00000000E+00
  -0.91000000E+00           0.00000000E+00
  -0.90000000E+00           0.00000000E+00
  -0.89000000E+00           0.00000000E+00
  -0.88000000E+00           0.00000000E+00
  -0.87000000E+00           0.00000000E+00
  -0.86000000E+00           0.00000000E+00
  -0.85000000E+00           0.00000000E+00
  -0.84000000E+00           0.00000000E+00
  -0.83000000E+00           0.00000000E+00
  -0.82000000E+00           0.00000000E+00
  -0.81000000E+00           0.00000000E+00
  -0.80000000E+00           0.00000000E+00
  -0.79000000E+00           0.00000000E+00
  -0.78000000E+00           0.00000000E+00
  -0.77000000E+00           0.00000000E+00
  -0.76000000E+00           0.00000000E+00
  -0.75000000E+00           0.00000000E+00
  -0.74000000E+00           0.00000000E+00
  -0.73000000E+00           0.00000000E+00
  -0.72000000E+00           0.00000000E+00
  -0.71000000E+00           0.00000000E+00
  -0.70000000E+00           0.00000000E+00
  -0.69000000E+00           0.00000000E+00
  -0.68000000E+00           0.00000000E+00
  -0.67000000E+00           0.00000000E+00
  -0.66000000E+00           0.00000000E+00
  -0.65000000E+00           0.00000000E+00
  -0.64000000E+00           0.00000000E+00
  -0.63000000E+00           0.00000000E+00
  -0.62000000E+00           0.00000000E+00
  -0.61000000E+00           0.00000000E+00
  -0.60000000E+00           0.00000000E+00
  -0.59000000E+00           0.00000000E+00
  -0.58000000E+00           0.00000000E+00
  -0.57000000E+00           0.00000000E+00
  -0.56000000E+00           0.00000000E+00
  -0.55000000E+00           0.00000000E+00
  -0.54000000E+00           0.00000000E+00
  -0.53000000E+00           0.00000000E+00
  -0.52000000E+00           0.00000000E+00
  -0.51000000E+00           0.00000000E+00
  -0.50000000E+00           0.00000000E+00
  -0.49000000E+00           0.00000000E+00
  -0.48000000E+00           0.00000000E+00
  -0.47000000E+00           0.00000000E+00
  -0.46000000E+00           0.00000000E+00
  -0.45000000E+00           0.00000000E+00
  -0.44000000E+00           0.00000000E+00
  -0.43000000E+00           0.00000000E+00
  -0.42000000E+00           0.00000000E+00
  -0.41000000E+00           0.00000000E+00
  -0.40000000E+00           0.00000000E+00
  -0.39000000E+00           0.00000000E+00
  -0.38000000E+00           0.00000000E+00
  -0.37000000E+00           0.00000000E+00
  -0.36000000E+00           0.00000000E+00
  -0.35000000E+00           0.00000000E+00
  -0.34000000E+00           0.00000000E+00
  -0.33000000E+00           0.00000000E+00
  -0.32000000E+00           0.00000000E+00
  -0.31000000E+00           0.00000000E+00
  -0.30000000E+00           0.00000000E+00
  -0.29000000E+00           0.00000000E+00
  -0.28000000E+00           0.00000000E+00
  -0.27000000E+00           0.00000000E+00
  -0.26000000E+00           0.00000000E+00
  -0.25000000E+00           0.00000000E+00
  -0.24000000E+00           0.00000000E+00
  -0.23000000E+00           0.00000000E+00
  -0.22000000E+00           0.00000000E+00
  -0.21000000E+00           0.00000000E+00
  -0.20000000E+00           0.00000000E+00
  -0.19000000E+00           0.00000000E+00
  -0.18000000E+00           0.00000000E+00
  -0.17000000E+00           0.00000000E+00
  -0.16000000E+00           0.00000000E+00
  -0.15000000E+00           0.00000000E+00
  -0.14000000E+00           0.00000000E+00
  -0.13000000E+00           0.00000000E+00
  -0.12000000E+00           0.00000000E+00
  -0.11000000E+00           0.00000000E+00
  -0.10000000E+00           0.00000000E+00
  -0.90000000E-01           0.00000000E+00
  -0.80000000E-01           0.00000000E+00
  -0.70000000E-01           0.00000000E+00
  -0.60000000E-01           0.00000000E+00
  -0.50000000E-01           0.00000000E+00
  -0.40000000E-01           0.00000000E+00
  -0.30000000E-01           0.00000000E+00
  -0.20000000E-01           0.00000000E+00
  -0.10000000E-01           0.00000000E+00
   0.00000000E+00           0.13756614E-04
   0.10000000E-01           0.44391534E-03
   0.20000000E-01           0.16045855E-02
   0.30000000E-01           0.35569665E-02
   0.40000000E-01           0.61781305E-02
   0.50000000E-01           0.95874780E-02
   0.60000000E-01           0.13598236E-01
   0.70000000E-01           0.18155556E-01
   0.80000000E-01           0.23395591E-01
   0.90000000E-01           0.29160317E-01
   0.10000000E+00           0.35332804E-01
   0.11000000E+00           0.42447619E-01
   0.12000000E+00           0.49626455E-01
   0.13000000E+00           0.57381305E-01
   0.14000000E+00           0.65432451E-01
   0.15000000E+00           0.73990123E-01
   0.16000000E+00           0.82968959E-01
   0.17000000E+00           0.92155203E-01
   0.18000000E+00           0.10202840E+00
   0.19000000E+00           0.11206014E+00
   0.20000000E+00           0.12202240E+00
   0.21000000E+00           0.13289277E+00
   0.22000000E+00           0.14362469E+00
   0.23000000E+00           0.15475961E+00
   0.24000000E+00           0.16583633E+00
   0.25000000E+00           0.17658730E+00
   0.26000000E+00           0.18867178E+00
   0.27000000E+00           0.20046772E+00
   0.28000000E+00           0.21232557E+00
   0.29000000E+00           0.22419489E+00
   0.30000000E+00           0.23654409E+00
   0.31000000E+00           0.24817813E+00
   0.32000000E+00           0.26083333E+00
   0.33000000E+00           0.27348501E+00
   0.34000000E+00           0.28521940E+00
   0.35000000E+00           0.29750829E+00
   0.36000000E+00           0.30972751E+00
   0.37000000E+00           0.32248660E+00
   0.38000000E+00           0.33455750E+00
   0.39000000E+00           0.34697901E+00
   0.40000000E+00           0.35951393E+00
   0.41000000E+00           0.37124162E+00
   0.42000000E+00           0.38343210E+00
   0.43000000E+00           0.39544709E+00
   0.44000000E+00           0.40740653E+00
   0.45000000E+00           0.41933792E+00
   0.46000000E+00           0.43104356E+00
   0.47000000E+00           0.44283563E+00
   0.48000000E+00           0.45438377E+00
   0.49000000E+00           0.46529083E+00
   0.50000000E+00           0.47707019E+00
   0.51000000E+00           0.48786085E+00
   0.52000000E+00           0.49867778E+00
   0.53000000E+00           0.50946667E+00
   0.54000000E+00           0.52009577E+00
   0.55000000E+00           0.53048078E+00
   0.56000000E+00           0.54048201E+00
   0.57000000E+00           0.55087619E+00
   0.58000000E+00           0.56091358E+00
   0.59000000E+00           0.56998748E+00
   0.60000000E+00           0.57926155E+00
   0.61000000E+00           0.58908695E+00
   0.62000000E+00           0.59830088E+00
   0.63000000E+00           0.60621781E+00
   0.64000000E+00           0.61469929E+00
   0.65000000E+00           0.62321287E+00
   0.66000000E+00           0.63123616E+00
   0.67000000E+00           0.63846720E+00
   0.68000000E+00           0.64703086E+00
   0.69000000E+00           0.65368360E+00
   0.70000000E+00           0.66101587E+00
   0.71000000E+00           0.66803280E+00
   0.72000000E+00           0.67410847E+00
   0.73000000E+00           0.68065873E+00
   0.74000000E+00           0.68568713E+00
   0.75000000E+00           0.69225044E+00
   0.76000000E+00           0.69808519E+00
   0.77000000E+00           0.70390353E+00
   0.78000000E+00           0.70766667E+00
   0.79000000E+00           0.71284250E+00
   0.80000000E+00           0.71762875E+00
   0.81000000E+00           0.72147302E+00
   0.82000000E+00           0.72550511E+00
   0.83000000E+00           0.72912998E+00
   0.84000000E+00           0.73230335E+00
   0.85000000E+00           0.73563280E+00
   0.86000000E+00           0.73854550E+00
   0.87000000E+00           0.74112557E+00
   0.88000000E+00           0.74355044E+00
   0.89000000E+00           0.74620899E+00
   0.90000000E+00           0.74733228E+00
   0.91000000E+00           0.74896367E+00
   0.92000000E+00           0.75020494E+00
   0.93000000E+00           0.75180758E+00
   0.94000000E+00           0.75217848E+00
   0.95000000E+00           0.75399171E+00
   0.96000000E+00           0.75304427E+00
   0.97000000E+00           0.75404356E+00
   0.98000000E+00           0.75334638E+00
   0.99000000E+00           0.75316243E+00
   0.10000000E+01           0.75242628E+00
   0.10100000E+01           0.75191305E+00
   0.10200000E+01           0.75109471E+00
   0.10300000E+01           0.74955026E+00
   0.10400000E+01           0.74834656E+00
   0.10500000E+01           0.74680370E+00
   0.10600000E+01           0.74445538E+00
   0.10700000E+01           0.74208448E+00
   0.10800000E+01           0.73957584E+00
   0.10900000E+01           0.73794921E+00
   0.11000000E+01           0.73483404E+00
   0.11100000E+01           0.73292698E+00
   0.11200000E+01           0.72965168E+00
   0.11300000E+01           0.72553792E+00
   0.11400000E+01           0.72238325E+00
   0.11500000E+01           0.71857125E+00
   0.11600000E+01           0.71514268E+00
   0.11700000E+01           0.71129312E+00
   0.11800000E+01           0.70772028E+00
   0.11900000E+01           0.70242487E+00
   0.12000000E+01           0.69854674E+00
   0.12100000E+01           0.69458907E+00
   0.12200000E+01           0.68972963E+00
   0.12300000E+01           0.68435873E+00
   0.12400000E+01           0.67947513E+00
   0.12500000E+01           0.67436720E+00
   0.12600000E+01           0.66962310E+00
   0.12700000E+01           0.66408219E+00
   0.12800000E+01           0.65802716E+00
   0.12900000E+01           0.65286420E+00
   0.13000000E+01           0.64709665E+00
   0.13100000E+01           0.64107160E+00
   0.13200000E+01           0.63490000E+00
   0.13300000E+01           0.62847795E+00
   0.13400000E+01           0.62311481E+00
   0.13500000E+01           0.61664198E+00
   0.13600000E+01           0.61066455E+00
   0.13700000E+01           0.60465926E+00
   0.13800000E+01           0.59807302E+00
   0.13900000E+01           0.59211834E+00
   0.14000000E+01           0.58509365E+00
   0.14100000E+01           0.57891799E+00
   0.14200000E+01           0.57190688E+00
   0.14300000E+01           0.56516349E+00
   0.14400000E+01           0.55823668E+00
   0.14500000E+01           0.55208095E+00
   0.14600000E+01           0.54463298E+00
   0.14700000E+01           0.53814709E+00
   0.14800000E+01           0.53032169E+00
   0.14900000E+01           0.52351534E+00
   0.15000000E+01           0.51667760E+00
   0.15100000E+01           0.51023563E+00
   0.15200000E+01           0.50302646E+00
   0.15300000E+01           0.49615132E+00
   0.15400000E+01           0.48828836E+00
   0.15500000E+01           0.48195432E+00
   0.15600000E+01           0.47481429E+00
   0.15700000E+01           0.46772081E+00
   0.15800000E+01           0.46096684E+00
   0.15900000E+01           0.45391146E+00
   0.16000000E+01           0.44650335E+00
   0.16100000E+01           0.43955097E+00
   0.16200000E+01           0.43212892E+00
   0.16300000E+01           0.42575679E+00
   0.16400000E+01           0.41856543E+00
   0.16500000E+01           0.41113792E+00
   0.16600000E+01           0.40417478E+00
   0.16700000E+01           0.39781711E+00
   0.16800000E+01           0.39135820E+00
   0.16900000E+01           0.38369224E+00
   0.17000000E+01           0.37737019E+00
   0.17100000E+01           0.37016490E+00
   0.17200000E+01           0.36389965E+00
   0.17300000E+01           0.35661323E+00
   0.17400000E+01           0.35031940E+00
   0.17500000E+01           0.34388395E+00
   0.17600000E+01           0.33744286E+00
   0.17700000E+01           0.33076473E+00
   0.17800000E+01           0.32465273E+00
   0.17900000E+01           0.31772416E+00
   0.18000000E+01           0.31164339E+00
   0.18100000E+01           0.30524215E+00
   0.18200000E+01           0.29873739E+00
   0.18300000E+01           0.29270882E+00
   0.18400000E+01           0.28654162E+00
   0.18500000E+01           0.28028924E+00
   0.18600000E+01           0.27489877E+00
   0.18700000E+01           0.26875996E+00
   0.18800000E+01           0.26312804E+00
   0.18900000E+01           0.25661270E+00
   0.19000000E+01           0.25130511E+00
   0.19100000E+01           0.24606914E+00
   0.19200000E+01           0.24022416E+00
   0.19300000E+01           0.23445309E+00
   0.19400000E+01           0.22908166E+00
   0.19500000E+01           0.22340194E+00
   0.19600000E+01           0.21847354E+00
   0.19700000E+01           0.21301958E+00
   0.19800000E+01           0.20780317E+00
   0.19900000E+01           0.20299612E+00
   0.20000000E+01           0.19803404E+00
   0.20100000E+01           0.19291869E+00
   0.20200000E+01           0.18776384E+00
   0.20300000E+01           0.18302963E+00
   0.20400000E+01           0.17834974E+00
   0.20500000E+01           0.17393157E+00
   0.20600000E+01           0.16960864E+00
   0.20700000E+01           0.16503633E+00
   0.20800000E+01           0.16069753E+00
   0.20900000E+01           0.15631393E+00
   0.21000000E+01           0.15233721E+00
   0.21100000E+01           0.14813069E+00
   0.21200000E+01           0.14431799E+00
   0.21300000E+01           0.14003704E+00
   0.21400000E+01           0.13632857E+00
   0.21500000E+01           0.13242381E+00
   0.21600000E+01           0.12901587E+00
   0.21700000E+01           0.12530529E+00
   0.21800000E+01           0.12184092E+00
   0.21900000E+01           0.11844533E+00
   0.22000000E+01           0.11478148E+00
   0.22100000E+01           0.11160106E+00
   0.22200000E+01           0.10822028E+00
   0.22300000E+01           0.10533192E+00
   0.22400000E+01           0.10224127E+00
   0.22500000E+01           0.99249912E-01
   0.22600000E+01           0.96333333E-01
   0.22700000E+01           0.93597531E-01
   0.22800000E+01           0.90454321E-01
   0.22900000E+01           0.87995591E-01
   0.23000000E+01           0.85280423E-01
   0.23100000E+01           0.82470899E-01
   0.23200000E+01           0.80143210E-01
   0.23300000E+01           0.77628924E-01
   0.23400000E+01           0.74752205E-01
   0.23500000E+01           0.72591005E-01
   0.23600000E+01           0.70359788E-01
   0.23700000E+01           0.68097531E-01
   0.23800000E+01           0.65898765E-01
   0.23900000E+01           0.63718519E-01
   0.24000000E+01           0.61768959E-01
   0.24100000E+01           0.59577954E-01
   0.24200000E+01           0.57831922E-01
   0.24300000E+01           0.55891005E-01
   0.24400000E+01           0.54089065E-01
   0.24500000E+01           0.52090829E-01
   0.24600000E+01           0.50415697E-01
   0.24700000E+01           0.48714109E-01
   0.24800000E+01           0.47308113E-01
   0.24900000E+01           0.45387831E-01
   0.25000000E+01           0.43843034E-01
   0.25100000E+01           0.42283069E-01
   0.25200000E+01           0.40825573E-01
   0.25300000E+01           0.39282716E-01
   0.25400000E+01           0.38086420E-01
   0.25500000E+01           0.36697531E-01
   0.25600000E+01           0.35295767E-01
   0.25700000E+01           0.34153086E-01
   0.25800000E+01           0.32788360E-01
   0.25900000E+01           0.31679718E-01
   0.26000000E+01           0.30393651E-01
   0.26100000E+01           0.29413228E-01
   0.26200000E+01           0.28182716E-01
   0.26300000E+01           0.27167725E-01
   0.26400000E+01           0.26237919E-01
   0.26500000E+01           0.25174250E-01
   0.26600000E+01           0.24314462E-01
   0.26700000E+01           0.23399118E-01
   0.26800000E+01           0.22480071E-01
   0.26900000E+01           0.21614991E-01
   0.27000000E+01           0.20765608E-01
   0.27100000E+01           0.20021693E-01
   0.27200000E+01           0.19144974E-01
   0.27300000E+01           0.18317637E-01
   0.27400000E+01           0.17652557E-01
   0.27500000E+01           0.16863139E-01
   0.27600000E+01           0.16301587E-01
   0.27700000E+01           0.15586949E-01
   0.27800000E+01           0.14960317E-01
   0.27900000E+01           0.14345150E-01
   0.28000000E+01           0.13708818E-01
   0.28100000E+01           0.13186772E-01
   0.28200000E+01           0.12534921E-01
   0.28300000E+01           0.12078660E-01
   0.28400000E+01           0.11642504E-01
   0.28500000E+01           0.11105996E-01
   0.28600000E+01           0.10604938E-01
   0.28700000E+01           0.10114462E-01
   0.28800000E+01           0.97472663E-02
   0.28900000E+01           0.92620811E-02
   0.29000000E+01           0.88978836E-02
   0.29100000E+01           0.84574956E-02
   0.29200000E+01           0.81760141E-02
   0.29300000E+01           0.77463845E-02
   0.29400000E+01           0.74283951E-02
   0.29500000E+01           0.70231041E-02
   0.29600000E+01           0.68000000E-02
   0.29700000E+01           0.64320988E-02
   0.29800000E+01           0.60867725E-02
   0.29900000E+01           0.58481481E-02
   0.30000000E+01           0.55599647E-02
   0.30100000E+01           0.53560847E-02
   0.30200000E+01           0.50426808E-02
   0.30300000E+01           0.47758377E-02
   0.30400000E+01           0.45756614E-02
   0.30500000E+01           0.43615520E-02
   0.30600000E+01           0.41134039E-02
   0.30700000E+01           0.38982363E-02
   0.30800000E+01           0.37513228E-02
   0.30900000E+01           0.35502646E-02
   0.31000000E+01           0.33904762E-02
   0.31100000E+01           0.32238095E-02
   0.31200000E+01           0.30199295E-02
   0.31300000E+01           0.28848325E-02
   0.31400000E+01           0.27289242E-02
   0.31500000E+01           0.26328042E-02
   0.31600000E+01           0.24663139E-02
   0.31700000E+01           0.23312169E-02
   0.31800000E+01           0.22380952E-02
   0.31900000E+01           0.20684303E-02
   0.32000000E+01           0.19666667E-02
   0.32100000E+01           0.19024691E-02
   0.32200000E+01           0.17761905E-02
   0.32300000E+01           0.16851852E-02
   0.32400000E+01           0.15679012E-02
   0.32500000E+01           0.15003527E-02
   0.32600000E+01           0.14037037E-02
   0.32700000E+01           0.13040564E-02
   0.32800000E+01           0.12592593E-02
   0.32900000E+01           0.11657848E-02
   0.33000000E+01           0.10682540E-02
   0.33100000E+01           0.10329806E-02
   0.33200000E+01           0.99594356E-03
   0.33300000E+01           0.91322751E-03
   0.33400000E+01           0.86208113E-03
   0.33500000E+01           0.81693122E-03
   0.33600000E+01           0.74462081E-03
   0.33700000E+01           0.74162257E-03
   0.33800000E+01           0.66948854E-03
   0.33900000E+01           0.62645503E-03
   0.34000000E+01           0.59135802E-03
   0.34100000E+01           0.55238095E-03
   0.34200000E+01           0.52222222E-03
   0.34300000E+01           0.47407407E-03
   0.34400000E+01           0.42945326E-03
   0.34500000E+01           0.42151675E-03
   0.34600000E+01           0.38624339E-03
   0.34700000E+01           0.36261023E-03
   0.34800000E+01           0.32910053E-03
   0.34900000E+01           0.31887125E-03
   0.35000000E+01           0.29770723E-03
   0.35100000E+01           0.27231041E-03
   0.35200000E+01           0.24708995E-03
   0.35300000E+01           0.22733686E-03
   0.35400000E+01           0.22169312E-03
   0.35500000E+01           0.20141093E-03
   0.35600000E+01           0.18306878E-03
   0.35700000E+01           0.18059965E-03
   0.35800000E+01           0.15537919E-03
   0.35900000E+01           0.13686067E-03
   0.36000000E+01           0.14356261E-03
   0.36100000E+01           0.12151675E-03
   0.36200000E+01           0.10440917E-03
   0.36300000E+01           0.10299824E-03
   0.36400000E+01           0.92768959E-04
   0.36500000E+01           0.80952381E-04
   0.36600000E+01           0.74250441E-04
   0.36700000E+01           0.66666667E-04
   0.36800000E+01           0.68783069E-04
   0.36900000E+01           0.56437390E-04
   0.37000000E+01           0.55026455E-04
   0.37100000E+01           0.46913580E-04
   0.37200000E+01           0.43738977E-04
   0.37300000E+01           0.41093474E-04
   0.37400000E+01           0.30511464E-04
   0.37500000E+01           0.28571429E-04
   0.37600000E+01           0.23280423E-04
   0.37700000E+01           0.23280423E-04
   0.37800000E+01           0.21340388E-04
   0.37900000E+01           0.16754850E-04
   0.38000000E+01           0.16754850E-04
   0.38100000E+01           0.13227513E-04
   0.38200000E+01           0.10758377E-04
   0.38300000E+01           0.11287478E-04
   0.38400000E+01           0.70546737E-05
   0.38500000E+01           0.75837743E-05
   0.38600000E+01           0.54673721E-05
   0.38700000E+01           0.44091711E-05
   0.38800000E+01           0.45855379E-05
   0.38900000E+01           0.28218695E-05
   0.39000000E+01           0.22927690E-05
   0.39100000E+01           0.29982363E-05
   0.39200000E+01           0.17636684E-05
   0.39300000E+01           0.10582011E-05
   0.39400000E+01           0.52910053E-06
   0.39500000E+01           0.52910053E-06
   0.39600000E+01           0.35273369E-06
   0.39700000E+01           0.17636684E-06
   0.39800000E+01           0.00000000E+00
   0.39900000E+01           0.00000000E+00
   0.40000000E+01           0.00000000E+00
 #T=   372.0000
  -0.40000000E+01           0.00000000E+00
  -0.39900000E+01           0.00000000E+00
  -0.39800000E+01           0.00000000E+00
  -0.39700000E+01           0.00000000E+00
  -0.39600000E+01           0.00000000E+00
  -0.39500000E+01           0.00000000E+00
  -0.39400000E+01           0.00000000E+00
  -0.39300000E+01           0.00000000E+00
  -0.39200000E+01           0.00000000E+00
  -0.39100000E+01           0.00000000E+00
  -0.39000000E+01           0.00000000E+00
  -0.38900000E+01           0.00000000E+00
  -0.38800000E+01           0.00000000E+00
  -0.38700000E+01           0.00000000E+00
  -0.38600000E+01           0.00000000E+00
  -0.38500000E+01           0.00000000E+00
  -0.38400000E+01           0.00000000E+00
  -0.38300000E+01           0.00000000E+00
  -0.38200000E+01           0.00000000E+00
  -0.38100000E+01           0.00000000E+00
  -0.38000000E+01           0.00000000E+00
  -0.37900000E+01           0.00000000E+00
  -0.37800000E+01           0.00000000E+00
  -0.37700000E+01           0.00000000E+00
  -0.37600000E+01           0.00000000E+00
  -0.37500000E+01           0.00000000E+00
  -0.37400000E+01           0.00000000E+00
  -0.37300000E+01           0.00000000E+00
  -0.37200000E+01           0.00000000E+00
  -0.37100000E+01           0.00000000E+00
  -0.37000000E+01           0.00000000E+00
  -0.36900000E+01           0.00000000E+00
  -0.36800000E+01           0.00000000E+00
  -0.36700000E+01           0.00000000E+00
  -0.36600000E+01           0.00000000E+00
  -0.36500000E+01           0.00000000E+00
  -0.36400000E+01           0.00000000E+00
  -0.36300000E+01           0.00000000E+00
  -0.36200000E+01           0.00000000E+00
  -0.36100000E+01           0.00000000E+00
  -0.36000000E+01           0.00000000E+00
  -0.35900000E+01           0.00000000E+00
  -0.35800000E+01           0.00000000E+00
  -0.35700000E+01           0.00000000E+00
  -0.35600000E+01           0.00000000E+00
  -0.35500000E+01           0.00000000E+00
  -0.35400000E+01           0.00000000E+00
  -0.35300000E+01           0.00000000E+00
  -0.35200000E+01           0.00000000E+00
  -0.35100000E+01           0.00000000E+00
  -0.35000000E+01           0.00000000E+00
  -0.34900000E+01           0.00000000E+00
  -0.34800000E+01           0.00000000E+00
  -0.34700000E+01           0.00000000E+00
  -0.34600000E+01           0.00000000E+00
  -0.34500000E+01           0.00000000E+00
  -0.34400000E+01           0.00000000E+00
  -0.34300000E+01           0.00000000E+00
  -0.34200000E+01           0.00000000E+00
  -0.34100000E+01           0.00000000E+00
  -0.34000000E+01           0.00000000E+00
  -0.33900000E+01           0.00000000E+00
  -0.33800000E+01           0.00000000E+00
  -0.33700000E+01           0.00000000E+00
  -0.33600000E+01           0.00000000E+00
  -0.33500000E+01           0.00000000E+00
  -0.33400000E+01           0.00000000E+00
  -0.33300000E+01           0.00000000E+00
  -0.33200000E+01           0.00000000E+00
  -0.33100000E+01           0.00000000E+00
  -0.33000000E+01           0.00000000E+00
  -0.32900000E+01           0.00000000E+00
  -0.32800000E+01           0.00000000E+00
  -0.32700000E+01           0.00000000E+00
  -0.32600000E+01           0.00000000E+00
  -0.32500000E+01           0.00000000E+00
  -0.32400000E+01           0.00000000E+00
  -0.32300000E+01           0.00000000E+00
  -0.32200000E+01           0.00000000E+00
  -0.32100000E+01           0.00000000E+00
  -0.32000000E+01           0.00000000E+00
  -0.31900000E+01           0.00000000E+00
  -0.31800000E+01           0.00000000E+00
  -0.31700000E+01           0.00000000E+00
  -0.31600000E+01           0.00000000E+00
  -0.31500000E+01           0.00000000E+00
  -0.31400000E+01           0.00000000E+00
  -0.31300000E+01           0.00000000E+00
  -0.31200000E+01           0.00000000E+00
  -0.31100000E+01           0.00000000E+00
  -0.31000000E+01           0.00000000E+00
  -0.30900000E+01           0.00000000E+00
  -0.30800000E+01           0.00000000E+00
  -0.30700000E+01           0.00000000E+00
  -0.30600000E+01           0.00000000E+00
  -0.30500000E+01           0.00000000E+00
  -0.30400000E+01           0.00000000E+00
  -0.30300000E+01           0.00000000E+00
  -0.30200000E+01           0.00000000E+00
  -0.30100000E+01           0.00000000E+00
  -0.30000000E+01           0.00000000E+00
  -0.29900000E+01           0.00000000E+00
  -0.29800000E+01           0.00000000E+00
  -0.29700000E+01           0.00000000E+00
  -0.29600000E+01           0.00000000E+00
  -0.29500000E+01           0.00000000E+00
  -0.29400000E+01           0.00000000E+00
  -0.29300000E+01           0.00000000E+00
  -0.29200000E+01           0.00000000E+00
  -0.29100000E+01           0.00000000E+00
  -0.29000000E+01           0.00000000E+00
  -0.28900000E+01           0.00000000E+00
  -0.28800000E+01           0.00000000E+00
  -0.28700000E+01           0.00000000E+00
  -0.28600000E+01           0.00000000E+00
  -0.28500000E+01           0.00000000E+00
  -0.28400000E+01           0.00000000E+00
  -0.28300000E+01           0.00000000E+00
  -0.28200000E+01           0.00000000E+00
  -0.28100000E+01           0.00000000E+00
  -0.28000000E+01           0.00000000E+00
  -0.27900000E+01           0.00000000E+00
  -0.27800000E+01           0.00000000E+00
  -0.27700000E+01           0.00000000E+00
  -0.27600000E+01           0.00000000E+00
  -0.27500000E+01           0.00000000E+00
  -0.27400000E+01           0.00000000E+00
  -0.27300000E+01           0.00000000E+00
  -0.27200000E+01           0.00000000E+00
  -0.27100000E+01           0.00000000E+00
  -0.27000000E+01           0.00000000E+00
  -0.26900000E+01           0.00000000E+00
  -0.26800000E+01           0.00000000E+00
  -0.26700000E+01           0.00000000E+00
  -0.26600000E+01           0.00000000E+00
  -0.26500000E+01           0.00000000E+00
  -0.26400000E+01           0.00000000E+00
  -0.26300000E+01           0.00000000E+00
  -0.26200000E+01           0.00000000E+00
  -0.26100000E+01           0.00000000E+00
  -0.26000000E+01           0.00000000E+00
  -0.25900000E+01           0.00000000E+00
  -0.25800000E+01           0.00000000E+00
  -0.25700000E+01           0.00000000E+00
  -0.25600000E+01           0.00000000E+00
  -0.25500000E+01           0.00000000E+00
  -0.25400000E+01           0.00000000E+00
  -0.25300000E+01           0.00000000E+00
  -0.25200000E+01           0.00000000E+00
  -0.25100000E+01           0.00000000E+00
  -0.25000000E+01           0.00000000E+00
  -0.24900000E+01           0.00000000E+00
  -0.24800000E+01           0.00000000E+00
  -0.24700000E+01           0.00000000E+00
  -0.24600000E+01           0.00000000E+00
  -0.24500000E+01           0.00000000E+00
  -0.24400000E+01           0.00000000E+00
  -0.24300000E+01           0.00000000E+00
  -0.24200000E+01           0.00000000E+00
  -0.24100000E+01           0.00000000E+00
  -0.24000000E+01           0.00000000E+00
  -0.23900000E+01           0.00000000E+00
  -0.23800000E+01           0.00000000E+00
  -0.23700000E+01           0.00000000E+00
  -0.23600000E+01           0.00000000E+00
  -0.23500000E+01           0.00000000E+00
  -0.23400000E+01           0.00000000E+00
  -0.23300000E+01           0.00000000E+00
  -0.23200000E+01           0.00000000E+00
  -0.23100000E+01           0.00000000E+00
  -0.23000000E+01           0.00000000E+00
  -0.22900000E+01           0.00000000E+00
  -0.22800000E+01           0.00000000E+00
  -0.22700000E+01           0.00000000E+00
  -0.22600000E+01           0.00000000E+00
  -0.22500000E+01           0.00000000E+00
  -0.22400000E+01           0.00000000E+00
  -0.22300000E+01           0.00000000E+00
  -0.22200000E+01           0.00000000E+00
  -0.22100000E+01           0.00000000E+00
  -0.22000000E+01           0.00000000E+00
  -0.21900000E+01           0.00000000E+00
  -0.21800000E+01           0.00000000E+00
  -0.21700000E+01           0.00000000E+00
  -0.21600000E+01           0.00000000E+00
  -0.21500000E+01           0.00000000E+00
  -0.21400000E+01           0.00000000E+00
  -0.21300000E+01           0.00000000E+00
  -0.21200000E+01           0.00000000E+00
  -0.21100000E+01           0.00000000E+00
  -0.21000000E+01           0.00000000E+00
  -0.20900000E+01           0.00000000E+00
  -0.20800000E+01           0.00000000E+00
  -0.20700000E+01           0.00000000E+00
  -0.20600000E+01           0.00000000E+00
  -0.20500000E+01           0.00000000E+00
  -0.20400000E+01           0.00000000E+00
  -0.20300000E+01           0.00000000E+00
  -0.20200000E+01           0.00000000E+00
  -0.20100000E+01           0.00000000E+00
  -0.20000000E+01           0.00000000E+00
  -0.19900000E+01           0.00000000E+00
  -0.19800000E+01           0.00000000E+00
  -0.19700000E+01           0.00000000E+00
  -0.19600000E+01           0.00000000E+00
  -0.19500000E+01           0.00000000E+00
  -0.19400000E+01           0.00000000E+00
  -0.19300000E+01           0.00000000E+00
  -0.19200000E+01           0.00000000E+00
  -0.19100000E+01           0.00000000E+00
  -0.19000000E+01           0.00000000E+00
  -0.18900000E+01           0.00000000E+00
  -0.18800000E+01           0.00000000E+00
  -0.18700000E+01           0.00000000E+00
  -0.18600000E+01           0.00000000E+00
  -0.18500000E+01           0.00000000E+00
  -0.18400000E+01           0.00000000E+00
  -0.18300000E+01           0.00000000E+00
  -0.18200000E+01           0.00000000E+00
  -0.18100000E+01           0.00000000E+00
  -0.18000000E+01           0.00000000E+00
  -0.17900000E+01           0.00000000E+00
  -0.17800000E+01           0.00000000E+00
  -0.17700000E+01           0.00000000E+00
  -0.17600000E+01           0.00000000E+00
  -0.17500000E+01           0.00000000E+00
  -0.17400000E+01           0.00000000E+00
  -0.17300000E+01           0.00000000E+00
  -0.17200000E+01           0.00000000E+00
  -0.17100000E+01           0.00000000E+00
  -0.17000000E+01           0.00000000E+00
  -0.16900000E+01           0.00000000E+00
  -0.16800000E+01           0.00000000E+00
  -0.16700000E+01           0.00000000E+00
  -0.16600000E+01           0.00000000E+00
  -0.16500000E+01           0.00000000E+00
  -0.16400000E+01           0.00000000E+00
  -0.16300000E+01           0.00000000E+00
  -0.16200000E+01           0.00000000E+00
  -0.16100000E+01           0.00000000E+00
  -0.16000000E+01           0.00000000E+00
  -0.15900000E+01           0.00000000E+00
  -0.15800000E+01           0.00000000E+00
  -0.15700000E+01           0.00000000E+00
  -0.15600000E+01           0.00000000E+00
  -0.15500000E+01           0.00000000E+00
  -0.15400000E+01           0.00000000E+00
  -0.15300000E+01           0.00000000E+00
  -0.15200000E+01           0.00000000E+00
  -0.15100000E+01           0.00000000E+00
  -0.15000000E+01           0.00000000E+00
  -0.14900000E+01           0.00000000E+00
[...]
  -0.64000000E+00           0.00000000E+00
  -0.63000000E+00           0.00000000E+00
  -0.62000000E+00           0.00000000E+00
  -0.61000000E+00           0.00000000E+00
  -0.60000000E+00           0.00000000E+00
  -0.59000000E+00           0.00000000E+00
  -0.58000000E+00           0.00000000E+00
  -0.57000000E+00           0.00000000E+00
  -0.56000000E+00           0.00000000E+00
  -0.55000000E+00           0.00000000E+00
  -0.54000000E+00           0.00000000E+00
  -0.53000000E+00           0.00000000E+00
  -0.52000000E+00           0.00000000E+00
  -0.51000000E+00           0.00000000E+00
  -0.50000000E+00           0.00000000E+00
  -0.49000000E+00           0.00000000E+00
  -0.48000000E+00           0.00000000E+00
  -0.47000000E+00           0.00000000E+00
  -0.46000000E+00           0.00000000E+00
  -0.45000000E+00           0.00000000E+00
  -0.44000000E+00           0.00000000E+00
  -0.43000000E+00           0.00000000E+00
  -0.42000000E+00           0.00000000E+00
  -0.41000000E+00           0.00000000E+00
  -0.40000000E+00           0.00000000E+00
  -0.39000000E+00           0.00000000E+00
  -0.38000000E+00           0.00000000E+00
  -0.37000000E+00           0.00000000E+00
  -0.36000000E+00           0.00000000E+00
  -0.35000000E+00           0.00000000E+00
  -0.34000000E+00           0.00000000E+00
  -0.33000000E+00           0.00000000E+00
  -0.32000000E+00           0.00000000E+00
  -0.31000000E+00           0.00000000E+00
  -0.30000000E+00           0.00000000E+00
  -0.29000000E+00           0.00000000E+00
  -0.28000000E+00           0.00000000E+00
  -0.27000000E+00           0.00000000E+00
  -0.26000000E+00           0.00000000E+00
  -0.25000000E+00           0.00000000E+00
  -0.24000000E+00           0.00000000E+00
  -0.23000000E+00           0.00000000E+00
  -0.22000000E+00           0.00000000E+00
  -0.21000000E+00           0.00000000E+00
  -0.20000000E+00           0.00000000E+00
  -0.19000000E+00           0.00000000E+00
  -0.18000000E+00           0.00000000E+00
  -0.17000000E+00           0.00000000E+00
  -0.16000000E+00           0.00000000E+00
  -0.15000000E+00           0.00000000E+00
  -0.14000000E+00           0.00000000E+00
  -0.13000000E+00           0.00000000E+00
  -0.12000000E+00           0.00000000E+00
  -0.11000000E+00           0.00000000E+00
  -0.10000000E+00           0.00000000E+00
  -0.90000000E-01           0.00000000E+00
  -0.80000000E-01           0.00000000E+00
  -0.70000000E-01           0.00000000E+00
  -0.60000000E-01           0.00000000E+00
  -0.50000000E-01           0.00000000E+00
  -0.40000000E-01           0.00000000E+00
  -0.30000000E-01           0.00000000E+00
  -0.20000000E-01           0.00000000E+00
  -0.10000000E-01           0.00000000E+00
   0.00000000E+00           0.59964727E-05
   0.10000000E-01           0.17283951E-03
   0.20000000E-01           0.65343915E-03
   0.30000000E-01           0.14017637E-02
   0.40000000E-01           0.24950617E-02
   0.50000000E-01           0.38021164E-02
   0.60000000E-01           0.55148148E-02
   0.70000000E-01           0.73747795E-02
   0.80000000E-01           0.95638448E-02
   0.90000000E-01           0.11980600E-01
   0.10000000E+00           0.14760670E-01
   0.11000000E+00           0.17775661E-01
   0.12000000E+00           0.20899118E-01
   0.13000000E+00           0.24528571E-01
   0.14000000E+00           0.27940035E-01
   0.15000000E+00           0.31911464E-01
   0.16000000E+00           0.36163139E-01
   0.17000000E+00           0.40487831E-01
   0.18000000E+00           0.45045150E-01
   0.19000000E+00           0.49721164E-01
   0.20000000E+00           0.54397002E-01
   0.21000000E+00           0.59680776E-01
   0.22000000E+00           0.65066314E-01
   0.23000000E+00           0.70625926E-01
   0.24000000E+00           0.76065608E-01
   0.25000000E+00           0.81802116E-01
   0.26000000E+00           0.87943563E-01
   0.27000000E+00           0.94040212E-01
   0.28000000E+00           0.10019189E+00
   0.29000000E+00           0.10654515E+00
   0.30000000E+00           0.11300300E+00
   0.31000000E+00           0.11948889E+00
   0.32000000E+00           0.12634339E+00
   0.33000000E+00           0.13334780E+00
   0.34000000E+00           0.14040847E+00
   0.35000000E+00           0.14744180E+00
   0.36000000E+00           0.15410600E+00
   0.37000000E+00           0.16164039E+00
   0.38000000E+00           0.16895767E+00
   0.39000000E+00           0.17672610E+00
   0.40000000E+00           0.18372698E+00
   0.41000000E+00           0.19153439E+00
   0.42000000E+00           0.19887672E+00
   0.43000000E+00           0.20665115E+00
   0.44000000E+00           0.21412945E+00
   0.45000000E+00           0.22243474E+00
   0.46000000E+00           0.22960705E+00
   0.47000000E+00           0.23751323E+00
   0.48000000E+00           0.24557690E+00
   0.49000000E+00           0.25344815E+00
   0.50000000E+00           0.26136120E+00
   0.51000000E+00           0.26919312E+00
   0.52000000E+00           0.27694250E+00
   0.53000000E+00           0.28522363E+00
   0.54000000E+00           0.29281305E+00
   0.55000000E+00           0.30094956E+00
   0.56000000E+00           0.30869436E+00
   0.57000000E+00           0.31627460E+00
   0.58000000E+00           0.32438889E+00
   0.59000000E+00           0.33216720E+00
   0.60000000E+00           0.33974550E+00
   0.61000000E+00           0.34783739E+00
   0.62000000E+00           0.35556914E+00
   0.63000000E+00           0.36308642E+00
   0.64000000E+00           0.37099453E+00
   0.65000000E+00           0.37846667E+00
   0.66000000E+00           0.38564074E+00
   0.67000000E+00           0.39315115E+00
   0.68000000E+00           0.40098430E+00
   0.69000000E+00           0.40866896E+00
   0.70000000E+00           0.41551552E+00
   0.71000000E+00           0.42282646E+00
   0.72000000E+00           0.43045273E+00
   0.73000000E+00           0.43704145E+00
   0.74000000E+00           0.44383668E+00
   0.75000000E+00           0.45116437E+00
   0.76000000E+00           0.45773104E+00
   0.77000000E+00           0.46473386E+00
   0.78000000E+00           0.47086649E+00
   0.79000000E+00           0.47749400E+00
   0.80000000E+00           0.48434903E+00
   0.81000000E+00           0.49083404E+00
   0.82000000E+00           0.49744762E+00
   0.83000000E+00           0.50275820E+00
   0.84000000E+00           0.50838660E+00
   0.85000000E+00           0.51478201E+00
   0.86000000E+00           0.52034321E+00
   0.87000000E+00           0.52619559E+00
   0.88000000E+00           0.53137778E+00
   0.89000000E+00           0.53717813E+00
   0.90000000E+00           0.54250229E+00
   0.91000000E+00           0.54818519E+00
   0.92000000E+00           0.55256261E+00
   0.93000000E+00           0.55754021E+00
   0.94000000E+00           0.56249206E+00
   0.95000000E+00           0.56716402E+00
   0.96000000E+00           0.57191940E+00
   0.97000000E+00           0.57671429E+00
   0.98000000E+00           0.58079048E+00
   0.99000000E+00           0.58432575E+00
   0.10000000E+01           0.58898836E+00
   0.10100000E+01           0.59277654E+00
   0.10200000E+01           0.59585591E+00
   0.10300000E+01           0.59962469E+00
   0.10400000E+01           0.60422169E+00
   0.10500000E+01           0.60679330E+00
   0.10600000E+01           0.61014444E+00
   0.10700000E+01           0.61339929E+00
   0.10800000E+01           0.61571922E+00
   0.10900000E+01           0.61803668E+00
   0.11000000E+01           0.62163333E+00
   0.11100000E+01           0.62367160E+00
   0.11200000E+01           0.62632063E+00
   0.11300000E+01           0.62797725E+00
   0.11400000E+01           0.62960388E+00
   0.11500000E+01           0.63172840E+00
   0.11600000E+01           0.63344815E+00
   0.11700000E+01           0.63530247E+00
   0.11800000E+01           0.63647425E+00
   0.11900000E+01           0.63760406E+00
   0.12000000E+01           0.63874286E+00
   0.12100000E+01           0.64102469E+00
   0.12200000E+01           0.64078977E+00
   0.12300000E+01           0.64184462E+00
   0.12400000E+01           0.64171270E+00
   0.12500000E+01           0.64254480E+00
   0.12600000E+01           0.64277002E+00
   0.12700000E+01           0.64277778E+00
   0.12800000E+01           0.64262328E+00
   0.12900000E+01           0.64305062E+00
   0.13000000E+01           0.64243492E+00
   0.13100000E+01           0.64205185E+00
   0.13200000E+01           0.64161217E+00
   0.13300000E+01           0.64075185E+00
   0.13400000E+01           0.64023721E+00
   0.13500000E+01           0.63849683E+00
   0.13600000E+01           0.63796155E+00
   0.13700000E+01           0.63552610E+00
   0.13800000E+01           0.63491429E+00
   0.13900000E+01           0.63335750E+00
   0.14000000E+01           0.63284956E+00
   0.14100000E+01           0.63040741E+00
   0.14200000E+01           0.62870123E+00
   0.14300000E+01           0.62673175E+00
   0.14400000E+01           0.62449471E+00
   0.14500000E+01           0.62233034E+00
   0.14600000E+01           0.61923827E+00
   0.14700000E+01           0.61740511E+00
   0.14800000E+01           0.61469753E+00
   0.14900000E+01           0.61240899E+00
   0.15000000E+01           0.60977795E+00
   0.15100000E+01           0.60554233E+00
   0.15200000E+01           0.60258571E+00
   0.15300000E+01           0.59978342E+00
   0.15400000E+01           0.59655644E+00
   0.15500000E+01           0.59399400E+00
   0.15600000E+01           0.58984938E+00
   0.15700000E+01           0.58662610E+00
   0.15800000E+01           0.58251446E+00
   0.15900000E+01           0.57863175E+00
   0.16000000E+01           0.57514727E+00
   0.16100000E+01           0.57179559E+00
   0.16200000E+01           0.56772416E+00
   0.16300000E+01           0.56258254E+00
   0.16400000E+01           0.55897090E+00
   0.16500000E+01           0.55444356E+00
   0.16600000E+01           0.55015379E+00
   0.16700000E+01           0.54631129E+00
   0.16800000E+01           0.54115573E+00
   0.16900000E+01           0.53659242E+00
   0.17000000E+01           0.53130035E+00
   0.17100000E+01           0.52636349E+00
   0.17200000E+01           0.52298007E+00
   0.17300000E+01           0.51702099E+00
   0.17400000E+01           0.51239259E+00
   0.17500000E+01           0.50721799E+00
   0.17600000E+01           0.50242910E+00
   0.17700000E+01           0.49720388E+00
   0.17800000E+01           0.49238924E+00
   0.17900000E+01           0.48643686E+00
   0.18000000E+01           0.48101658E+00
   0.18100000E+01           0.47632222E+00
   0.18200000E+01           0.47046190E+00
   0.18300000E+01           0.46524832E+00
   0.18400000E+01           0.45938959E+00
   0.18500000E+01           0.45405697E+00
   0.18600000E+01           0.44846420E+00
   0.18700000E+01           0.44246702E+00
   0.18800000E+01           0.43733668E+00
   0.18900000E+01           0.43094162E+00
   0.19000000E+01           0.42500123E+00
   0.19100000E+01           0.41933668E+00
   0.19200000E+01           0.41343915E+00
   0.19300000E+01           0.40827549E+00
   0.19400000E+01           0.40250265E+00
   0.19500000E+01           0.39623122E+00
   0.19600000E+01           0.39045732E+00
   0.19700000E+01           0.38397372E+00
   0.19800000E+01           0.37874056E+00
   0.19900000E+01           0.37230705E+00
   0.20000000E+01           0.36670600E+00
   0.20100000E+01           0.36031764E+00
   0.20200000E+01           0.35456226E+00
   0.20300000E+01           0.34886384E+00
   0.20400000E+01           0.34316102E+00
   0.20500000E+01           0.33745644E+00
   0.20600000E+01           0.33148325E+00
   0.20700000E+01           0.32552575E+00
   0.20800000E+01           0.32032575E+00
   0.20900000E+01           0.31450335E+00
   0.21000000E+01           0.30910335E+00
   0.21100000E+01           0.30364233E+00
   0.21200000E+01           0.29807725E+00
   0.21300000E+01           0.29311605E+00
   0.21400000E+01           0.28756138E+00
   0.21500000E+01           0.28233810E+00
   0.21600000E+01           0.27708889E+00
   0.21700000E+01           0.27183616E+00
   0.21800000E+01           0.26692169E+00
   0.21900000E+01           0.26224903E+00
   0.22000000E+01           0.25725432E+00
   0.22100000E+01           0.25226490E+00
   0.22200000E+01           0.24720688E+00
   0.22300000E+01           0.24281129E+00
   0.22400000E+01           0.23810988E+00
   0.22500000E+01           0.23336490E+00
   0.22600000E+01           0.22871675E+00
   0.22700000E+01           0.22407178E+00
   0.22800000E+01           0.21965115E+00
   0.22900000E+01           0.21549735E+00
   0.23000000E+01           0.21097002E+00
   0.23100000E+01           0.20678501E+00
   0.23200000E+01           0.20224533E+00
   0.23300000E+01           0.19793069E+00
   0.23400000E+01           0.19415838E+00
   0.23500000E+01           0.18978942E+00
   0.23600000E+01           0.18573122E+00
   0.23700000E+01           0.18218889E+00
   0.23800000E+01           0.17803104E+00
   0.23900000E+01           0.17430794E+00
   0.24000000E+01           0.17060988E+00
   0.24100000E+01           0.16722804E+00
   0.24200000E+01           0.16308095E+00
   0.24300000E+01           0.15952028E+00
   0.24400000E+01           0.15555926E+00
   0.24500000E+01           0.15243527E+00
   0.24600000E+01           0.14910159E+00
   0.24700000E+01           0.14567213E+00
   0.24800000E+01           0.14249541E+00
   0.24900000E+01           0.13895961E+00
   0.25000000E+01           0.13576190E+00
   0.25100000E+01           0.13252681E+00
   0.25200000E+01           0.12940670E+00
   0.25300000E+01           0.12662169E+00
   0.25400000E+01           0.12340476E+00
   0.25500000E+01           0.12054921E+00
   0.25600000E+01           0.11779594E+00
   0.25700000E+01           0.11440511E+00
   0.25800000E+01           0.11193898E+00
   0.25900000E+01           0.10904268E+00
   0.26000000E+01           0.10650988E+00
   0.26100000E+01           0.10373810E+00
   0.26200000E+01           0.10117549E+00
   0.26300000E+01           0.98692945E-01
   0.26400000E+01           0.96343739E-01
   0.26500000E+01           0.93473016E-01
   0.26600000E+01           0.91249030E-01
   0.26700000E+01           0.88817989E-01
   0.26800000E+01           0.86411817E-01
   0.26900000E+01           0.84352381E-01
   0.27000000E+01           0.81901587E-01
   0.27100000E+01           0.79651852E-01
   0.27200000E+01           0.77710935E-01
   0.27300000E+01           0.75492240E-01
   0.27400000E+01           0.73476720E-01
   0.27500000E+01           0.71388889E-01
   0.27600000E+01           0.69787831E-01
   0.27700000E+01           0.67492416E-01
   0.27800000E+01           0.65665608E-01
   0.27900000E+01           0.63850088E-01
   0.28000000E+01           0.62093827E-01
   0.28100000E+01           0.60162257E-01
   0.28200000E+01           0.58656790E-01
   0.28300000E+01           0.56758730E-01
   0.28400000E+01           0.55275838E-01
   0.28500000E+01           0.53620106E-01
   0.28600000E+01           0.51979894E-01
   0.28700000E+01           0.50257143E-01
   0.28800000E+01           0.48903527E-01
   0.28900000E+01           0.47300353E-01
   0.29000000E+01           0.45733157E-01
   0.29100000E+01           0.44563139E-01
   0.29200000E+01           0.43197002E-01
   0.29300000E+01           0.41777249E-01
   0.29400000E+01           0.40446032E-01
   0.29500000E+01           0.39191182E-01
   0.29600000E+01           0.37953439E-01
   0.29700000E+01           0.36754497E-01
   0.29800000E+01           0.35574956E-01
   0.29900000E+01           0.34258554E-01
   0.30000000E+01           0.33191005E-01
   0.30100000E+01           0.32204938E-01
   0.30200000E+01           0.31088007E-01
   0.30300000E+01           0.29988360E-01
   0.30400000E+01           0.28968078E-01
   0.30500000E+01           0.28035273E-01
   0.30600000E+01           0.27134744E-01
   0.30700000E+01           0.26127866E-01
   0.30800000E+01           0.25267901E-01
   0.30900000E+01           0.24296649E-01
   0.31000000E+01           0.23397531E-01
   0.31100000E+01           0.22665432E-01
   0.31200000E+01           0.21837566E-01
   0.31300000E+01           0.20981481E-01
   0.31400000E+01           0.20150794E-01
   0.31500000E+01           0.19584656E-01
   0.31600000E+01           0.18687654E-01
   0.31700000E+01           0.18051323E-01
   0.31800000E+01           0.17344974E-01
   0.31900000E+01           0.16590476E-01
   0.32000000E+01           0.16036508E-01
   0.32100000E+01           0.15359259E-01
   0.32200000E+01           0.14765785E-01
   0.32300000E+01           0.14153439E-01
   0.32400000E+01           0.13624515E-01
   0.32500000E+01           0.13073898E-01
   0.32600000E+01           0.12495767E-01
   0.32700000E+01           0.12064374E-01
   0.32800000E+01           0.11555732E-01
   0.32900000E+01           0.10960670E-01
   0.33000000E+01           0.10524868E-01
   0.33100000E+01           0.10057143E-01
   0.33200000E+01           0.96119929E-02
   0.33300000E+01           0.91691358E-02
   0.33400000E+01           0.88081129E-02
   0.33500000E+01           0.84532628E-02
   0.33600000E+01           0.80409171E-02
   0.33700000E+01           0.76440917E-02
   0.33800000E+01           0.72811287E-02
   0.33900000E+01           0.70042328E-02
   0.34000000E+01           0.66310406E-02
   0.34100000E+01           0.62991182E-02
   0.34200000E+01           0.60252205E-02
   0.34300000E+01           0.56865961E-02
   0.34400000E+01           0.53582011E-02
   0.34500000E+01           0.51241623E-02
   0.34600000E+01           0.48714286E-02
   0.34700000E+01           0.46077601E-02
   0.34800000E+01           0.43696649E-02
   0.34900000E+01           0.41654321E-02
   0.35000000E+01           0.38880071E-02
   0.35100000E+01           0.36938272E-02
   0.35200000E+01           0.35126984E-02
   0.35300000E+01           0.33308642E-02
   0.35400000E+01           0.31453263E-02
   0.35500000E+01           0.29022928E-02
   0.35600000E+01           0.27105820E-02
   0.35700000E+01           0.25805996E-02
   0.35800000E+01           0.24310406E-02
   0.35900000E+01           0.22712522E-02
   0.36000000E+01           0.21126984E-02
   0.36100000E+01           0.19807760E-02
   0.36200000E+01           0.18589065E-02
   0.36300000E+01           0.16917108E-02
   0.36400000E+01           0.15910053E-02
   0.36500000E+01           0.15065256E-02
   0.36600000E+01           0.13814815E-02
   0.36700000E+01           0.12636684E-02
   0.36800000E+01           0.11910053E-02
   0.36900000E+01           0.10961199E-02
   0.37000000E+01           0.98430335E-03
   0.37100000E+01           0.92998236E-03
   0.37200000E+01           0.87530864E-03
   0.37300000E+01           0.76102293E-03
   0.37400000E+01           0.69223986E-03
   0.37500000E+01           0.63791887E-03
   0.37600000E+01           0.58201058E-03
   0.37700000E+01           0.51111111E-03
   0.37800000E+01           0.46402116E-03
   0.37900000E+01           0.41728395E-03
   0.38000000E+01           0.37142857E-03
   0.38100000E+01           0.32733686E-03
   0.38200000E+01           0.29594356E-03
   0.38300000E+01           0.25079365E-03
   0.38400000E+01           0.23774250E-03
   0.38500000E+01           0.19611993E-03
   0.38600000E+01           0.15731922E-03
   0.38700000E+01           0.13456790E-03
   0.38800000E+01           0.11640212E-03
   0.38900000E+01           0.92592593E-04
   0.39000000E+01           0.72310406E-04
   0.39100000E+01           0.61904762E-04
   0.39200000E+01           0.45855379E-04
   0.39300000E+01           0.33333333E-04
   0.39400000E+01           0.29982363E-04
   0.39500000E+01           0.17460317E-04
   0.39600000E+01           0.11287478E-04
   0.39700000E+01           0.63492063E-05
   0.39800000E+01           0.21164021E-05
   0.39900000E+01           0.14109347E-05
   0.40000000E+01           0.00000000E+00
