 #written on 13Jan2025 at 16:16:21 
 #----------------------------------------------- MONTECARLO ---------------------------------------------------#
 # Temp      Magnetization     Energy_ave          C_M              Sus              U_E              U_M       #
 #--------------------------------------------------------------------------------------------------------------#
   0.5000   0.97576779E+00  -0.34394577E+02   0.10131833E+01   0.38339030E-01   0.66666652E+00   0.66665328E+00
   1.0000   0.95046548E+00  -0.33889086E+02   0.10120931E+01   0.10840178E+00   0.66666608E+00   0.66658766E+00
   1.5000   0.92557113E+00  -0.33379847E+02   0.10218594E+01   0.14715439E+00   0.66666529E+00   0.66649704E+00
   2.0000   0.90062384E+00  -0.32866724E+02   0.10293909E+01   0.16633693E+00   0.66666413E+00   0.66639723E+00
   2.5000   0.87242174E+00  -0.32347701E+02   0.10394853E+01   0.28172234E+00   0.66666253E+00   0.66606879E+00
   3.0000   0.84261384E+00  -0.31823833E+02   0.10500353E+01   0.42431789E+00   0.66666045E+00   0.66553385E+00
   3.5000   0.81679677E+00  -0.31295461E+02   0.10629868E+01   0.40559077E+00   0.66665780E+00   0.66530710E+00
   4.0000   0.78674774E+00  -0.30759452E+02   0.10780058E+01   0.51932450E+00   0.66665452E+00   0.66454753E+00
   4.5000   0.75566809E+00  -0.30216919E+02   0.10980222E+01   0.63829376E+00   0.66665044E+00   0.66354945E+00
   5.0000   0.72362876E+00  -0.29667081E+02   0.11137253E+01   0.71845262E+00   0.66664558E+00   0.66245645E+00
   5.5000   0.68988435E+00  -0.29106200E+02   0.11273677E+01   0.79493458E+00   0.66663984E+00   0.66103828E+00
   6.0000   0.65107582E+00  -0.28535339E+02   0.11554404E+01   0.12827826E+01   0.66663262E+00   0.65704410E+00
   6.5000   0.61220844E+00  -0.27952176E+02   0.11839650E+01   0.14106297E+01   0.66662400E+00   0.65335024E+00
   7.0000   0.56947762E+00  -0.27354168E+02   0.12191956E+01   0.18030191E+01   0.66661346E+00   0.64673829E+00
   7.5000   0.52056595E+00  -0.26732929E+02   0.12669814E+01   0.21580234E+01   0.66660021E+00   0.63727476E+00
   8.0000   0.46415351E+00  -0.26083291E+02   0.13383981E+01   0.24861115E+01   0.66658278E+00   0.62207738E+00
   8.5000   0.40029682E+00  -0.25394222E+02   0.14190588E+01   0.26654324E+01   0.66656074E+00   0.59688858E+00
   9.0000   0.33364630E+00  -0.24659231E+02   0.15309791E+01   0.23362995E+01   0.66653081E+00   0.57101689E+00
   9.5000   0.27026130E+00  -0.23870883E+02   0.16072034E+01   0.18250012E+01   0.66649710E+00   0.53924702E+00
  10.0000   0.21247764E+00  -0.23060277E+02   0.16192704E+01   0.12895570E+01   0.66646377E+00   0.50581588E+00
  10.5000   0.16784432E+00  -0.22261736E+02   0.15538257E+01   0.81934500E+00   0.66643631E+00   0.48809984E+00
  11.0000   0.13606491E+00  -0.21512211E+02   0.14496000E+01   0.55484552E+00   0.66641409E+00   0.46894216E+00
  11.5000   0.11434336E+00  -0.20815287E+02   0.13440072E+01   0.38494064E+00   0.66639330E+00   0.46077493E+00
  12.0000   0.98922617E-01  -0.20168420E+02   0.12491180E+01   0.28051995E+00   0.66637200E+00   0.45505897E+00
  12.5000   0.87593233E-01  -0.19563143E+02   0.11710070E+01   0.21468211E+00   0.66634810E+00   0.45104760E+00
  13.0000   0.79329602E-01  -0.18993560E+02   0.11001661E+01   0.16928240E+00   0.66632327E+00   0.45004146E+00
  13.5000   0.72573199E-01  -0.18458282E+02   0.10424278E+01   0.13672847E+00   0.66629512E+00   0.44951970E+00
  14.0000   0.67410990E-01  -0.17952142E+02   0.98649480E+00   0.11369267E+00   0.66626696E+00   0.44998518E+00
  14.5000   0.63007468E-01  -0.17474054E+02   0.93262384E+00   0.96548221E-01   0.66623886E+00   0.44763542E+00
  15.0000   0.59389126E-01  -0.17018952E+02   0.87972487E+00   0.83185550E-01   0.66621141E+00   0.44684070E+00
  15.5000   0.56426994E-01  -0.16588500E+02   0.84014450E+00   0.72603998E-01   0.66617805E+00   0.44742583E+00
  16.0000   0.53956878E-01  -0.16178997E+02   0.79843188E+00   0.64416071E-01   0.66614650E+00   0.44661868E+00
  16.5000   0.51722766E-01  -0.15787997E+02   0.76147302E+00   0.57347407E-01   0.66611260E+00   0.44691236E+00
  17.0000   0.49779253E-01  -0.15416632E+02   0.72652620E+00   0.51727003E-01   0.66607825E+00   0.44587226E+00
  17.5000   0.47991131E-01  -0.15062131E+02   0.69279919E+00   0.46779096E-01   0.66604376E+00   0.44552010E+00
  18.0000   0.46566814E-01  -0.14723946E+02   0.66101937E+00   0.42739103E-01   0.66600872E+00   0.44589960E+00
  18.5000   0.45167961E-01  -0.14400678E+02   0.63325973E+00   0.39136443E-01   0.66597063E+00   0.44557553E+00
  19.0000   0.43938437E-01  -0.14090619E+02   0.60560814E+00   0.36163596E-01   0.66593338E+00   0.44454978E+00
  19.5000   0.42863949E-01  -0.13794123E+02   0.58316488E+00   0.33454709E-01   0.66589067E+00   0.44513867E+00
  20.0000   0.41828454E-01  -0.13509652E+02   0.55771705E+00   0.31108121E-01   0.66585282E+00   0.44484010E+00
  20.5000   0.40897890E-01  -0.13236505E+02   0.53483373E+00   0.28903262E-01   0.66581246E+00   0.44601882E+00
  21.0000   0.40032752E-01  -0.12973920E+02   0.51454138E+00   0.27149664E-01   0.66576923E+00   0.44498844E+00
  21.5000   0.39315601E-01  -0.12722318E+02   0.49436784E+00   0.25536952E-01   0.66572676E+00   0.44558830E+00
  22.0000   0.38578265E-01  -0.12479512E+02   0.47704213E+00   0.24064129E-01   0.66567969E+00   0.44525914E+00
  22.5000   0.37899100E-01  -0.12245553E+02   0.45873008E+00   0.22656461E-01   0.66563576E+00   0.44586141E+00
  23.0000   0.37302744E-01  -0.12019568E+02   0.44285820E+00   0.21487551E-01   0.66558733E+00   0.44468949E+00
  23.5000   0.36732277E-01  -0.11802844E+02   0.42698933E+00   0.20403344E-01   0.66553990E+00   0.44548880E+00
  24.0000   0.36200908E-01  -0.11593309E+02   0.41230945E+00   0.19401767E-01   0.66549065E+00   0.44478902E+00
  24.5000   0.35694009E-01  -0.11390430E+02   0.39900986E+00   0.18496761E-01   0.66543814E+00   0.44493134E+00
  25.0000   0.35216753E-01  -0.11195090E+02   0.38457578E+00   0.17672801E-01   0.66539042E+00   0.44460146E+00
  25.5000   0.34801122E-01  -0.11006787E+02   0.37193349E+00   0.16897523E-01   0.66533821E+00   0.44475318E+00
  26.0000   0.34377561E-01  -0.10822933E+02   0.36141678E+00   0.16149510E-01   0.66527889E+00   0.44490186E+00
  26.5000   0.33992411E-01  -0.10645850E+02   0.34861062E+00   0.15483767E-01   0.66522921E+00   0.44529928E+00
  27.0000   0.33619588E-01  -0.10474104E+02   0.33789812E+00   0.14889900E-01   0.66517282E+00   0.44507608E+00
  27.5000   0.33257220E-01  -0.10308112E+02   0.32728336E+00   0.14323886E-01   0.66511728E+00   0.44448918E+00
  28.0000   0.32956571E-01  -0.10146896E+02   0.31782257E+00   0.13805711E-01   0.66505682E+00   0.44433695E+00
  28.5000   0.32630234E-01  -0.99899591E+01   0.30709719E+00   0.13278374E-01   0.66500397E+00   0.44518044E+00
  29.0000   0.32328253E-01  -0.98386294E+01   0.29954742E+00   0.12813926E-01   0.66493576E+00   0.44526551E+00
  29.5000   0.32038579E-01  -0.96915322E+01   0.29034802E+00   0.12352219E-01   0.66487765E+00   0.44573210E+00
  30.0000   0.31793748E-01  -0.95479873E+01   0.28189901E+00   0.11998844E-01   0.66481598E+00   0.44492801E+00
  30.5000   0.31531808E-01  -0.94094743E+01   0.27385438E+00   0.11585841E-01   0.66475342E+00   0.44494688E+00
  31.0000   0.31266029E-01  -0.92735451E+01   0.26698261E+00   0.11220333E-01   0.66468283E+00   0.44447532E+00
  31.5000   0.31033260E-01  -0.91418702E+01   0.25940886E+00   0.10886576E-01   0.66461892E+00   0.44427385E+00
  32.0000   0.30825266E-01  -0.90147821E+01   0.25236152E+00   0.10549833E-01   0.66455298E+00   0.44486381E+00
  32.5000   0.30598578E-01  -0.88908462E+01   0.24523483E+00   0.10280432E-01   0.66448851E+00   0.44402093E+00
  33.0000   0.30404611E-01  -0.87691924E+01   0.23948712E+00   0.99360259E-02   0.66441239E+00   0.44563960E+00
  33.5000   0.30222706E-01  -0.86509243E+01   0.23321029E+00   0.96766633E-02   0.66434267E+00   0.44553834E+00
  34.0000   0.30029244E-01  -0.85365124E+01   0.22673478E+00   0.94322133E-02   0.66427671E+00   0.44541674E+00
  34.5000   0.29841465E-01  -0.84244646E+01   0.22109419E+00   0.91800213E-02   0.66420332E+00   0.44495451E+00
  35.0000   0.29680725E-01  -0.83156045E+01   0.21570660E+00   0.89634646E-02   0.66412777E+00   0.44472100E+00
  35.5000   0.29495419E-01  -0.82086691E+01   0.20993779E+00   0.87046222E-02   0.66405780E+00   0.44520523E+00
  36.0000   0.29343397E-01  -0.81045966E+01   0.20469209E+00   0.85155846E-02   0.66398378E+00   0.44482181E+00
  36.5000   0.29181676E-01  -0.80026900E+01   0.19978481E+00   0.83121162E-02   0.66390596E+00   0.44460591E+00
  37.0000   0.29024497E-01  -0.79042140E+01   0.19510948E+00   0.81070365E-02   0.66382694E+00   0.44473176E+00
  37.5000   0.28877861E-01  -0.78083480E+01   0.19047277E+00   0.78874375E-02   0.66374943E+00   0.44563295E+00
  38.0000   0.28727864E-01  -0.77140831E+01   0.18575458E+00   0.77285953E-02   0.66367341E+00   0.44480625E+00
  38.5000   0.28603288E-01  -0.76219857E+01   0.18229211E+00   0.75433612E-02   0.66357848E+00   0.44530742E+00
  39.0000   0.28472500E-01  -0.75327361E+01   0.17816243E+00   0.74089446E-02   0.66349591E+00   0.44441279E+00
  39.5000   0.28340464E-01  -0.74435504E+01   0.17348791E+00   0.72431554E-02   0.66342290E+00   0.44429442E+00
  40.0000   0.28196209E-01  -0.73586846E+01   0.16926894E+00   0.70885843E-02   0.66334676E+00   0.44394599E+00
