 #written on 13Jan2025 at 16:16:21 
 #----------------- MONTECARLO -------------------#
 #        M                      P(M)             #
 #------------------------------------------------#
 #T=     0.5000
  -0.20000000E+01           0.00000000E+00
  -0.19900000E+01           0.00000000E+00
  -0.19800000E+01           0.00000000E+00
  -0.19700000E+01           0.00000000E+00
  -0.19600000E+01           0.00000000E+00
  -0.19500000E+01           0.00000000E+00
  -0.19400000E+01           0.00000000E+00
  -0.19300000E+01           0.00000000E+00
  -0.19200000E+01           0.00000000E+00
  -0.19100000E+01           0.00000000E+00
  -0.19000000E+01           0.00000000E+00
  -0.18900000E+01           0.00000000E+00
  -0.18800000E+01           0.00000000E+00
  -0.18700000E+01           0.00000000E+00
  -0.18600000E+01           0.00000000E+00
  -0.18500000E+01           0.00000000E+00
  -0.18400000E+01           0.00000000E+00
  -0.18300000E+01           0.00000000E+00
  -0.18200000E+01           0.00000000E+00
  -0.18100000E+01           0.00000000E+00
  -0.18000000E+01           0.00000000E+00
  -0.17900000E+01           0.00000000E+00
  -0.17800000E+01           0.00000000E+00
  -0.17700000E+01           0.00000000E+00
  -0.17600000E+01           0.00000000E+00
  -0.17500000E+01           0.00000000E+00
  -0.17400000E+01           0.00000000E+00
  -0.17300000E+01           0.00000000E+00
  -0.17200000E+01           0.00000000E+00
  -0.17100000E+01           0.00000000E+00
  -0.17000000E+01           0.00000000E+00
  -0.16900000E+01           0.00000000E+00
  -0.16800000E+01           0.00000000E+00
  -0.16700000E+01           0.00000000E+00
  -0.16600000E+01           0.00000000E+00
  -0.16500000E+01           0.00000000E+00
  -0.16400000E+01           0.00000000E+00
  -0.16300000E+01           0.00000000E+00
  -0.16200000E+01           0.00000000E+00
  -0.16100000E+01           0.00000000E+00
  -0.16000000E+01           0.00000000E+00
  -0.15900000E+01           0.00000000E+00
  -0.15800000E+01           0.00000000E+00
  -0.15700000E+01           0.00000000E+00
  -0.15600000E+01           0.00000000E+00
  -0.15500000E+01           0.00000000E+00
  -0.15400000E+01           0.00000000E+00
  -0.15300000E+01           0.00000000E+00
  -0.15200000E+01           0.00000000E+00
  -0.15100000E+01           0.00000000E+00
  -0.15000000E+01           0.00000000E+00
  -0.14900000E+01           0.00000000E+00
  -0.14800000E+01           0.00000000E+00
  -0.14700000E+01           0.00000000E+00
  -0.14600000E+01           0.00000000E+00
  -0.14500000E+01           0.00000000E+00
  -0.14400000E+01           0.00000000E+00
  -0.14300000E+01           0.00000000E+00
  -0.14200000E+01           0.00000000E+00
  -0.14100000E+01           0.00000000E+00
  -0.14000000E+01           0.00000000E+00
  -0.13900000E+01           0.00000000E+00
  -0.13800000E+01           0.00000000E+00
  -0.13700000E+01           0.00000000E+00
  -0.13600000E+01           0.00000000E+00
  -0.13500000E+01           0.00000000E+00
  -0.13400000E+01           0.00000000E+00
  -0.13300000E+01           0.00000000E+00
  -0.13200000E+01           0.00000000E+00
  -0.13100000E+01           0.00000000E+00
  -0.13000000E+01           0.00000000E+00
  -0.12900000E+01           0.00000000E+00
  -0.12800000E+01           0.00000000E+00
  -0.12700000E+01           0.00000000E+00
  -0.12600000E+01           0.00000000E+00
  -0.12500000E+01           0.00000000E+00
  -0.12400000E+01           0.00000000E+00
  -0.12300000E+01           0.00000000E+00
  -0.12200000E+01           0.00000000E+00
  -0.12100000E+01           0.00000000E+00
  -0.12000000E+01           0.00000000E+00
  -0.11900000E+01           0.00000000E+00
  -0.11800000E+01           0.00000000E+00
  -0.11700000E+01           0.00000000E+00
  -0.11600000E+01           0.00000000E+00
  -0.11500000E+01           0.00000000E+00
  -0.11400000E+01           0.00000000E+00
  -0.11300000E+01           0.00000000E+00
  -0.11200000E+01           0.00000000E+00
  -0.11100000E+01           0.00000000E+00
  -0.11000000E+01           0.00000000E+00
  -0.10900000E+01           0.00000000E+00
  -0.10800000E+01           0.00000000E+00
  -0.10700000E+01           0.00000000E+00
  -0.10600000E+01           0.00000000E+00
  -0.10500000E+01           0.00000000E+00
  -0.10400000E+01           0.00000000E+00
  -0.10300000E+01           0.00000000E+00
  -0.10200000E+01           0.00000000E+00
  -0.10100000E+01           0.00000000E+00
  -0.10000000E+01           0.00000000E+00
  -0.99000000E+00           0.00000000E+00
  -0.98000000E+00           0.00000000E+00
  -0.97000000E+00           0.00000000E+00
  -0.96000000E+00           0.00000000E+00
  -0.95000000E+00           0.00000000E+00
  -0.94000000E+00           0.00000000E+00
  -0.93000000E+00           0.00000000E+00
  -0.92000000E+00           0.00000000E+00
  -0.91000000E+00           0.00000000E+00
  -0.90000000E+00           0.00000000E+00
  -0.89000000E+00           0.00000000E+00
  -0.88000000E+00           0.00000000E+00
  -0.87000000E+00           0.00000000E+00
  -0.86000000E+00           0.00000000E+00
  -0.85000000E+00           0.00000000E+00
  -0.84000000E+00           0.00000000E+00
  -0.83000000E+00           0.00000000E+00
  -0.82000000E+00           0.00000000E+00
  -0.81000000E+00           0.00000000E+00
  -0.80000000E+00           0.00000000E+00
  -0.79000000E+00           0.00000000E+00
  -0.78000000E+00           0.00000000E+00
  -0.77000000E+00           0.00000000E+00
  -0.76000000E+00           0.00000000E+00
  -0.75000000E+00           0.00000000E+00
  -0.74000000E+00           0.00000000E+00
  -0.73000000E+00           0.00000000E+00
  -0.72000000E+00           0.00000000E+00
  -0.71000000E+00           0.00000000E+00
  -0.70000000E+00           0.00000000E+00
  -0.69000000E+00           0.00000000E+00
  -0.68000000E+00           0.00000000E+00
  -0.67000000E+00           0.00000000E+00
  -0.66000000E+00           0.00000000E+00
  -0.65000000E+00           0.00000000E+00
  -0.64000000E+00           0.00000000E+00
  -0.63000000E+00           0.00000000E+00
  -0.62000000E+00           0.00000000E+00
  -0.61000000E+00           0.00000000E+00
  -0.60000000E+00           0.00000000E+00
  -0.59000000E+00           0.00000000E+00
  -0.58000000E+00           0.00000000E+00
  -0.57000000E+00           0.00000000E+00
  -0.56000000E+00           0.00000000E+00
  -0.55000000E+00           0.00000000E+00
  -0.54000000E+00           0.00000000E+00
  -0.53000000E+00           0.00000000E+00
  -0.52000000E+00           0.00000000E+00
  -0.51000000E+00           0.00000000E+00
  -0.50000000E+00           0.00000000E+00
  -0.49000000E+00           0.00000000E+00
  -0.48000000E+00           0.00000000E+00
  -0.47000000E+00           0.00000000E+00
  -0.46000000E+00           0.00000000E+00
  -0.45000000E+00           0.00000000E+00
  -0.44000000E+00           0.00000000E+00
  -0.43000000E+00           0.00000000E+00
  -0.42000000E+00           0.00000000E+00
  -0.41000000E+00           0.00000000E+00
  -0.40000000E+00           0.00000000E+00
  -0.39000000E+00           0.00000000E+00
  -0.38000000E+00           0.00000000E+00
  -0.37000000E+00           0.00000000E+00
  -0.36000000E+00           0.00000000E+00
  -0.35000000E+00           0.00000000E+00
  -0.34000000E+00           0.00000000E+00
  -0.33000000E+00           0.00000000E+00
  -0.32000000E+00           0.00000000E+00
  -0.31000000E+00           0.00000000E+00
  -0.30000000E+00           0.00000000E+00
  -0.29000000E+00           0.00000000E+00
  -0.28000000E+00           0.00000000E+00
  -0.27000000E+00           0.00000000E+00
  -0.26000000E+00           0.00000000E+00
  -0.25000000E+00           0.00000000E+00
  -0.24000000E+00           0.00000000E+00
  -0.23000000E+00           0.00000000E+00
  -0.22000000E+00           0.00000000E+00
  -0.21000000E+00           0.00000000E+00
  -0.20000000E+00           0.00000000E+00
  -0.19000000E+00           0.00000000E+00
  -0.18000000E+00           0.00000000E+00
  -0.17000000E+00           0.00000000E+00
  -0.16000000E+00           0.00000000E+00
  -0.15000000E+00           0.00000000E+00
  -0.14000000E+00           0.00000000E+00
  -0.13000000E+00           0.00000000E+00
  -0.12000000E+00           0.00000000E+00
  -0.11000000E+00           0.00000000E+00
  -0.10000000E+00           0.00000000E+00
  -0.90000000E-01           0.00000000E+00
  -0.80000000E-01           0.00000000E+00
  -0.70000000E-01           0.00000000E+00
  -0.60000000E-01           0.00000000E+00
  -0.50000000E-01           0.00000000E+00
  -0.40000000E-01           0.00000000E+00
  -0.30000000E-01           0.00000000E+00
  -0.20000000E-01           0.00000000E+00
  -0.10000000E-01           0.00000000E+00
   0.00000000E+00           0.00000000E+00
   0.10000000E-01           0.00000000E+00
   0.20000000E-01           0.00000000E+00
   0.30000000E-01           0.00000000E+00
   0.40000000E-01           0.00000000E+00
   0.50000000E-01           0.00000000E+00
   0.60000000E-01           0.00000000E+00
   0.70000000E-01           0.00000000E+00
   0.80000000E-01           0.00000000E+00
   0.90000000E-01           0.00000000E+00
   0.10000000E+00           0.00000000E+00
   0.11000000E+00           0.00000000E+00
   0.12000000E+00           0.00000000E+00
   0.13000000E+00           0.00000000E+00
   0.14000000E+00           0.00000000E+00
   0.15000000E+00           0.00000000E+00
   0.16000000E+00           0.00000000E+00
   0.17000000E+00           0.00000000E+00
   0.18000000E+00           0.00000000E+00
   0.19000000E+00           0.00000000E+00
   0.20000000E+00           0.00000000E+00
   0.21000000E+00           0.00000000E+00
   0.22000000E+00           0.00000000E+00
   0.23000000E+00           0.00000000E+00
   0.24000000E+00           0.00000000E+00
   0.25000000E+00           0.00000000E+00
   0.26000000E+00           0.00000000E+00
   0.27000000E+00           0.00000000E+00
   0.28000000E+00           0.00000000E+00
   0.29000000E+00           0.00000000E+00
   0.30000000E+00           0.00000000E+00
   0.31000000E+00           0.00000000E+00
   0.32000000E+00           0.00000000E+00
   0.33000000E+00           0.00000000E+00
   0.34000000E+00           0.00000000E+00
   0.35000000E+00           0.00000000E+00
   0.36000000E+00           0.00000000E+00
   0.37000000E+00           0.00000000E+00
   0.38000000E+00           0.00000000E+00
   0.39000000E+00           0.00000000E+00
   0.40000000E+00           0.00000000E+00
   0.41000000E+00           0.00000000E+00
   0.42000000E+00           0.00000000E+00
   0.43000000E+00           0.00000000E+00
   0.44000000E+00           0.00000000E+00
   0.45000000E+00           0.00000000E+00
   0.46000000E+00           0.00000000E+00
   0.47000000E+00           0.00000000E+00
   0.48000000E+00           0.00000000E+00
   0.49000000E+00           0.00000000E+00
   0.50000000E+00           0.00000000E+00
   0.51000000E+00           0.00000000E+00
   0.52000000E+00           0.00000000E+00
   0.53000000E+00           0.00000000E+00
   0.54000000E+00           0.00000000E+00
   0.55000000E+00           0.00000000E+00
   0.56000000E+00           0.00000000E+00
   0.57000000E+00           0.00000000E+00
   0.58000000E+00           0.00000000E+00
   0.59000000E+00           0.00000000E+00
   0.60000000E+00           0.00000000E+00
   0.61000000E+00           0.00000000E+00
   0.62000000E+00           0.00000000E+00
   0.63000000E+00           0.00000000E+00
   0.64000000E+00           0.00000000E+00
   0.65000000E+00           0.00000000E+00
   0.66000000E+00           0.00000000E+00
   0.67000000E+00           0.00000000E+00
   0.68000000E+00           0.00000000E+00
   0.69000000E+00           0.00000000E+00
   0.70000000E+00           0.00000000E+00
   0.71000000E+00           0.00000000E+00
   0.72000000E+00           0.00000000E+00
   0.73000000E+00           0.00000000E+00
   0.74000000E+00           0.00000000E+00
   0.75000000E+00           0.00000000E+00
   0.76000000E+00           0.00000000E+00
   0.77000000E+00           0.00000000E+00
   0.78000000E+00           0.00000000E+00
   0.79000000E+00           0.00000000E+00
   0.80000000E+00           0.00000000E+00
   0.81000000E+00           0.00000000E+00
   0.82000000E+00           0.00000000E+00
   0.83000000E+00           0.00000000E+00
   0.84000000E+00           0.00000000E+00
   0.85000000E+00           0.00000000E+00
   0.86000000E+00           0.00000000E+00
   0.87000000E+00           0.00000000E+00
   0.88000000E+00           0.00000000E+00
   0.89000000E+00           0.00000000E+00
   0.90000000E+00           0.00000000E+00
   0.91000000E+00           0.00000000E+00
   0.92000000E+00           0.00000000E+00
   0.93000000E+00           0.00000000E+00
   0.94000000E+00           0.00000000E+00
   0.95000000E+00           0.00000000E+00
   0.96000000E+00           0.00000000E+00
   0.97000000E+00           0.00000000E+00
   0.98000000E+00           0.00000000E+00
   0.99000000E+00           0.00000000E+00
   0.10000000E+01           0.00000000E+00
   0.10100000E+01           0.00000000E+00
   0.10200000E+01           0.10000000E-06
   0.10300000E+01           0.00000000E+00
   0.10400000E+01           0.00000000E+00
   0.10500000E+01           0.00000000E+00
   0.10600000E+01           0.00000000E+00
   0.10700000E+01           0.00000000E+00
   0.10800000E+01           0.00000000E+00
   0.10900000E+01           0.00000000E+00
   0.11000000E+01           0.00000000E+00
   0.11100000E+01           0.00000000E+00
   0.11200000E+01           0.00000000E+00
   0.11300000E+01           0.00000000E+00
   0.11400000E+01           0.00000000E+00
   0.11500000E+01           0.00000000E+00
   0.11600000E+01           0.00000000E+00
   0.11700000E+01           0.00000000E+00
   0.11800000E+01           0.00000000E+00
   0.11900000E+01           0.00000000E+00
   0.12000000E+01           0.00000000E+00
   0.12100000E+01           0.00000000E+00
   0.12200000E+01           0.00000000E+00
   0.12300000E+01           0.00000000E+00
   0.12400000E+01           0.00000000E+00
   0.12500000E+01           0.00000000E+00
   0.12600000E+01           0.00000000E+00
   0.12700000E+01           0.00000000E+00
   0.12800000E+01           0.00000000E+00
   0.12900000E+01           0.00000000E+00
   0.13000000E+01           0.00000000E+00
   0.13100000E+01           0.00000000E+00
   0.13200000E+01           0.00000000E+00
   0.13300000E+01           0.00000000E+00
   0.13400000E+01           0.00000000E+00
   0.13500000E+01           0.00000000E+00
   0.13600000E+01           0.00000000E+00
   0.13700000E+01           0.00000000E+00
   0.13800000E+01           0.00000000E+00
   0.13900000E+01           0.00000000E+00
   0.14000000E+01           0.00000000E+00
   0.14100000E+01           0.00000000E+00
   0.14200000E+01           0.00000000E+00
   0.14300000E+01           0.00000000E+00
   0.14400000E+01           0.10000000E-06
   0.14500000E+01           0.00000000E+00
   0.14600000E+01           0.00000000E+00
   0.14700000E+01           0.00000000E+00
   0.14800000E+01           0.00000000E+00
   0.14900000E+01           0.00000000E+00
   0.15000000E+01           0.00000000E+00
   0.15100000E+01           0.00000000E+00
   0.15200000E+01           0.00000000E+00
   0.15300000E+01           0.00000000E+00
   0.15400000E+01           0.10000000E-06
   0.15500000E+01           0.00000000E+00
   0.15600000E+01           0.00000000E+00
   0.15700000E+01           0.00000000E+00
   0.15800000E+01           0.00000000E+00
   0.15900000E+01           0.00000000E+00
   0.16000000E+01           0.00000000E+00
   0.16100000E+01           0.10000000E-06
   0.16200000E+01           0.20000000E-06
   0.16300000E+01           0.00000000E+00
   0.16400000E+01           0.70000000E-06
   0.16500000E+01           0.15000000E-05
   0.16600000E+01           0.37000000E-05
   0.16700000E+01           0.60000000E-05
   0.16800000E+01           0.71000000E-05
   0.16900000E+01           0.13500000E-04
   0.17000000E+01           0.11900000E-04
   0.17100000E+01           0.24900000E-04
   0.17200000E+01           0.56900000E-04
   0.17300000E+01           0.70900000E-04
   0.17400000E+01           0.12330000E-03
   0.17500000E+01           0.19310000E-03
   0.17600000E+01           0.32090000E-03
   0.17700000E+01           0.54110000E-03
   0.17800000E+01           0.93430000E-03
   0.17900000E+01           0.14868000E-02
   0.18000000E+01           0.25169000E-02
   0.18100000E+01           0.41806000E-02
   0.18200000E+01           0.67757000E-02
   0.18300000E+01           0.11067500E-01
   0.18400000E+01           0.18678900E-01
   0.18500000E+01           0.30679200E-01
   0.18600000E+01           0.50054000E-01
   0.18700000E+01           0.82136200E-01
   0.18800000E+01           0.13638420E+00
   0.18900000E+01           0.22168830E+00
   0.19000000E+01           0.36455830E+00
   0.19100000E+01           0.59502430E+00
   0.19200000E+01           0.97748420E+00
   0.19300000E+01           0.15966162E+01
   0.19400000E+01           0.26162531E+01
   0.19500000E+01           0.42703031E+01
   0.19600000E+01           0.69812502E+01
   0.19700000E+01           0.11388166E+02
   0.19800000E+01           0.18593133E+02
   0.19900000E+01           0.30328564E+02
   0.20000000E+01           0.21720689E+02
 #T=     1.0000
  -0.20000000E+01           0.00000000E+00
  -0.19900000E+01           0.00000000E+00
  -0.19800000E+01           0.00000000E+00
  -0.19700000E+01           0.00000000E+00
  -0.19600000E+01           0.00000000E+00
  -0.19500000E+01           0.00000000E+00
  -0.19400000E+01           0.00000000E+00
  -0.19300000E+01           0.00000000E+00
  -0.19200000E+01           0.00000000E+00
  -0.19100000E+01           0.00000000E+00
  -0.19000000E+01           0.00000000E+00
  -0.18900000E+01           0.00000000E+00
  -0.18800000E+01           0.00000000E+00
  -0.18700000E+01           0.00000000E+00
  -0.18600000E+01           0.00000000E+00
  -0.18500000E+01           0.00000000E+00
  -0.18400000E+01           0.00000000E+00
  -0.18300000E+01           0.00000000E+00
  -0.18200000E+01           0.00000000E+00
  -0.18100000E+01           0.00000000E+00
  -0.18000000E+01           0.00000000E+00
  -0.17900000E+01           0.00000000E+00
  -0.17800000E+01           0.00000000E+00
  -0.17700000E+01           0.00000000E+00
  -0.17600000E+01           0.00000000E+00
  -0.17500000E+01           0.00000000E+00
  -0.17400000E+01           0.00000000E+00
  -0.17300000E+01           0.00000000E+00
  -0.17200000E+01           0.00000000E+00
  -0.17100000E+01           0.00000000E+00
  -0.17000000E+01           0.00000000E+00
  -0.16900000E+01           0.00000000E+00
  -0.16800000E+01           0.00000000E+00
  -0.16700000E+01           0.00000000E+00
  -0.16600000E+01           0.00000000E+00
  -0.16500000E+01           0.00000000E+00
  -0.16400000E+01           0.00000000E+00
  -0.16300000E+01           0.00000000E+00
  -0.16200000E+01           0.00000000E+00
  -0.16100000E+01           0.00000000E+00
  -0.16000000E+01           0.00000000E+00
  -0.15900000E+01           0.00000000E+00
  -0.15800000E+01           0.00000000E+00
  -0.15700000E+01           0.00000000E+00
  -0.15600000E+01           0.00000000E+00
  -0.15500000E+01           0.00000000E+00
  -0.15400000E+01           0.00000000E+00
  -0.15300000E+01           0.00000000E+00
  -0.15200000E+01           0.00000000E+00
  -0.15100000E+01           0.00000000E+00
  -0.15000000E+01           0.00000000E+00
  -0.14900000E+01           0.00000000E+00
  -0.14800000E+01           0.00000000E+00
  -0.14700000E+01           0.00000000E+00
  -0.14600000E+01           0.00000000E+00
  -0.14500000E+01           0.00000000E+00
  -0.14400000E+01           0.00000000E+00
  -0.14300000E+01           0.00000000E+00
  -0.14200000E+01           0.00000000E+00
  -0.14100000E+01           0.00000000E+00
  -0.14000000E+01           0.00000000E+00
  -0.13900000E+01           0.00000000E+00
  -0.13800000E+01           0.00000000E+00
  -0.13700000E+01           0.00000000E+00
  -0.13600000E+01           0.00000000E+00
  -0.13500000E+01           0.00000000E+00
  -0.13400000E+01           0.00000000E+00
  -0.13300000E+01           0.00000000E+00
  -0.13200000E+01           0.00000000E+00
  -0.13100000E+01           0.00000000E+00
  -0.13000000E+01           0.00000000E+00
  -0.12900000E+01           0.00000000E+00
  -0.12800000E+01           0.00000000E+00
  -0.12700000E+01           0.00000000E+00
  -0.12600000E+01           0.00000000E+00
  -0.12500000E+01           0.00000000E+00
  -0.12400000E+01           0.00000000E+00
  -0.12300000E+01           0.00000000E+00
  -0.12200000E+01           0.00000000E+00
  -0.12100000E+01           0.00000000E+00
  -0.12000000E+01           0.00000000E+00
  -0.11900000E+01           0.00000000E+00
  -0.11800000E+01           0.00000000E+00
  -0.11700000E+01           0.00000000E+00
  -0.11600000E+01           0.00000000E+00
  -0.11500000E+01           0.00000000E+00
  -0.11400000E+01           0.00000000E+00
  -0.11300000E+01           0.00000000E+00
  -0.11200000E+01           0.00000000E+00
  -0.11100000E+01           0.00000000E+00
  -0.11000000E+01           0.00000000E+00
  -0.10900000E+01           0.00000000E+00
  -0.10800000E+01           0.00000000E+00
  -0.10700000E+01           0.00000000E+00
  -0.10600000E+01           0.00000000E+00
  -0.10500000E+01           0.00000000E+00
  -0.10400000E+01           0.00000000E+00
  -0.10300000E+01           0.00000000E+00
  -0.10200000E+01           0.00000000E+00
  -0.10100000E+01           0.00000000E+00
  -0.10000000E+01           0.00000000E+00
  -0.99000000E+00           0.00000000E+00
  -0.98000000E+00           0.00000000E+00
  -0.97000000E+00           0.00000000E+00
  -0.96000000E+00           0.00000000E+00
  -0.95000000E+00           0.00000000E+00
  -0.94000000E+00           0.00000000E+00
  -0.93000000E+00           0.00000000E+00
  -0.92000000E+00           0.00000000E+00
  -0.91000000E+00           0.00000000E+00
  -0.90000000E+00           0.00000000E+00
  -0.89000000E+00           0.00000000E+00
  -0.88000000E+00           0.00000000E+00
  -0.87000000E+00           0.00000000E+00
  -0.86000000E+00           0.00000000E+00
  -0.85000000E+00           0.00000000E+00
  -0.84000000E+00           0.00000000E+00
  -0.83000000E+00           0.00000000E+00
  -0.82000000E+00           0.00000000E+00
  -0.81000000E+00           0.00000000E+00
  -0.80000000E+00           0.00000000E+00
  -0.79000000E+00           0.00000000E+00
  -0.78000000E+00           0.00000000E+00
  -0.77000000E+00           0.00000000E+00
  -0.76000000E+00           0.00000000E+00
  -0.75000000E+00           0.00000000E+00
  -0.74000000E+00           0.00000000E+00
  -0.73000000E+00           0.00000000E+00
  -0.72000000E+00           0.00000000E+00
  -0.71000000E+00           0.00000000E+00
  -0.70000000E+00           0.00000000E+00
  -0.69000000E+00           0.00000000E+00
  -0.68000000E+00           0.00000000E+00
  -0.67000000E+00           0.00000000E+00
  -0.66000000E+00           0.00000000E+00
  -0.65000000E+00           0.00000000E+00
  -0.64000000E+00           0.00000000E+00
  -0.63000000E+00           0.00000000E+00
  -0.62000000E+00           0.00000000E+00
  -0.61000000E+00           0.00000000E+00
  -0.60000000E+00           0.00000000E+00
  -0.59000000E+00           0.00000000E+00
  -0.58000000E+00           0.00000000E+00
  -0.57000000E+00           0.00000000E+00
  -0.56000000E+00           0.00000000E+00
  -0.55000000E+00           0.00000000E+00
  -0.54000000E+00           0.00000000E+00
  -0.53000000E+00           0.00000000E+00
  -0.52000000E+00           0.00000000E+00
  -0.51000000E+00           0.00000000E+00
  -0.50000000E+00           0.00000000E+00
  -0.49000000E+00           0.00000000E+00
  -0.48000000E+00           0.00000000E+00
  -0.47000000E+00           0.00000000E+00
  -0.46000000E+00           0.00000000E+00
  -0.45000000E+00           0.00000000E+00
  -0.44000000E+00           0.00000000E+00
  -0.43000000E+00           0.00000000E+00
  -0.42000000E+00           0.00000000E+00
  -0.41000000E+00           0.00000000E+00
  -0.40000000E+00           0.00000000E+00
  -0.39000000E+00           0.00000000E+00
  -0.38000000E+00           0.00000000E+00
  -0.37000000E+00           0.00000000E+00
  -0.36000000E+00           0.00000000E+00
  -0.35000000E+00           0.00000000E+00
  -0.34000000E+00           0.00000000E+00
  -0.33000000E+00           0.00000000E+00
  -0.32000000E+00           0.00000000E+00
  -0.31000000E+00           0.00000000E+00
  -0.30000000E+00           0.00000000E+00
  -0.29000000E+00           0.00000000E+00
  -0.28000000E+00           0.00000000E+00
  -0.27000000E+00           0.00000000E+00
  -0.26000000E+00           0.00000000E+00
  -0.25000000E+00           0.00000000E+00
  -0.24000000E+00           0.00000000E+00
  -0.23000000E+00           0.00000000E+00
  -0.22000000E+00           0.00000000E+00
  -0.21000000E+00           0.00000000E+00
  -0.20000000E+00           0.00000000E+00
  -0.19000000E+00           0.00000000E+00
  -0.18000000E+00           0.00000000E+00
  -0.17000000E+00           0.00000000E+00
  -0.16000000E+00           0.00000000E+00
  -0.15000000E+00           0.00000000E+00
  -0.14000000E+00           0.00000000E+00
  -0.13000000E+00           0.00000000E+00
  -0.12000000E+00           0.00000000E+00
  -0.11000000E+00           0.00000000E+00
  -0.10000000E+00           0.00000000E+00
  -0.90000000E-01           0.00000000E+00
  -0.80000000E-01           0.00000000E+00
  -0.70000000E-01           0.00000000E+00
  -0.60000000E-01           0.00000000E+00
  -0.50000000E-01           0.00000000E+00
  -0.40000000E-01           0.00000000E+00
  -0.30000000E-01           0.00000000E+00
  -0.20000000E-01           0.00000000E+00
  -0.10000000E-01           0.00000000E+00
   0.00000000E+00           0.00000000E+00
   0.10000000E-01           0.00000000E+00
   0.20000000E-01           0.00000000E+00
   0.30000000E-01           0.00000000E+00
   0.40000000E-01           0.00000000E+00
   0.50000000E-01           0.00000000E+00
   0.60000000E-01           0.00000000E+00
   0.70000000E-01           0.00000000E+00
   0.80000000E-01           0.00000000E+00
   0.90000000E-01           0.00000000E+00
   0.10000000E+00           0.00000000E+00
   0.11000000E+00           0.00000000E+00
   0.12000000E+00           0.00000000E+00
   0.13000000E+00           0.00000000E+00
   0.14000000E+00           0.00000000E+00
   0.15000000E+00           0.00000000E+00
   0.16000000E+00           0.00000000E+00
   0.17000000E+00           0.00000000E+00
   0.18000000E+00           0.00000000E+00
   0.19000000E+00           0.00000000E+00
   0.20000000E+00           0.00000000E+00
   0.21000000E+00           0.00000000E+00
   0.22000000E+00           0.00000000E+00
   0.23000000E+00           0.00000000E+00
   0.24000000E+00           0.00000000E+00
   0.25000000E+00           0.00000000E+00
   0.26000000E+00           0.00000000E+00
   0.27000000E+00           0.00000000E+00
   0.28000000E+00           0.00000000E+00
   0.29000000E+00           0.00000000E+00
   0.30000000E+00           0.00000000E+00
   0.31000000E+00           0.00000000E+00
   0.32000000E+00           0.00000000E+00
   0.33000000E+00           0.00000000E+00
   0.34000000E+00           0.00000000E+00
   0.35000000E+00           0.00000000E+00
   0.36000000E+00           0.00000000E+00
   0.37000000E+00           0.00000000E+00
   0.38000000E+00           0.00000000E+00
   0.39000000E+00           0.00000000E+00
   0.40000000E+00           0.00000000E+00
   0.41000000E+00           0.00000000E+00
   0.42000000E+00           0.00000000E+00
   0.43000000E+00           0.00000000E+00
   0.44000000E+00           0.00000000E+00
   0.45000000E+00           0.00000000E+00
   0.46000000E+00           0.00000000E+00
   0.47000000E+00           0.00000000E+00
   0.48000000E+00           0.00000000E+00
   0.49000000E+00           0.00000000E+00
   0.50000000E+00           0.00000000E+00
   0.51000000E+00           0.00000000E+00
   0.52000000E+00           0.00000000E+00
   0.53000000E+00           0.00000000E+00
   0.54000000E+00           0.00000000E+00
   0.55000000E+00           0.00000000E+00
   0.56000000E+00           0.00000000E+00
   0.57000000E+00           0.00000000E+00
   0.58000000E+00           0.00000000E+00
   0.59000000E+00           0.00000000E+00
   0.60000000E+00           0.00000000E+00
   0.61000000E+00           0.00000000E+00
   0.62000000E+00           0.00000000E+00
   0.63000000E+00           0.00000000E+00
   0.64000000E+00           0.00000000E+00
   0.65000000E+00           0.00000000E+00
   0.66000000E+00           0.00000000E+00
   0.67000000E+00           0.00000000E+00
   0.68000000E+00           0.00000000E+00
   0.69000000E+00           0.00000000E+00
   0.70000000E+00           0.00000000E+00
   0.71000000E+00           0.00000000E+00
   0.72000000E+00           0.00000000E+00
   0.73000000E+00           0.00000000E+00
   0.74000000E+00           0.00000000E+00
   0.75000000E+00           0.00000000E+00
   0.76000000E+00           0.00000000E+00
   0.77000000E+00           0.00000000E+00
   0.78000000E+00           0.00000000E+00
   0.79000000E+00           0.00000000E+00
   0.80000000E+00           0.00000000E+00
   0.81000000E+00           0.00000000E+00
   0.82000000E+00           0.00000000E+00
   0.83000000E+00           0.00000000E+00
   0.84000000E+00           0.00000000E+00
   0.85000000E+00           0.00000000E+00
   0.86000000E+00           0.00000000E+00
   0.87000000E+00           0.00000000E+00
   0.88000000E+00           0.00000000E+00
   0.89000000E+00           0.00000000E+00
   0.90000000E+00           0.00000000E+00
   0.91000000E+00           0.00000000E+00
   0.92000000E+00           0.00000000E+00
   0.93000000E+00           0.00000000E+00
   0.94000000E+00           0.00000000E+00
   0.95000000E+00           0.00000000E+00
   0.96000000E+00           0.00000000E+00
   0.97000000E+00           0.00000000E+00
   0.98000000E+00           0.00000000E+00
   0.99000000E+00           0.00000000E+00
   0.10000000E+01           0.00000000E+00
   0.10100000E+01           0.00000000E+00
   0.10200000E+01           0.00000000E+00
   0.10300000E+01           0.00000000E+00
   0.10400000E+01           0.00000000E+00
   0.10500000E+01           0.00000000E+00
   0.10600000E+01           0.00000000E+00
   0.10700000E+01           0.00000000E+00
   0.10800000E+01           0.00000000E+00
   0.10900000E+01           0.00000000E+00
   0.11000000E+01           0.00000000E+00
   0.11100000E+01           0.00000000E+00
   0.11200000E+01           0.00000000E+00
   0.11300000E+01           0.00000000E+00
   0.11400000E+01           0.00000000E+00
   0.11500000E+01           0.00000000E+00
   0.11600000E+01           0.00000000E+00
   0.11700000E+01           0.00000000E+00
   0.11800000E+01           0.00000000E+00
   0.11900000E+01           0.00000000E+00
   0.12000000E+01           0.00000000E+00
   0.12100000E+01           0.00000000E+00
   0.12200000E+01           0.30000000E-06
   0.12300000E+01           0.10000000E-06
   0.12400000E+01           0.60000000E-06
   0.12500000E+01           0.00000000E+00
   0.12600000E+01           0.40000000E-06
   0.12700000E+01           0.00000000E+00
   0.12800000E+01           0.00000000E+00
   0.12900000E+01           0.20000000E-06
   0.13000000E+01           0.00000000E+00
   0.13100000E+01           0.12000000E-05
   0.13200000E+01           0.30000000E-06
   0.13300000E+01           0.70000000E-06
   0.13400000E+01           0.20000000E-06
   0.13500000E+01           0.17000000E-05
   0.13600000E+01           0.20000000E-05
   0.13700000E+01           0.23000000E-05
   0.13800000E+01           0.39000000E-05
   0.13900000E+01           0.61000000E-05
   0.14000000E+01           0.66000000E-05
   0.14100000E+01           0.82000000E-05
   0.14200000E+01           0.16000000E-04
   0.14300000E+01           0.13600000E-04
   0.14400000E+01           0.22300000E-04
   0.14500000E+01           0.28100000E-04
   0.14600000E+01           0.26200000E-04
   0.14700000E+01           0.44400000E-04
   0.14800000E+01           0.57100000E-04
   0.14900000E+01           0.73000000E-04
   0.15000000E+01           0.94200000E-04
   0.15100000E+01           0.12380000E-03
   0.15200000E+01           0.16850000E-03
   0.15300000E+01           0.22390000E-03
   0.15400000E+01           0.27300000E-03
   0.15500000E+01           0.34110000E-03
   0.15600000E+01           0.44070000E-03
   0.15700000E+01           0.61620000E-03
   0.15800000E+01           0.78900000E-03
   0.15900000E+01           0.95500000E-03
   0.16000000E+01           0.12976000E-02
   0.16100000E+01           0.16290000E-02
   0.16200000E+01           0.21244000E-02
   0.16300000E+01           0.28046000E-02
   0.16400000E+01           0.35461000E-02
   0.16500000E+01           0.45003000E-02
   0.16600000E+01           0.57560000E-02
   0.16700000E+01           0.74209000E-02
   0.16800000E+01           0.94303000E-02
   0.16900000E+01           0.12138500E-01
   0.17000000E+01           0.15712100E-01
   0.17100000E+01           0.20180500E-01
   0.17200000E+01           0.25881000E-01
   0.17300000E+01           0.33577400E-01
   0.17400000E+01           0.42434000E-01
   0.17500000E+01           0.54520700E-01
   0.17600000E+01           0.70017300E-01
   0.17700000E+01           0.89657700E-01
   0.17800000E+01           0.11461140E+00
   0.17900000E+01           0.14704420E+00
   0.18000000E+01           0.18711230E+00
   0.18100000E+01           0.24017540E+00
   0.18200000E+01           0.30712920E+00
   0.18300000E+01           0.39272490E+00
   0.18400000E+01           0.50121090E+00
   0.18500000E+01           0.64007600E+00
   0.18600000E+01           0.81745380E+00
   0.18700000E+01           0.10436517E+01
   0.18800000E+01           0.13299423E+01
   0.18900000E+01           0.16984200E+01
   0.19000000E+01           0.21655284E+01
   0.19100000E+01           0.27635505E+01
   0.19200000E+01           0.35136524E+01
   0.19300000E+01           0.44765094E+01
   0.19400000E+01           0.57083159E+01
   0.19500000E+01           0.72609717E+01
   0.19600000E+01           0.92422545E+01
   0.19700000E+01           0.11746845E+02
   0.19800000E+01           0.14944885E+02
   0.19900000E+01           0.18995672E+02
   0.20000000E+01           0.11355294E+02
 #T=     1.5000
  -0.20000000E+01           0.00000000E+00
  -0.19900000E+01           0.00000000E+00
  -0.19800000E+01           0.00000000E+00
  -0.19700000E+01           0.00000000E+00
  -0.19600000E+01           0.00000000E+00
  -0.19500000E+01           0.00000000E+00
  -0.19400000E+01           0.00000000E+00
  -0.19300000E+01           0.00000000E+00
  -0.19200000E+01           0.00000000E+00
  -0.19100000E+01           0.00000000E+00
  -0.19000000E+01           0.00000000E+00
  -0.18900000E+01           0.00000000E+00
  -0.18800000E+01           0.00000000E+00
  -0.18700000E+01           0.00000000E+00
  -0.18600000E+01           0.00000000E+00
  -0.18500000E+01           0.00000000E+00
  -0.18400000E+01           0.00000000E+00
  -0.18300000E+01           0.00000000E+00
  -0.18200000E+01           0.00000000E+00
  -0.18100000E+01           0.00000000E+00
  -0.18000000E+01           0.00000000E+00
  -0.17900000E+01           0.00000000E+00
  -0.17800000E+01           0.00000000E+00
  -0.17700000E+01           0.00000000E+00
  -0.17600000E+01           0.00000000E+00
  -0.17500000E+01           0.00000000E+00
  -0.17400000E+01           0.00000000E+00
  -0.17300000E+01           0.00000000E+00
  -0.17200000E+01           0.00000000E+00
  -0.17100000E+01           0.00000000E+00
  -0.17000000E+01           0.00000000E+00
  -0.16900000E+01           0.00000000E+00
  -0.16800000E+01           0.00000000E+00
  -0.16700000E+01           0.00000000E+00
  -0.16600000E+01           0.00000000E+00
  -0.16500000E+01           0.00000000E+00
  -0.16400000E+01           0.00000000E+00
  -0.16300000E+01           0.00000000E+00
  -0.16200000E+01           0.00000000E+00
  -0.16100000E+01           0.00000000E+00
  -0.16000000E+01           0.00000000E+00
  -0.15900000E+01           0.00000000E+00
  -0.15800000E+01           0.00000000E+00
  -0.15700000E+01           0.00000000E+00
  -0.15600000E+01           0.00000000E+00
  -0.15500000E+01           0.00000000E+00
  -0.15400000E+01           0.00000000E+00
  -0.15300000E+01           0.00000000E+00
  -0.15200000E+01           0.00000000E+00
  -0.15100000E+01           0.00000000E+00
  -0.15000000E+01           0.00000000E+00
  -0.14900000E+01           0.00000000E+00
  -0.14800000E+01           0.00000000E+00
  -0.14700000E+01           0.00000000E+00
  -0.14600000E+01           0.00000000E+00
  -0.14500000E+01           0.00000000E+00
  -0.14400000E+01           0.00000000E+00
  -0.14300000E+01           0.00000000E+00
  -0.14200000E+01           0.00000000E+00
  -0.14100000E+01           0.00000000E+00
  -0.14000000E+01           0.00000000E+00
  -0.13900000E+01           0.00000000E+00
  -0.13800000E+01           0.00000000E+00
  -0.13700000E+01           0.00000000E+00
  -0.13600000E+01           0.00000000E+00
  -0.13500000E+01           0.00000000E+00
  -0.13400000E+01           0.00000000E+00
  -0.13300000E+01           0.00000000E+00
  -0.13200000E+01           0.00000000E+00
  -0.13100000E+01           0.00000000E+00
  -0.13000000E+01           0.00000000E+00
  -0.12900000E+01           0.00000000E+00
  -0.12800000E+01           0.00000000E+00
  -0.12700000E+01           0.00000000E+00
  -0.12600000E+01           0.00000000E+00
  -0.12500000E+01           0.00000000E+00
  -0.12400000E+01           0.00000000E+00
  -0.12300000E+01           0.00000000E+00
  -0.12200000E+01           0.00000000E+00
  -0.12100000E+01           0.00000000E+00
  -0.12000000E+01           0.00000000E+00
  -0.11900000E+01           0.00000000E+00
  -0.11800000E+01           0.00000000E+00
  -0.11700000E+01           0.00000000E+00
  -0.11600000E+01           0.00000000E+00
  -0.11500000E+01           0.00000000E+00
  -0.11400000E+01           0.00000000E+00
  -0.11300000E+01           0.00000000E+00
  -0.11200000E+01           0.00000000E+00
  -0.11100000E+01           0.00000000E+00
  -0.11000000E+01           0.00000000E+00
  -0.10900000E+01           0.00000000E+00
  -0.10800000E+01           0.00000000E+00
  -0.10700000E+01           0.00000000E+00
  -0.10600000E+01           0.00000000E+00
  -0.10500000E+01           0.00000000E+00
  -0.10400000E+01           0.00000000E+00
  -0.10300000E+01           0.00000000E+00
  -0.10200000E+01           0.00000000E+00
  -0.10100000E+01           0.00000000E+00
  -0.10000000E+01           0.00000000E+00
  -0.99000000E+00           0.00000000E+00
  -0.98000000E+00           0.00000000E+00
  -0.97000000E+00           0.00000000E+00
  -0.96000000E+00           0.00000000E+00
  -0.95000000E+00           0.00000000E+00
  -0.94000000E+00           0.00000000E+00
  -0.93000000E+00           0.00000000E+00
  -0.92000000E+00           0.00000000E+00
  -0.91000000E+00           0.00000000E+00
  -0.90000000E+00           0.00000000E+00
  -0.89000000E+00           0.00000000E+00
  -0.88000000E+00           0.00000000E+00
  -0.87000000E+00           0.00000000E+00
  -0.86000000E+00           0.00000000E+00
  -0.85000000E+00           0.00000000E+00
  -0.84000000E+00           0.00000000E+00
  -0.83000000E+00           0.00000000E+00
  -0.82000000E+00           0.00000000E+00
  -0.81000000E+00           0.00000000E+00
  -0.80000000E+00           0.00000000E+00
  -0.79000000E+00           0.00000000E+00
  -0.78000000E+00           0.00000000E+00
  -0.77000000E+00           0.00000000E+00
  -0.76000000E+00           0.00000000E+00
  -0.75000000E+00           0.00000000E+00
  -0.74000000E+00           0.00000000E+00
  -0.73000000E+00           0.00000000E+00
  -0.72000000E+00           0.00000000E+00
  -0.71000000E+00           0.00000000E+00
  -0.70000000E+00           0.00000000E+00
  -0.69000000E+00           0.00000000E+00
  -0.68000000E+00           0.00000000E+00
  -0.67000000E+00           0.00000000E+00
  -0.66000000E+00           0.00000000E+00
  -0.65000000E+00           0.00000000E+00
  -0.64000000E+00           0.00000000E+00
  -0.63000000E+00           0.00000000E+00
  -0.62000000E+00           0.00000000E+00
  -0.61000000E+00           0.00000000E+00
  -0.60000000E+00           0.00000000E+00
  -0.59000000E+00           0.00000000E+00
  -0.58000000E+00           0.00000000E+00
  -0.57000000E+00           0.00000000E+00
  -0.56000000E+00           0.00000000E+00
  -0.55000000E+00           0.00000000E+00
  -0.54000000E+00           0.00000000E+00
  -0.53000000E+00           0.00000000E+00
  -0.52000000E+00           0.00000000E+00
  -0.51000000E+00           0.00000000E+00
  -0.50000000E+00           0.00000000E+00
  -0.49000000E+00           0.00000000E+00
  -0.48000000E+00           0.00000000E+00
  -0.47000000E+00           0.00000000E+00
  -0.46000000E+00           0.00000000E+00
  -0.45000000E+00           0.00000000E+00
  -0.44000000E+00           0.00000000E+00
  -0.43000000E+00           0.00000000E+00
  -0.42000000E+00           0.00000000E+00
  -0.41000000E+00           0.00000000E+00
  -0.40000000E+00           0.00000000E+00
  -0.39000000E+00           0.00000000E+00
  -0.38000000E+00           0.00000000E+00
  -0.37000000E+00           0.00000000E+00
  -0.36000000E+00           0.00000000E+00
  -0.35000000E+00           0.00000000E+00
  -0.34000000E+00           0.00000000E+00
  -0.33000000E+00           0.00000000E+00
  -0.32000000E+00           0.00000000E+00
  -0.31000000E+00           0.00000000E+00
  -0.30000000E+00           0.00000000E+00
  -0.29000000E+00           0.00000000E+00
  -0.28000000E+00           0.00000000E+00
  -0.27000000E+00           0.00000000E+00
  -0.26000000E+00           0.00000000E+00
  -0.25000000E+00           0.00000000E+00
  -0.24000000E+00           0.00000000E+00
  -0.23000000E+00           0.00000000E+00
  -0.22000000E+00           0.00000000E+00
  -0.21000000E+00           0.00000000E+00
  -0.20000000E+00           0.00000000E+00
  -0.19000000E+00           0.00000000E+00
  -0.18000000E+00           0.00000000E+00
  -0.17000000E+00           0.00000000E+00
  -0.16000000E+00           0.00000000E+00
  -0.15000000E+00           0.00000000E+00
  -0.14000000E+00           0.00000000E+00
  -0.13000000E+00           0.00000000E+00
  -0.12000000E+00           0.00000000E+00
  -0.11000000E+00           0.00000000E+00
  -0.10000000E+00           0.00000000E+00
  -0.90000000E-01           0.00000000E+00
  -0.80000000E-01           0.00000000E+00
  -0.70000000E-01           0.00000000E+00
  -0.60000000E-01           0.00000000E+00
  -0.50000000E-01           0.00000000E+00
  -0.40000000E-01           0.00000000E+00
  -0.30000000E-01           0.00000000E+00
  -0.20000000E-01           0.00000000E+00
  -0.10000000E-01           0.00000000E+00
   0.00000000E+00           0.00000000E+00
   0.10000000E-01           0.00000000E+00
   0.20000000E-01           0.00000000E+00
   0.30000000E-01           0.00000000E+00
   0.40000000E-01           0.00000000E+00
   0.50000000E-01           0.00000000E+00
   0.60000000E-01           0.00000000E+00
   0.70000000E-01           0.00000000E+00
   0.80000000E-01           0.00000000E+00
   0.90000000E-01           0.00000000E+00
   0.10000000E+00           0.00000000E+00
   0.11000000E+00           0.00000000E+00
   0.12000000E+00           0.00000000E+00
   0.13000000E+00           0.00000000E+00
   0.14000000E+00           0.00000000E+00
   0.15000000E+00           0.00000000E+00
   0.16000000E+00           0.00000000E+00
   0.17000000E+00           0.00000000E+00
   0.18000000E+00           0.00000000E+00
   0.19000000E+00           0.00000000E+00
   0.20000000E+00           0.00000000E+00
   0.21000000E+00           0.00000000E+00
   0.22000000E+00           0.00000000E+00
   0.23000000E+00           0.00000000E+00
   0.24000000E+00           0.00000000E+00
   0.25000000E+00           0.00000000E+00
   0.26000000E+00           0.00000000E+00
   0.27000000E+00           0.00000000E+00
   0.28000000E+00           0.00000000E+00
   0.29000000E+00           0.00000000E+00
   0.30000000E+00           0.00000000E+00
   0.31000000E+00           0.00000000E+00
   0.32000000E+00           0.00000000E+00
   0.33000000E+00           0.00000000E+00
   0.34000000E+00           0.00000000E+00
   0.35000000E+00           0.00000000E+00
   0.36000000E+00           0.00000000E+00
   0.37000000E+00           0.00000000E+00
   0.38000000E+00           0.00000000E+00
   0.39000000E+00           0.00000000E+00
   0.40000000E+00           0.00000000E+00
   0.41000000E+00           0.00000000E+00
   0.42000000E+00           0.00000000E+00
   0.43000000E+00           0.00000000E+00
   0.44000000E+00           0.00000000E+00
   0.45000000E+00           0.00000000E+00
   0.46000000E+00           0.00000000E+00
   0.47000000E+00           0.00000000E+00
   0.48000000E+00           0.00000000E+00
   0.49000000E+00           0.00000000E+00
   0.50000000E+00           0.00000000E+00
   0.51000000E+00           0.00000000E+00
   0.52000000E+00           0.00000000E+00
   0.53000000E+00           0.00000000E+00
   0.54000000E+00           0.00000000E+00
   0.55000000E+00           0.00000000E+00
   0.56000000E+00           0.00000000E+00
   0.57000000E+00           0.00000000E+00
   0.58000000E+00           0.00000000E+00
   0.59000000E+00           0.00000000E+00
   0.60000000E+00           0.00000000E+00
   0.61000000E+00           0.00000000E+00
   0.62000000E+00           0.00000000E+00
   0.63000000E+00           0.00000000E+00
   0.64000000E+00           0.00000000E+00
   0.65000000E+00           0.00000000E+00
   0.66000000E+00           0.00000000E+00
   0.67000000E+00           0.00000000E+00
   0.68000000E+00           0.00000000E+00
   0.69000000E+00           0.00000000E+00
   0.70000000E+00           0.00000000E+00
   0.71000000E+00           0.00000000E+00
   0.72000000E+00           0.00000000E+00
   0.73000000E+00           0.00000000E+00
   0.74000000E+00           0.00000000E+00
   0.75000000E+00           0.00000000E+00
   0.76000000E+00           0.00000000E+00
   0.77000000E+00           0.00000000E+00
   0.78000000E+00           0.00000000E+00
   0.79000000E+00           0.00000000E+00
   0.80000000E+00           0.00000000E+00
   0.81000000E+00           0.00000000E+00
   0.82000000E+00           0.00000000E+00
   0.83000000E+00           0.00000000E+00
   0.84000000E+00           0.00000000E+00
   0.85000000E+00           0.00000000E+00
   0.86000000E+00           0.00000000E+00
   0.87000000E+00           0.30000000E-06
   0.88000000E+00           0.00000000E+00
   0.89000000E+00           0.00000000E+00
   0.90000000E+00           0.50000000E-06
   0.91000000E+00           0.00000000E+00
   0.92000000E+00           0.00000000E+00
   0.93000000E+00           0.00000000E+00
   0.94000000E+00           0.10000000E-06
   0.95000000E+00           0.50000000E-06
   0.96000000E+00           0.10000000E-06
   0.97000000E+00           0.00000000E+00
   0.98000000E+00           0.00000000E+00
   0.99000000E+00           0.10000000E-05
   0.10000000E+01           0.14000000E-05
   0.10100000E+01           0.10000000E-06
   0.10200000E+01           0.10000000E-05
   0.10300000E+01           0.20000000E-06
   0.10400000E+01           0.70000000E-06
   0.10500000E+01           0.15000000E-05
   0.10600000E+01           0.14000000E-05
   0.10700000E+01           0.34000000E-05
   0.10800000E+01           0.39000000E-05
   0.10900000E+01           0.30000000E-05
   0.11000000E+01           0.39000000E-05
   0.11100000E+01           0.49000000E-05
   0.11200000E+01           0.61000000E-05
   0.11300000E+01           0.78000000E-05
   0.11400000E+01           0.10200000E-04
   0.11500000E+01           0.94000000E-05
   0.11600000E+01           0.14100000E-04
   0.11700000E+01           0.19200000E-04
   0.11800000E+01           0.21700000E-04
   0.11900000E+01           0.18900000E-04
   0.12000000E+01           0.19900000E-04
   0.12100000E+01           0.33800000E-04
   0.12200000E+01           0.25900000E-04
   0.12300000E+01           0.43800000E-04
   0.12400000E+01           0.48200000E-04
   0.12500000E+01           0.59000000E-04
   0.12600000E+01           0.69100000E-04
   0.12700000E+01           0.86300000E-04
   0.12800000E+01           0.10490000E-03
   0.12900000E+01           0.12450000E-03
   0.13000000E+01           0.13700000E-03
   0.13100000E+01           0.17160000E-03
   0.13200000E+01           0.21340000E-03
   0.13300000E+01           0.24670000E-03
   0.13400000E+01           0.28680000E-03
   0.13500000E+01           0.37270000E-03
   0.13600000E+01           0.42800000E-03
   0.13700000E+01           0.52270000E-03
   0.13800000E+01           0.59480000E-03
   0.13900000E+01           0.68520000E-03
   0.14000000E+01           0.83240000E-03
   0.14100000E+01           0.98990000E-03
   0.14200000E+01           0.11831000E-02
   0.14300000E+01           0.13396000E-02
   0.14400000E+01           0.15953000E-02
   0.14500000E+01           0.19050000E-02
   0.14600000E+01           0.22928000E-02
   0.14700000E+01           0.27844000E-02
   0.14800000E+01           0.32403000E-02
   0.14900000E+01           0.38585000E-02
   0.15000000E+01           0.45711000E-02
   0.15100000E+01           0.53947000E-02
   0.15200000E+01           0.63387000E-02
   0.15300000E+01           0.74712000E-02
   0.15400000E+01           0.90261000E-02
   0.15500000E+01           0.10507600E-01
   0.15600000E+01           0.12442400E-01
   0.15700000E+01           0.14710200E-01
   0.15800000E+01           0.17431900E-01
   0.15900000E+01           0.20654900E-01
   0.16000000E+01           0.24427600E-01
   0.16100000E+01           0.28698800E-01
   0.16200000E+01           0.34193400E-01
   0.16300000E+01           0.40205600E-01
   0.16400000E+01           0.47022900E-01
   0.16500000E+01           0.55763200E-01
   0.16600000E+01           0.65940000E-01
   0.16700000E+01           0.77337400E-01
   0.16800000E+01           0.91463700E-01
   0.16900000E+01           0.10774290E+00
   0.17000000E+01           0.12745450E+00
   0.17100000E+01           0.14994130E+00
   0.17200000E+01           0.17607740E+00
   0.17300000E+01           0.20768600E+00
   0.17400000E+01           0.24562590E+00
   0.17500000E+01           0.28713680E+00
   0.17600000E+01           0.33939130E+00
   0.17700000E+01           0.39919400E+00
   0.17800000E+01           0.46993040E+00
   0.17900000E+01           0.55171040E+00
   0.18000000E+01           0.65007420E+00
   0.18100000E+01           0.76281880E+00
   0.18200000E+01           0.89608570E+00
   0.18300000E+01           0.10560619E+01
   0.18400000E+01           0.12400783E+01
   0.18500000E+01           0.14582552E+01
   0.18600000E+01           0.17111916E+01
   0.18700000E+01           0.20082883E+01
   0.18800000E+01           0.23587499E+01
   0.18900000E+01           0.27690396E+01
   0.19000000E+01           0.32526296E+01
   0.19100000E+01           0.38141793E+01
   0.19200000E+01           0.44736720E+01
   0.19300000E+01           0.52503463E+01
   0.19400000E+01           0.61603899E+01
   0.19500000E+01           0.72163314E+01
   0.19600000E+01           0.84637085E+01
   0.19700000E+01           0.99133675E+01
   0.19800000E+01           0.11618125E+02
   0.19900000E+01           0.13614165E+02
   0.20000000E+01           0.76525194E+01
 #T=     2.0000
  -0.20000000E+01           0.00000000E+00
  -0.19900000E+01           0.00000000E+00
  -0.19800000E+01           0.00000000E+00
  -0.19700000E+01           0.00000000E+00
  -0.19600000E+01           0.00000000E+00
  -0.19500000E+01           0.00000000E+00
  -0.19400000E+01           0.00000000E+00
  -0.19300000E+01           0.00000000E+00
  -0.19200000E+01           0.00000000E+00
  -0.19100000E+01           0.00000000E+00
  -0.19000000E+01           0.00000000E+00
  -0.18900000E+01           0.00000000E+00
  -0.18800000E+01           0.00000000E+00
  -0.18700000E+01           0.00000000E+00
  -0.18600000E+01           0.00000000E+00
  -0.18500000E+01           0.00000000E+00
  -0.18400000E+01           0.00000000E+00
  -0.18300000E+01           0.00000000E+00
  -0.18200000E+01           0.00000000E+00
  -0.18100000E+01           0.00000000E+00
  -0.18000000E+01           0.00000000E+00
  -0.17900000E+01           0.00000000E+00
  -0.17800000E+01           0.00000000E+00
  -0.17700000E+01           0.00000000E+00
  -0.17600000E+01           0.00000000E+00
  -0.17500000E+01           0.00000000E+00
  -0.17400000E+01           0.00000000E+00
  -0.17300000E+01           0.00000000E+00
  -0.17200000E+01           0.00000000E+00
  -0.17100000E+01           0.00000000E+00
  -0.17000000E+01           0.00000000E+00
  -0.16900000E+01           0.00000000E+00
  -0.16800000E+01           0.00000000E+00
  -0.16700000E+01           0.00000000E+00
  -0.16600000E+01           0.00000000E+00
  -0.16500000E+01           0.00000000E+00
  -0.16400000E+01           0.00000000E+00
  -0.16300000E+01           0.00000000E+00
  -0.16200000E+01           0.00000000E+00
  -0.16100000E+01           0.00000000E+00
  -0.16000000E+01           0.00000000E+00
  -0.15900000E+01           0.00000000E+00
  -0.15800000E+01           0.00000000E+00
  -0.15700000E+01           0.00000000E+00
  -0.15600000E+01           0.00000000E+00
  -0.15500000E+01           0.00000000E+00
  -0.15400000E+01           0.00000000E+00
  -0.15300000E+01           0.00000000E+00
  -0.15200000E+01           0.00000000E+00
  -0.15100000E+01           0.00000000E+00
  -0.15000000E+01           0.00000000E+00
  -0.14900000E+01           0.00000000E+00
  -0.14800000E+01           0.00000000E+00
  -0.14700000E+01           0.00000000E+00
  -0.14600000E+01           0.00000000E+00
  -0.14500000E+01           0.00000000E+00
  -0.14400000E+01           0.00000000E+00
  -0.14300000E+01           0.00000000E+00
  -0.14200000E+01           0.00000000E+00
  -0.14100000E+01           0.00000000E+00
  -0.14000000E+01           0.00000000E+00
  -0.13900000E+01           0.00000000E+00
  -0.13800000E+01           0.00000000E+00
  -0.13700000E+01           0.00000000E+00
  -0.13600000E+01           0.00000000E+00
  -0.13500000E+01           0.00000000E+00
  -0.13400000E+01           0.00000000E+00
  -0.13300000E+01           0.00000000E+00
  -0.13200000E+01           0.00000000E+00
  -0.13100000E+01           0.00000000E+00
  -0.13000000E+01           0.00000000E+00
  -0.12900000E+01           0.00000000E+00
  -0.12800000E+01           0.00000000E+00
  -0.12700000E+01           0.00000000E+00
  -0.12600000E+01           0.00000000E+00
  -0.12500000E+01           0.00000000E+00
  -0.12400000E+01           0.00000000E+00
  -0.12300000E+01           0.00000000E+00
  -0.12200000E+01           0.00000000E+00
  -0.12100000E+01           0.00000000E+00
  -0.12000000E+01           0.00000000E+00
  -0.11900000E+01           0.00000000E+00
  -0.11800000E+01           0.00000000E+00
  -0.11700000E+01           0.00000000E+00
  -0.11600000E+01           0.00000000E+00
  -0.11500000E+01           0.00000000E+00
  -0.11400000E+01           0.00000000E+00
  -0.11300000E+01           0.00000000E+00
  -0.11200000E+01           0.00000000E+00
  -0.11100000E+01           0.00000000E+00
  -0.11000000E+01           0.00000000E+00
  -0.10900000E+01           0.00000000E+00
  -0.10800000E+01           0.00000000E+00
  -0.10700000E+01           0.00000000E+00
  -0.10600000E+01           0.00000000E+00
  -0.10500000E+01           0.00000000E+00
  -0.10400000E+01           0.00000000E+00
  -0.10300000E+01           0.00000000E+00
  -0.10200000E+01           0.00000000E+00
  -0.10100000E+01           0.00000000E+00
  -0.10000000E+01           0.00000000E+00
  -0.99000000E+00           0.00000000E+00
  -0.98000000E+00           0.00000000E+00
  -0.97000000E+00           0.00000000E+00
  -0.96000000E+00           0.00000000E+00
  -0.95000000E+00           0.00000000E+00
  -0.94000000E+00           0.00000000E+00
  -0.93000000E+00           0.00000000E+00
  -0.92000000E+00           0.00000000E+00
  -0.91000000E+00           0.00000000E+00
  -0.90000000E+00           0.00000000E+00
  -0.89000000E+00           0.00000000E+00
  -0.88000000E+00           0.00000000E+00
  -0.87000000E+00           0.00000000E+00
  -0.86000000E+00           0.00000000E+00
  -0.85000000E+00           0.00000000E+00
  -0.84000000E+00           0.00000000E+00
  -0.83000000E+00           0.00000000E+00
  -0.82000000E+00           0.00000000E+00
  -0.81000000E+00           0.00000000E+00
  -0.80000000E+00           0.00000000E+00
  -0.79000000E+00           0.00000000E+00
  -0.78000000E+00           0.00000000E+00
  -0.77000000E+00           0.00000000E+00
  -0.76000000E+00           0.00000000E+00
  -0.75000000E+00           0.00000000E+00
  -0.74000000E+00           0.00000000E+00
  -0.73000000E+00           0.00000000E+00
  -0.72000000E+00           0.00000000E+00
  -0.71000000E+00           0.00000000E+00
  -0.70000000E+00           0.00000000E+00
  -0.69000000E+00           0.00000000E+00
  -0.68000000E+00           0.00000000E+00
  -0.67000000E+00           0.00000000E+00
  -0.66000000E+00           0.00000000E+00
  -0.65000000E+00           0.00000000E+00
  -0.64000000E+00           0.00000000E+00
  -0.63000000E+00           0.00000000E+00
  -0.62000000E+00           0.00000000E+00
  -0.61000000E+00           0.00000000E+00
  -0.60000000E+00           0.00000000E+00
  -0.59000000E+00           0.00000000E+00
  -0.58000000E+00           0.00000000E+00
  -0.57000000E+00           0.00000000E+00
  -0.56000000E+00           0.00000000E+00
  -0.55000000E+00           0.00000000E+00
  -0.54000000E+00           0.00000000E+00
  -0.53000000E+00           0.00000000E+00
  -0.52000000E+00           0.00000000E+00
  -0.51000000E+00           0.00000000E+00
  -0.50000000E+00           0.00000000E+00
  -0.49000000E+00           0.00000000E+00
  -0.48000000E+00           0.00000000E+00
  -0.47000000E+00           0.00000000E+00
  -0.46000000E+00           0.00000000E+00
  -0.45000000E+00           0.00000000E+00
  -0.44000000E+00           0.00000000E+00
  -0.43000000E+00           0.00000000E+00
  -0.42000000E+00           0.00000000E+00
  -0.41000000E+00           0.00000000E+00
  -0.40000000E+00           0.00000000E+00
  -0.39000000E+00           0.00000000E+00
  -0.38000000E+00           0.00000000E+00
  -0.37000000E+00           0.00000000E+00
  -0.36000000E+00           0.00000000E+00
  -0.35000000E+00           0.00000000E+00
  -0.34000000E+00           0.00000000E+00
  -0.33000000E+00           0.00000000E+00
  -0.32000000E+00           0.00000000E+00
  -0.31000000E+00           0.00000000E+00
  -0.30000000E+00           0.00000000E+00
  -0.29000000E+00           0.00000000E+00
  -0.28000000E+00           0.00000000E+00
  -0.27000000E+00           0.00000000E+00
  -0.26000000E+00           0.00000000E+00
  -0.25000000E+00           0.00000000E+00
  -0.24000000E+00           0.00000000E+00
  -0.23000000E+00           0.00000000E+00
  -0.22000000E+00           0.00000000E+00
  -0.21000000E+00           0.00000000E+00
  -0.20000000E+00           0.00000000E+00
  -0.19000000E+00           0.00000000E+00
  -0.18000000E+00           0.00000000E+00
  -0.17000000E+00           0.00000000E+00
  -0.16000000E+00           0.00000000E+00
  -0.15000000E+00           0.00000000E+00
  -0.14000000E+00           0.00000000E+00
  -0.13000000E+00           0.00000000E+00
  -0.12000000E+00           0.00000000E+00
  -0.11000000E+00           0.00000000E+00
  -0.10000000E+00           0.00000000E+00
  -0.90000000E-01           0.00000000E+00
  -0.80000000E-01           0.00000000E+00
  -0.70000000E-01           0.00000000E+00
  -0.60000000E-01           0.00000000E+00
  -0.50000000E-01           0.00000000E+00
  -0.40000000E-01           0.00000000E+00
  -0.30000000E-01           0.00000000E+00
  -0.20000000E-01           0.00000000E+00
  -0.10000000E-01           0.00000000E+00
   0.00000000E+00           0.00000000E+00
   0.10000000E-01           0.00000000E+00
   0.20000000E-01           0.00000000E+00
   0.30000000E-01           0.00000000E+00
   0.40000000E-01           0.00000000E+00
   0.50000000E-01           0.00000000E+00
   0.60000000E-01           0.00000000E+00
   0.70000000E-01           0.00000000E+00
   0.80000000E-01           0.00000000E+00
   0.90000000E-01           0.00000000E+00
   0.10000000E+00           0.00000000E+00
   0.11000000E+00           0.00000000E+00
   0.12000000E+00           0.00000000E+00
   0.13000000E+00           0.00000000E+00
   0.14000000E+00           0.00000000E+00
   0.15000000E+00           0.00000000E+00
   0.16000000E+00           0.00000000E+00
   0.17000000E+00           0.00000000E+00
   0.18000000E+00           0.00000000E+00
   0.19000000E+00           0.00000000E+00
   0.20000000E+00           0.00000000E+00
   0.21000000E+00           0.00000000E+00
   0.22000000E+00           0.00000000E+00
   0.23000000E+00           0.00000000E+00
   0.24000000E+00           0.00000000E+00
   0.25000000E+00           0.00000000E+00
   0.26000000E+00           0.00000000E+00
   0.27000000E+00           0.00000000E+00
   0.28000000E+00           0.00000000E+00
   0.29000000E+00           0.00000000E+00
   0.30000000E+00           0.00000000E+00
   0.31000000E+00           0.00000000E+00
   0.32000000E+00           0.00000000E+00
   0.33000000E+00           0.00000000E+00
   0.34000000E+00           0.00000000E+00
   0.35000000E+00           0.00000000E+00
   0.36000000E+00           0.10000000E-06
   0.37000000E+00           0.00000000E+00
   0.38000000E+00           0.00000000E+00
   0.39000000E+00           0.00000000E+00
   0.40000000E+00           0.00000000E+00
   0.41000000E+00           0.00000000E+00
   0.42000000E+00           0.00000000E+00
   0.43000000E+00           0.00000000E+00
   0.44000000E+00           0.00000000E+00
   0.45000000E+00           0.00000000E+00
   0.46000000E+00           0.00000000E+00
   0.47000000E+00           0.00000000E+00
   0.48000000E+00           0.00000000E+00
   0.49000000E+00           0.00000000E+00
   0.50000000E+00           0.00000000E+00
   0.51000000E+00           0.00000000E+00
   0.52000000E+00           0.00000000E+00
   0.53000000E+00           0.00000000E+00
   0.54000000E+00           0.00000000E+00
   0.55000000E+00           0.00000000E+00
   0.56000000E+00           0.10000000E-06
   0.57000000E+00           0.00000000E+00
   0.58000000E+00           0.00000000E+00
   0.59000000E+00           0.10000000E-06
   0.60000000E+00           0.00000000E+00
   0.61000000E+00           0.00000000E+00
   0.62000000E+00           0.30000000E-06
   0.63000000E+00           0.00000000E+00
   0.64000000E+00           0.00000000E+00
   0.65000000E+00           0.70000000E-06
   0.66000000E+00           0.10000000E-06
   0.67000000E+00           0.10000000E-06
   0.68000000E+00           0.30000000E-06
   0.69000000E+00           0.20000000E-06
   0.70000000E+00           0.70000000E-06
   0.71000000E+00           0.40000000E-06
   0.72000000E+00           0.21000000E-05
   0.73000000E+00           0.60000000E-06
   0.74000000E+00           0.60000000E-06
   0.75000000E+00           0.21000000E-05
   0.76000000E+00           0.12000000E-05
   0.77000000E+00           0.24000000E-05
   0.78000000E+00           0.12000000E-05
   0.79000000E+00           0.35000000E-05
   0.80000000E+00           0.24000000E-05
   0.81000000E+00           0.35000000E-05
   0.82000000E+00           0.19000000E-05
   0.83000000E+00           0.38000000E-05
   0.84000000E+00           0.56000000E-05
   0.85000000E+00           0.65000000E-05
   0.86000000E+00           0.94000000E-05
   0.87000000E+00           0.88000000E-05
   0.88000000E+00           0.80000000E-05
   0.89000000E+00           0.95000000E-05
   0.90000000E+00           0.13500000E-04
   0.91000000E+00           0.13900000E-04
   0.92000000E+00           0.14500000E-04
   0.93000000E+00           0.17200000E-04
   0.94000000E+00           0.20600000E-04
   0.95000000E+00           0.25700000E-04
   0.96000000E+00           0.22400000E-04
   0.97000000E+00           0.31300000E-04
   0.98000000E+00           0.36500000E-04
   0.99000000E+00           0.38600000E-04
   0.10000000E+01           0.49100000E-04
   0.10100000E+01           0.55600000E-04
   0.10200000E+01           0.56300000E-04
   0.10300000E+01           0.65800000E-04
   0.10400000E+01           0.83500000E-04
   0.10500000E+01           0.89700000E-04
   0.10600000E+01           0.91700000E-04
   0.10700000E+01           0.10460000E-03
   0.10800000E+01           0.12670000E-03
   0.10900000E+01           0.13680000E-03
   0.11000000E+01           0.16490000E-03
   0.11100000E+01           0.19400000E-03
   0.11200000E+01           0.22270000E-03
   0.11300000E+01           0.24630000E-03
   0.11400000E+01           0.27500000E-03
   0.11500000E+01           0.33730000E-03
   0.11600000E+01           0.38940000E-03
   0.11700000E+01           0.40450000E-03
   0.11800000E+01           0.48890000E-03
   0.11900000E+01           0.53800000E-03
   0.12000000E+01           0.60980000E-03
   0.12100000E+01           0.69470000E-03
   0.12200000E+01           0.77060000E-03
   0.12300000E+01           0.90900000E-03
   0.12400000E+01           0.10841000E-02
   0.12500000E+01           0.11679000E-02
   0.12600000E+01           0.13167000E-02
   0.12700000E+01           0.15272000E-02
   0.12800000E+01           0.17484000E-02
   0.12900000E+01           0.20386000E-02
   0.13000000E+01           0.22619000E-02
   0.13100000E+01           0.26410000E-02
   0.13200000E+01           0.29723000E-02
   0.13300000E+01           0.33490000E-02
   0.13400000E+01           0.37584000E-02
   0.13500000E+01           0.41588000E-02
   0.13600000E+01           0.48671000E-02
   0.13700000E+01           0.54389000E-02
   0.13800000E+01           0.62900000E-02
   0.13900000E+01           0.71914000E-02
   0.14000000E+01           0.81007000E-02
   0.14100000E+01           0.91452000E-02
   0.14200000E+01           0.10404500E-01
   0.14300000E+01           0.11912600E-01
   0.14400000E+01           0.13333400E-01
   0.14500000E+01           0.15213200E-01
   0.14600000E+01           0.17215500E-01
   0.14700000E+01           0.19489500E-01
   0.14800000E+01           0.22166900E-01
   0.14900000E+01           0.25223100E-01
   0.15000000E+01           0.28760900E-01
   0.15100000E+01           0.32427800E-01
   0.15200000E+01           0.36284900E-01
   0.15300000E+01           0.41291100E-01
   0.15400000E+01           0.47041000E-01
   0.15500000E+01           0.52926700E-01
   0.15600000E+01           0.59987900E-01
   0.15700000E+01           0.67773400E-01
   0.15800000E+01           0.76569500E-01
   0.15900000E+01           0.86931300E-01
   0.16000000E+01           0.98058100E-01
   0.16100000E+01           0.11101870E+00
   0.16200000E+01           0.12632440E+00
   0.16300000E+01           0.14293100E+00
   0.16400000E+01           0.16112110E+00
   0.16500000E+01           0.18172440E+00
   0.16600000E+01           0.20567020E+00
   0.16700000E+01           0.23171180E+00
   0.16800000E+01           0.26153600E+00
   0.16900000E+01           0.29573830E+00
   0.17000000E+01           0.33359310E+00
   0.17100000E+01           0.37668080E+00
   0.17200000E+01           0.42522770E+00
   0.17300000E+01           0.47978900E+00
   0.17400000E+01           0.54182110E+00
   0.17500000E+01           0.61001560E+00
   0.17600000E+01           0.68853950E+00
   0.17700000E+01           0.77632860E+00
   0.17800000E+01           0.87521620E+00
   0.17900000E+01           0.98557820E+00
   0.18000000E+01           0.11137279E+01
   0.18100000E+01           0.12537401E+01
   0.18200000E+01           0.14114619E+01
   0.18300000E+01           0.15914689E+01
   0.18400000E+01           0.17919795E+01
   0.18500000E+01           0.20203215E+01
   0.18600000E+01           0.22756770E+01
   0.18700000E+01           0.25603863E+01
   0.18800000E+01           0.28808137E+01
   0.18900000E+01           0.32428597E+01
   0.19000000E+01           0.36456730E+01
   0.19100000E+01           0.41044434E+01
   0.19200000E+01           0.46158382E+01
   0.19300000E+01           0.51982325E+01
   0.19400000E+01           0.58426999E+01
   0.19500000E+01           0.65665179E+01
   0.19600000E+01           0.73849345E+01
   0.19700000E+01           0.83018224E+01
   0.19800000E+01           0.93369202E+01
   0.19900000E+01           0.10487779E+02
   0.20000000E+01           0.57226523E+01
 #T=     2.5000
  -0.20000000E+01           0.00000000E+00
  -0.19900000E+01           0.00000000E+00
  -0.19800000E+01           0.00000000E+00
  -0.19700000E+01           0.00000000E+00
  -0.19600000E+01           0.00000000E+00
  -0.19500000E+01           0.00000000E+00
  -0.19400000E+01           0.00000000E+00
  -0.19300000E+01           0.00000000E+00
  -0.19200000E+01           0.00000000E+00
  -0.19100000E+01           0.00000000E+00
  -0.19000000E+01           0.00000000E+00
  -0.18900000E+01           0.00000000E+00
  -0.18800000E+01           0.00000000E+00
  -0.18700000E+01           0.00000000E+00
  -0.18600000E+01           0.00000000E+00
  -0.18500000E+01           0.00000000E+00
  -0.18400000E+01           0.00000000E+00
  -0.18300000E+01           0.00000000E+00
  -0.18200000E+01           0.00000000E+00
  -0.18100000E+01           0.00000000E+00
  -0.18000000E+01           0.00000000E+00
  -0.17900000E+01           0.00000000E+00
  -0.17800000E+01           0.00000000E+00
  -0.17700000E+01           0.00000000E+00
  -0.17600000E+01           0.00000000E+00
  -0.17500000E+01           0.00000000E+00
  -0.17400000E+01           0.00000000E+00
  -0.17300000E+01           0.00000000E+00
  -0.17200000E+01           0.00000000E+00
  -0.17100000E+01           0.00000000E+00
  -0.17000000E+01           0.00000000E+00
  -0.16900000E+01           0.00000000E+00
  -0.16800000E+01           0.00000000E+00
  -0.16700000E+01           0.00000000E+00
  -0.16600000E+01           0.00000000E+00
  -0.16500000E+01           0.00000000E+00
  -0.16400000E+01           0.00000000E+00
  -0.16300000E+01           0.00000000E+00
  -0.16200000E+01           0.00000000E+00
  -0.16100000E+01           0.00000000E+00
  -0.16000000E+01           0.00000000E+00
  -0.15900000E+01           0.00000000E+00
  -0.15800000E+01           0.00000000E+00
  -0.15700000E+01           0.00000000E+00
  -0.15600000E+01           0.00000000E+00
  -0.15500000E+01           0.00000000E+00
  -0.15400000E+01           0.00000000E+00
  -0.15300000E+01           0.00000000E+00
  -0.15200000E+01           0.00000000E+00
  -0.15100000E+01           0.00000000E+00
  -0.15000000E+01           0.00000000E+00
  -0.14900000E+01           0.00000000E+00
  -0.14800000E+01           0.00000000E+00
  -0.14700000E+01           0.00000000E+00
  -0.14600000E+01           0.00000000E+00
  -0.14500000E+01           0.00000000E+00
  -0.14400000E+01           0.00000000E+00
  -0.14300000E+01           0.00000000E+00
  -0.14200000E+01           0.00000000E+00
  -0.14100000E+01           0.00000000E+00
  -0.14000000E+01           0.00000000E+00
  -0.13900000E+01           0.00000000E+00
  -0.13800000E+01           0.00000000E+00
  -0.13700000E+01           0.00000000E+00
  -0.13600000E+01           0.00000000E+00
  -0.13500000E+01           0.00000000E+00
  -0.13400000E+01           0.00000000E+00
  -0.13300000E+01           0.00000000E+00
  -0.13200000E+01           0.00000000E+00
  -0.13100000E+01           0.00000000E+00
  -0.13000000E+01           0.00000000E+00
  -0.12900000E+01           0.00000000E+00
  -0.12800000E+01           0.00000000E+00
  -0.12700000E+01           0.00000000E+00
  -0.12600000E+01           0.00000000E+00
  -0.12500000E+01           0.00000000E+00
  -0.12400000E+01           0.00000000E+00
  -0.12300000E+01           0.00000000E+00
  -0.12200000E+01           0.00000000E+00
  -0.12100000E+01           0.00000000E+00
  -0.12000000E+01           0.00000000E+00
  -0.11900000E+01           0.00000000E+00
  -0.11800000E+01           0.00000000E+00
  -0.11700000E+01           0.00000000E+00
  -0.11600000E+01           0.00000000E+00
  -0.11500000E+01           0.00000000E+00
  -0.11400000E+01           0.00000000E+00
  -0.11300000E+01           0.00000000E+00
  -0.11200000E+01           0.00000000E+00
  -0.11100000E+01           0.00000000E+00
  -0.11000000E+01           0.00000000E+00
  -0.10900000E+01           0.00000000E+00
  -0.10800000E+01           0.00000000E+00
  -0.10700000E+01           0.00000000E+00
  -0.10600000E+01           0.00000000E+00
  -0.10500000E+01           0.00000000E+00
  -0.10400000E+01           0.00000000E+00
  -0.10300000E+01           0.00000000E+00
  -0.10200000E+01           0.00000000E+00
  -0.10100000E+01           0.00000000E+00
  -0.10000000E+01           0.00000000E+00
  -0.99000000E+00           0.00000000E+00
  -0.98000000E+00           0.00000000E+00
  -0.97000000E+00           0.00000000E+00
  -0.96000000E+00           0.00000000E+00
  -0.95000000E+00           0.00000000E+00
  -0.94000000E+00           0.00000000E+00
  -0.93000000E+00           0.00000000E+00
  -0.92000000E+00           0.00000000E+00
  -0.91000000E+00           0.00000000E+00
  -0.90000000E+00           0.00000000E+00
  -0.89000000E+00           0.00000000E+00
  -0.88000000E+00           0.00000000E+00
  -0.87000000E+00           0.00000000E+00
  -0.86000000E+00           0.00000000E+00
  -0.85000000E+00           0.00000000E+00
  -0.84000000E+00           0.00000000E+00
  -0.83000000E+00           0.00000000E+00
  -0.82000000E+00           0.00000000E+00
  -0.81000000E+00           0.00000000E+00
  -0.80000000E+00           0.00000000E+00
  -0.79000000E+00           0.00000000E+00
  -0.78000000E+00           0.00000000E+00
  -0.77000000E+00           0.00000000E+00
  -0.76000000E+00           0.00000000E+00
  -0.75000000E+00           0.00000000E+00
  -0.74000000E+00           0.00000000E+00
  -0.73000000E+00           0.00000000E+00
  -0.72000000E+00           0.00000000E+00
  -0.71000000E+00           0.00000000E+00
  -0.70000000E+00           0.00000000E+00
  -0.69000000E+00           0.00000000E+00
  -0.68000000E+00           0.00000000E+00
  -0.67000000E+00           0.00000000E+00
  -0.66000000E+00           0.00000000E+00
  -0.65000000E+00           0.00000000E+00
  -0.64000000E+00           0.00000000E+00
  -0.63000000E+00           0.00000000E+00
  -0.62000000E+00           0.00000000E+00
  -0.61000000E+00           0.00000000E+00
  -0.60000000E+00           0.00000000E+00
  -0.59000000E+00           0.00000000E+00
  -0.58000000E+00           0.00000000E+00
  -0.57000000E+00           0.00000000E+00
  -0.56000000E+00           0.00000000E+00
  -0.55000000E+00           0.00000000E+00
  -0.54000000E+00           0.00000000E+00
  -0.53000000E+00           0.00000000E+00
  -0.52000000E+00           0.00000000E+00
  -0.51000000E+00           0.00000000E+00
  -0.50000000E+00           0.00000000E+00
  -0.49000000E+00           0.00000000E+00
  -0.48000000E+00           0.00000000E+00
  -0.47000000E+00           0.00000000E+00
  -0.46000000E+00           0.00000000E+00
  -0.45000000E+00           0.00000000E+00
  -0.44000000E+00           0.00000000E+00
  -0.43000000E+00           0.00000000E+00
  -0.42000000E+00           0.00000000E+00
  -0.41000000E+00           0.00000000E+00
  -0.40000000E+00           0.00000000E+00
  -0.39000000E+00           0.00000000E+00
  -0.38000000E+00           0.00000000E+00
  -0.37000000E+00           0.00000000E+00
  -0.36000000E+00           0.00000000E+00
  -0.35000000E+00           0.00000000E+00
  -0.34000000E+00           0.00000000E+00
  -0.33000000E+00           0.00000000E+00
  -0.32000000E+00           0.00000000E+00
  -0.31000000E+00           0.00000000E+00
  -0.30000000E+00           0.00000000E+00
  -0.29000000E+00           0.00000000E+00
  -0.28000000E+00           0.00000000E+00
  -0.27000000E+00           0.00000000E+00
  -0.26000000E+00           0.00000000E+00
  -0.25000000E+00           0.00000000E+00
  -0.24000000E+00           0.00000000E+00
  -0.23000000E+00           0.00000000E+00
  -0.22000000E+00           0.00000000E+00
  -0.21000000E+00           0.00000000E+00
  -0.20000000E+00           0.00000000E+00
  -0.19000000E+00           0.00000000E+00
  -0.18000000E+00           0.00000000E+00
  -0.17000000E+00           0.00000000E+00
  -0.16000000E+00           0.00000000E+00
  -0.15000000E+00           0.00000000E+00
  -0.14000000E+00           0.00000000E+00
  -0.13000000E+00           0.00000000E+00
  -0.12000000E+00           0.00000000E+00
  -0.11000000E+00           0.00000000E+00
  -0.10000000E+00           0.00000000E+00
  -0.90000000E-01           0.00000000E+00
  -0.80000000E-01           0.00000000E+00
  -0.70000000E-01           0.00000000E+00
  -0.60000000E-01           0.00000000E+00
  -0.50000000E-01           0.00000000E+00
  -0.40000000E-01           0.00000000E+00
  -0.30000000E-01           0.00000000E+00
  -0.20000000E-01           0.00000000E+00
  -0.10000000E-01           0.00000000E+00
   0.00000000E+00           0.00000000E+00
   0.10000000E-01           0.00000000E+00
   0.20000000E-01           0.00000000E+00
   0.30000000E-01           0.00000000E+00
   0.40000000E-01           0.00000000E+00
   0.50000000E-01           0.00000000E+00
   0.60000000E-01           0.00000000E+00
   0.70000000E-01           0.00000000E+00
   0.80000000E-01           0.00000000E+00
   0.90000000E-01           0.00000000E+00
   0.10000000E+00           0.00000000E+00
   0.11000000E+00           0.00000000E+00
   0.12000000E+00           0.00000000E+00
   0.13000000E+00           0.00000000E+00
   0.14000000E+00           0.00000000E+00
   0.15000000E+00           0.00000000E+00
   0.16000000E+00           0.00000000E+00
   0.17000000E+00           0.00000000E+00
   0.18000000E+00           0.00000000E+00
   0.19000000E+00           0.00000000E+00
   0.20000000E+00           0.00000000E+00
   0.21000000E+00           0.00000000E+00
   0.22000000E+00           0.00000000E+00
   0.23000000E+00           0.30000000E-06
   0.24000000E+00           0.00000000E+00
   0.25000000E+00           0.00000000E+00
   0.26000000E+00           0.00000000E+00
   0.27000000E+00           0.00000000E+00
   0.28000000E+00           0.10000000E-06
   0.29000000E+00           0.00000000E+00
   0.30000000E+00           0.00000000E+00
   0.31000000E+00           0.10000000E-06
   0.32000000E+00           0.00000000E+00
   0.33000000E+00           0.00000000E+00
   0.34000000E+00           0.60000000E-06
   0.35000000E+00           0.30000000E-06
   0.36000000E+00           0.40000000E-06
   0.37000000E+00           0.10000000E-06
   0.38000000E+00           0.20000000E-06
   0.39000000E+00           0.30000000E-06
   0.40000000E+00           0.50000000E-06
   0.41000000E+00           0.10000000E-06
   0.42000000E+00           0.14000000E-05
   0.43000000E+00           0.50000000E-06
   0.44000000E+00           0.50000000E-06
   0.45000000E+00           0.16000000E-05
   0.46000000E+00           0.11000000E-05
   0.47000000E+00           0.15000000E-05
   0.48000000E+00           0.13000000E-05
   0.49000000E+00           0.24000000E-05
[...]
   0.13800000E+01           0.68925850E+00
   0.13900000E+01           0.69460090E+00
   0.14000000E+01           0.69995690E+00
   0.14100000E+01           0.70506650E+00
   0.14200000E+01           0.70991880E+00
   0.14300000E+01           0.71526670E+00
   0.14400000E+01           0.72036780E+00
   0.14500000E+01           0.72581040E+00
   0.14600000E+01           0.73059360E+00
   0.14700000E+01           0.73612800E+00
   0.14800000E+01           0.74114610E+00
   0.14900000E+01           0.74675840E+00
   0.15000000E+01           0.75152840E+00
   0.15100000E+01           0.75659910E+00
   0.15200000E+01           0.76210390E+00
   0.15300000E+01           0.76694240E+00
   0.15400000E+01           0.77235950E+00
   0.15500000E+01           0.77723120E+00
   0.15600000E+01           0.78299260E+00
   0.15700000E+01           0.78798440E+00
   0.15800000E+01           0.79316210E+00
   0.15900000E+01           0.79817380E+00
   0.16000000E+01           0.80305970E+00
   0.16100000E+01           0.80906720E+00
   0.16200000E+01           0.81397910E+00
   0.16300000E+01           0.81857100E+00
   0.16400000E+01           0.82422540E+00
   0.16500000E+01           0.83020740E+00
   0.16600000E+01           0.83500080E+00
   0.16700000E+01           0.84040520E+00
   0.16800000E+01           0.84551440E+00
   0.16900000E+01           0.85054050E+00
   0.17000000E+01           0.85575630E+00
   0.17100000E+01           0.86118170E+00
   0.17200000E+01           0.86658690E+00
   0.17300000E+01           0.87158410E+00
   0.17400000E+01           0.87733950E+00
   0.17500000E+01           0.88254230E+00
   0.17600000E+01           0.88788830E+00
   0.17700000E+01           0.89297040E+00
   0.17800000E+01           0.89821750E+00
   0.17900000E+01           0.90348180E+00
   0.18000000E+01           0.90867030E+00
   0.18100000E+01           0.91364550E+00
   0.18200000E+01           0.91995750E+00
   0.18300000E+01           0.92506740E+00
   0.18400000E+01           0.93105170E+00
   0.18500000E+01           0.93557430E+00
   0.18600000E+01           0.94094550E+00
   0.18700000E+01           0.94591820E+00
   0.18800000E+01           0.95174400E+00
   0.18900000E+01           0.95696400E+00
   0.19000000E+01           0.96263850E+00
   0.19100000E+01           0.96814110E+00
   0.19200000E+01           0.97292530E+00
   0.19300000E+01           0.97830810E+00
   0.19400000E+01           0.98429400E+00
   0.19500000E+01           0.98891650E+00
   0.19600000E+01           0.99412820E+00
   0.19700000E+01           0.99964530E+00
   0.19800000E+01           0.10057799E+01
   0.19900000E+01           0.10104890E+01
   0.20000000E+01           0.50740370E+00
 #T=    40.0000
  -0.20000000E+01           0.00000000E+00
  -0.19900000E+01           0.00000000E+00
  -0.19800000E+01           0.00000000E+00
  -0.19700000E+01           0.00000000E+00
  -0.19600000E+01           0.00000000E+00
  -0.19500000E+01           0.00000000E+00
  -0.19400000E+01           0.00000000E+00
  -0.19300000E+01           0.00000000E+00
  -0.19200000E+01           0.00000000E+00
  -0.19100000E+01           0.00000000E+00
  -0.19000000E+01           0.00000000E+00
  -0.18900000E+01           0.00000000E+00
  -0.18800000E+01           0.00000000E+00
  -0.18700000E+01           0.00000000E+00
  -0.18600000E+01           0.00000000E+00
  -0.18500000E+01           0.00000000E+00
  -0.18400000E+01           0.00000000E+00
  -0.18300000E+01           0.00000000E+00
  -0.18200000E+01           0.00000000E+00
  -0.18100000E+01           0.00000000E+00
  -0.18000000E+01           0.00000000E+00
  -0.17900000E+01           0.00000000E+00
  -0.17800000E+01           0.00000000E+00
  -0.17700000E+01           0.00000000E+00
  -0.17600000E+01           0.00000000E+00
  -0.17500000E+01           0.00000000E+00
  -0.17400000E+01           0.00000000E+00
  -0.17300000E+01           0.00000000E+00
  -0.17200000E+01           0.00000000E+00
  -0.17100000E+01           0.00000000E+00
  -0.17000000E+01           0.00000000E+00
  -0.16900000E+01           0.00000000E+00
  -0.16800000E+01           0.00000000E+00
  -0.16700000E+01           0.00000000E+00
  -0.16600000E+01           0.00000000E+00
  -0.16500000E+01           0.00000000E+00
  -0.16400000E+01           0.00000000E+00
  -0.16300000E+01           0.00000000E+00
  -0.16200000E+01           0.00000000E+00
  -0.16100000E+01           0.00000000E+00
  -0.16000000E+01           0.00000000E+00
  -0.15900000E+01           0.00000000E+00
  -0.15800000E+01           0.00000000E+00
  -0.15700000E+01           0.00000000E+00
  -0.15600000E+01           0.00000000E+00
  -0.15500000E+01           0.00000000E+00
  -0.15400000E+01           0.00000000E+00
  -0.15300000E+01           0.00000000E+00
  -0.15200000E+01           0.00000000E+00
  -0.15100000E+01           0.00000000E+00
  -0.15000000E+01           0.00000000E+00
  -0.14900000E+01           0.00000000E+00
  -0.14800000E+01           0.00000000E+00
  -0.14700000E+01           0.00000000E+00
  -0.14600000E+01           0.00000000E+00
  -0.14500000E+01           0.00000000E+00
  -0.14400000E+01           0.00000000E+00
  -0.14300000E+01           0.00000000E+00
  -0.14200000E+01           0.00000000E+00
  -0.14100000E+01           0.00000000E+00
  -0.14000000E+01           0.00000000E+00
  -0.13900000E+01           0.00000000E+00
  -0.13800000E+01           0.00000000E+00
  -0.13700000E+01           0.00000000E+00
  -0.13600000E+01           0.00000000E+00
  -0.13500000E+01           0.00000000E+00
  -0.13400000E+01           0.00000000E+00
  -0.13300000E+01           0.00000000E+00
  -0.13200000E+01           0.00000000E+00
  -0.13100000E+01           0.00000000E+00
  -0.13000000E+01           0.00000000E+00
  -0.12900000E+01           0.00000000E+00
  -0.12800000E+01           0.00000000E+00
  -0.12700000E+01           0.00000000E+00
  -0.12600000E+01           0.00000000E+00
  -0.12500000E+01           0.00000000E+00
  -0.12400000E+01           0.00000000E+00
  -0.12300000E+01           0.00000000E+00
  -0.12200000E+01           0.00000000E+00
  -0.12100000E+01           0.00000000E+00
  -0.12000000E+01           0.00000000E+00
  -0.11900000E+01           0.00000000E+00
  -0.11800000E+01           0.00000000E+00
  -0.11700000E+01           0.00000000E+00
  -0.11600000E+01           0.00000000E+00
  -0.11500000E+01           0.00000000E+00
  -0.11400000E+01           0.00000000E+00
  -0.11300000E+01           0.00000000E+00
  -0.11200000E+01           0.00000000E+00
  -0.11100000E+01           0.00000000E+00
  -0.11000000E+01           0.00000000E+00
  -0.10900000E+01           0.00000000E+00
  -0.10800000E+01           0.00000000E+00
  -0.10700000E+01           0.00000000E+00
  -0.10600000E+01           0.00000000E+00
  -0.10500000E+01           0.00000000E+00
  -0.10400000E+01           0.00000000E+00
  -0.10300000E+01           0.00000000E+00
  -0.10200000E+01           0.00000000E+00
  -0.10100000E+01           0.00000000E+00
  -0.10000000E+01           0.00000000E+00
  -0.99000000E+00           0.00000000E+00
  -0.98000000E+00           0.00000000E+00
  -0.97000000E+00           0.00000000E+00
  -0.96000000E+00           0.00000000E+00
  -0.95000000E+00           0.00000000E+00
  -0.94000000E+00           0.00000000E+00
  -0.93000000E+00           0.00000000E+00
  -0.92000000E+00           0.00000000E+00
  -0.91000000E+00           0.00000000E+00
  -0.90000000E+00           0.00000000E+00
  -0.89000000E+00           0.00000000E+00
  -0.88000000E+00           0.00000000E+00
  -0.87000000E+00           0.00000000E+00
  -0.86000000E+00           0.00000000E+00
  -0.85000000E+00           0.00000000E+00
  -0.84000000E+00           0.00000000E+00
  -0.83000000E+00           0.00000000E+00
  -0.82000000E+00           0.00000000E+00
  -0.81000000E+00           0.00000000E+00
  -0.80000000E+00           0.00000000E+00
  -0.79000000E+00           0.00000000E+00
  -0.78000000E+00           0.00000000E+00
  -0.77000000E+00           0.00000000E+00
  -0.76000000E+00           0.00000000E+00
  -0.75000000E+00           0.00000000E+00
  -0.74000000E+00           0.00000000E+00
  -0.73000000E+00           0.00000000E+00
  -0.72000000E+00           0.00000000E+00
  -0.71000000E+00           0.00000000E+00
  -0.70000000E+00           0.00000000E+00
  -0.69000000E+00           0.00000000E+00
  -0.68000000E+00           0.00000000E+00
  -0.67000000E+00           0.00000000E+00
  -0.66000000E+00           0.00000000E+00
  -0.65000000E+00           0.00000000E+00
  -0.64000000E+00           0.00000000E+00
  -0.63000000E+00           0.00000000E+00
  -0.62000000E+00           0.00000000E+00
  -0.61000000E+00           0.00000000E+00
  -0.60000000E+00           0.00000000E+00
  -0.59000000E+00           0.00000000E+00
  -0.58000000E+00           0.00000000E+00
  -0.57000000E+00           0.00000000E+00
  -0.56000000E+00           0.00000000E+00
  -0.55000000E+00           0.00000000E+00
  -0.54000000E+00           0.00000000E+00
  -0.53000000E+00           0.00000000E+00
  -0.52000000E+00           0.00000000E+00
  -0.51000000E+00           0.00000000E+00
  -0.50000000E+00           0.00000000E+00
  -0.49000000E+00           0.00000000E+00
  -0.48000000E+00           0.00000000E+00
  -0.47000000E+00           0.00000000E+00
  -0.46000000E+00           0.00000000E+00
  -0.45000000E+00           0.00000000E+00
  -0.44000000E+00           0.00000000E+00
  -0.43000000E+00           0.00000000E+00
  -0.42000000E+00           0.00000000E+00
  -0.41000000E+00           0.00000000E+00
  -0.40000000E+00           0.00000000E+00
  -0.39000000E+00           0.00000000E+00
  -0.38000000E+00           0.00000000E+00
  -0.37000000E+00           0.00000000E+00
  -0.36000000E+00           0.00000000E+00
  -0.35000000E+00           0.00000000E+00
  -0.34000000E+00           0.00000000E+00
  -0.33000000E+00           0.00000000E+00
  -0.32000000E+00           0.00000000E+00
  -0.31000000E+00           0.00000000E+00
  -0.30000000E+00           0.00000000E+00
  -0.29000000E+00           0.00000000E+00
  -0.28000000E+00           0.00000000E+00
  -0.27000000E+00           0.00000000E+00
  -0.26000000E+00           0.00000000E+00
  -0.25000000E+00           0.00000000E+00
  -0.24000000E+00           0.00000000E+00
  -0.23000000E+00           0.00000000E+00
  -0.22000000E+00           0.00000000E+00
  -0.21000000E+00           0.00000000E+00
  -0.20000000E+00           0.00000000E+00
  -0.19000000E+00           0.00000000E+00
  -0.18000000E+00           0.00000000E+00
  -0.17000000E+00           0.00000000E+00
  -0.16000000E+00           0.00000000E+00
  -0.15000000E+00           0.00000000E+00
  -0.14000000E+00           0.00000000E+00
  -0.13000000E+00           0.00000000E+00
  -0.12000000E+00           0.00000000E+00
  -0.11000000E+00           0.00000000E+00
  -0.10000000E+00           0.00000000E+00
  -0.90000000E-01           0.00000000E+00
  -0.80000000E-01           0.00000000E+00
  -0.70000000E-01           0.00000000E+00
  -0.60000000E-01           0.00000000E+00
  -0.50000000E-01           0.00000000E+00
  -0.40000000E-01           0.00000000E+00
  -0.30000000E-01           0.00000000E+00
  -0.20000000E-01           0.00000000E+00
  -0.10000000E-01           0.00000000E+00
   0.00000000E+00           0.61730000E-03
   0.10000000E-01           0.48980000E-02
   0.20000000E-01           0.98327000E-02
   0.30000000E-01           0.14759000E-01
   0.40000000E-01           0.19628900E-01
   0.50000000E-01           0.24621900E-01
   0.60000000E-01           0.29539400E-01
   0.70000000E-01           0.34525900E-01
   0.80000000E-01           0.39429800E-01
   0.90000000E-01           0.44276500E-01
   0.10000000E+00           0.49164000E-01
   0.11000000E+00           0.54207800E-01
   0.12000000E+00           0.59064900E-01
   0.13000000E+00           0.63986200E-01
   0.14000000E+00           0.68918300E-01
   0.15000000E+00           0.73688000E-01
   0.16000000E+00           0.78576500E-01
   0.17000000E+00           0.83679200E-01
   0.18000000E+00           0.88702100E-01
   0.19000000E+00           0.93527000E-01
   0.20000000E+00           0.98404000E-01
   0.21000000E+00           0.10331470E+00
   0.22000000E+00           0.10841510E+00
   0.23000000E+00           0.11339560E+00
   0.24000000E+00           0.11818050E+00
   0.25000000E+00           0.12321810E+00
   0.26000000E+00           0.12804930E+00
   0.27000000E+00           0.13285570E+00
   0.28000000E+00           0.13813770E+00
   0.29000000E+00           0.14270910E+00
   0.30000000E+00           0.14792760E+00
   0.31000000E+00           0.15256140E+00
   0.32000000E+00           0.15752540E+00
   0.33000000E+00           0.16252380E+00
   0.34000000E+00           0.16752370E+00
   0.35000000E+00           0.17249470E+00
   0.36000000E+00           0.17732240E+00
   0.37000000E+00           0.18196990E+00
   0.38000000E+00           0.18697550E+00
   0.39000000E+00           0.19204040E+00
   0.40000000E+00           0.19711140E+00
   0.41000000E+00           0.20207880E+00
   0.42000000E+00           0.20698700E+00
   0.43000000E+00           0.21187590E+00
   0.44000000E+00           0.21703880E+00
   0.45000000E+00           0.22176310E+00
   0.46000000E+00           0.22675070E+00
   0.47000000E+00           0.23175680E+00
   0.48000000E+00           0.23647610E+00
   0.49000000E+00           0.24160880E+00
   0.50000000E+00           0.24645530E+00
   0.51000000E+00           0.25144320E+00
   0.52000000E+00           0.25667290E+00
   0.53000000E+00           0.26124070E+00
   0.54000000E+00           0.26636200E+00
   0.55000000E+00           0.27142720E+00
   0.56000000E+00           0.27659870E+00
   0.57000000E+00           0.28131230E+00
   0.58000000E+00           0.28628040E+00
   0.59000000E+00           0.29101860E+00
   0.60000000E+00           0.29657510E+00
   0.61000000E+00           0.30074790E+00
   0.62000000E+00           0.30593640E+00
   0.63000000E+00           0.31056190E+00
   0.64000000E+00           0.31567640E+00
   0.65000000E+00           0.32138040E+00
   0.66000000E+00           0.32605530E+00
   0.67000000E+00           0.33095830E+00
   0.68000000E+00           0.33569390E+00
   0.69000000E+00           0.34069560E+00
   0.70000000E+00           0.34606210E+00
   0.71000000E+00           0.35116450E+00
   0.72000000E+00           0.35589150E+00
   0.73000000E+00           0.36090620E+00
   0.74000000E+00           0.36618450E+00
   0.75000000E+00           0.37049410E+00
   0.76000000E+00           0.37573700E+00
   0.77000000E+00           0.38076560E+00
   0.78000000E+00           0.38540020E+00
   0.79000000E+00           0.39058640E+00
   0.80000000E+00           0.39612580E+00
   0.81000000E+00           0.40043160E+00
   0.82000000E+00           0.40560440E+00
   0.83000000E+00           0.41109940E+00
   0.84000000E+00           0.41566430E+00
   0.85000000E+00           0.42069740E+00
   0.86000000E+00           0.42561120E+00
   0.87000000E+00           0.43078650E+00
   0.88000000E+00           0.43591950E+00
   0.89000000E+00           0.44098450E+00
   0.90000000E+00           0.44569510E+00
   0.91000000E+00           0.45056260E+00
   0.92000000E+00           0.45588280E+00
   0.93000000E+00           0.46112430E+00
   0.94000000E+00           0.46618970E+00
   0.95000000E+00           0.47064780E+00
   0.96000000E+00           0.47630320E+00
   0.97000000E+00           0.48123240E+00
   0.98000000E+00           0.48611240E+00
   0.99000000E+00           0.49095740E+00
   0.10000000E+01           0.49607990E+00
   0.10100000E+01           0.50057740E+00
   0.10200000E+01           0.50627590E+00
   0.10300000E+01           0.51110420E+00
   0.10400000E+01           0.51572360E+00
   0.10500000E+01           0.52094480E+00
   0.10600000E+01           0.52611860E+00
   0.10700000E+01           0.53149240E+00
   0.10800000E+01           0.53666480E+00
   0.10900000E+01           0.54172080E+00
   0.11000000E+01           0.54655080E+00
   0.11100000E+01           0.55143710E+00
   0.11200000E+01           0.55683110E+00
   0.11300000E+01           0.56241430E+00
   0.11400000E+01           0.56693860E+00
   0.11500000E+01           0.57214990E+00
   0.11600000E+01           0.57728810E+00
   0.11700000E+01           0.58237980E+00
   0.11800000E+01           0.58703550E+00
   0.11900000E+01           0.59198420E+00
   0.12000000E+01           0.59748290E+00
   0.12100000E+01           0.60239480E+00
   0.12200000E+01           0.60784890E+00
   0.12300000E+01           0.61310300E+00
   0.12400000E+01           0.61736380E+00
   0.12500000E+01           0.62276890E+00
   0.12600000E+01           0.62802330E+00
   0.12700000E+01           0.63334570E+00
   0.12800000E+01           0.63767440E+00
   0.12900000E+01           0.64295990E+00
   0.13000000E+01           0.64836480E+00
   0.13100000E+01           0.65381140E+00
   0.13200000E+01           0.65866540E+00
   0.13300000E+01           0.66364300E+00
   0.13400000E+01           0.66926690E+00
   0.13500000E+01           0.67379240E+00
   0.13600000E+01           0.67913020E+00
   0.13700000E+01           0.68468530E+00
   0.13800000E+01           0.68968600E+00
   0.13900000E+01           0.69452610E+00
   0.14000000E+01           0.70005640E+00
   0.14100000E+01           0.70463950E+00
   0.14200000E+01           0.70964680E+00
   0.14300000E+01           0.71544410E+00
   0.14400000E+01           0.72018040E+00
   0.14500000E+01           0.72601050E+00
   0.14600000E+01           0.73102420E+00
   0.14700000E+01           0.73580190E+00
   0.14800000E+01           0.74136860E+00
   0.14900000E+01           0.74628990E+00
   0.15000000E+01           0.75168520E+00
   0.15100000E+01           0.75651120E+00
   0.15200000E+01           0.76239990E+00
   0.15300000E+01           0.76712060E+00
   0.15400000E+01           0.77211500E+00
   0.15500000E+01           0.77674360E+00
   0.15600000E+01           0.78275420E+00
   0.15700000E+01           0.78800870E+00
   0.15800000E+01           0.79330960E+00
   0.15900000E+01           0.79772300E+00
   0.16000000E+01           0.80372490E+00
   0.16100000E+01           0.80859740E+00
   0.16200000E+01           0.81362610E+00
   0.16300000E+01           0.81879950E+00
   0.16400000E+01           0.82425770E+00
   0.16500000E+01           0.82984270E+00
   0.16600000E+01           0.83477790E+00
   0.16700000E+01           0.83968100E+00
   0.16800000E+01           0.84527170E+00
   0.16900000E+01           0.85055790E+00
   0.17000000E+01           0.85573340E+00
   0.17100000E+01           0.86146460E+00
   0.17200000E+01           0.86620910E+00
   0.17300000E+01           0.87173460E+00
   0.17400000E+01           0.87720210E+00
   0.17500000E+01           0.88254750E+00
   0.17600000E+01           0.88766730E+00
   0.17700000E+01           0.89271440E+00
   0.17800000E+01           0.89816240E+00
   0.17900000E+01           0.90362430E+00
   0.18000000E+01           0.90844930E+00
   0.18100000E+01           0.91387340E+00
   0.18200000E+01           0.91925650E+00
   0.18300000E+01           0.92517000E+00
   0.18400000E+01           0.92989940E+00
   0.18500000E+01           0.93575180E+00
   0.18600000E+01           0.94027510E+00
   0.18700000E+01           0.94610100E+00
   0.18800000E+01           0.95128530E+00
   0.18900000E+01           0.95679530E+00
   0.19000000E+01           0.96254580E+00
   0.19100000E+01           0.96758190E+00
   0.19200000E+01           0.97253100E+00
   0.19300000E+01           0.97827170E+00
   0.19400000E+01           0.98352480E+00
   0.19500000E+01           0.98845840E+00
   0.19600000E+01           0.99420660E+00
   0.19700000E+01           0.99955660E+00
   0.19800000E+01           0.10054001E+01
   0.19900000E+01           0.10102439E+01
   0.20000000E+01           0.50699110E+00
