 #written on 31Jul2024 at 13:33:14 
 #----------------------------------------------- MONTECARLO ---------------------------------------------------#
 # Temp      Magnetization     Energy_ave          C_M              Sus              U_E              U_M       #
 #--------------------------------------------------------------------------------------------------------------#
 677.0000   0.11746984E-01  -0.52434334E+03   0.21482418E+01   0.74757006E-04   0.66434735E+00   0.44264658E+00
 678.0000   0.11762181E-01  -0.52216509E+03   0.21512196E+01   0.74661018E-04   0.66431801E+00   0.44326285E+00
 679.0000   0.11769937E-01  -0.52003451E+03   0.21584569E+01   0.74785802E-04   0.66428346E+00   0.44277390E+00
 680.0000   0.11779165E-01  -0.51787576E+03   0.21662179E+01   0.74899576E-04   0.66424806E+00   0.44259403E+00
 681.0000   0.11798448E-01  -0.51573985E+03   0.21658250E+01   0.74756383E-04   0.66422104E+00   0.44344314E+00
 682.0000   0.11808288E-01  -0.51352946E+03   0.21769134E+01   0.74807374E-04   0.66418015E+00   0.44323928E+00
 683.0000   0.11820063E-01  -0.51136456E+03   0.21828131E+01   0.74928941E-04   0.66414598E+00   0.44292622E+00
 684.0000   0.11839892E-01  -0.50918133E+03   0.21867246E+01   0.75124083E-04   0.66411186E+00   0.44311932E+00
 685.0000   0.11849731E-01  -0.50700836E+03   0.21885213E+01   0.74955144E-04   0.66408034E+00   0.44376513E+00
 686.0000   0.11860872E-01  -0.50479326E+03   0.22002711E+01   0.74991291E-04   0.66403640E+00   0.44333970E+00
 687.0000   0.11870149E-01  -0.50257040E+03   0.22059465E+01   0.75032284E-04   0.66399845E+00   0.44339866E+00
 688.0000   0.11888148E-01  -0.50039556E+03   0.22165644E+01   0.75190425E-04   0.66395506E+00   0.44318549E+00
 689.0000   0.11901376E-01  -0.49820238E+03   0.22203224E+01   0.75325130E-04   0.66391783E+00   0.44287739E+00
 690.0000   0.11908710E-01  -0.49587440E+03   0.22300984E+01   0.75184442E-04   0.66387237E+00   0.44345905E+00
 691.0000   0.11921175E-01  -0.49367809E+03   0.22359088E+01   0.75335030E-04   0.66383170E+00   0.44324208E+00
 692.0000   0.11927646E-01  -0.49149618E+03   0.22440859E+01   0.75449043E-04   0.66378836E+00   0.44277171E+00
 693.0000   0.11949368E-01  -0.48921972E+03   0.22449042E+01   0.75432439E-04   0.66375118E+00   0.44325108E+00
 694.0000   0.11967026E-01  -0.48697264E+03   0.22550269E+01   0.75460587E-04   0.66370323E+00   0.44347637E+00
 695.0000   0.11980566E-01  -0.48471426E+03   0.22645970E+01   0.75552020E-04   0.66365474E+00   0.44371105E+00
 696.0000   0.11988927E-01  -0.48240279E+03   0.22757549E+01   0.75435350E-04   0.66360247E+00   0.44366863E+00
 697.0000   0.11999796E-01  -0.48014999E+03   0.22718546E+01   0.75501704E-04   0.66356961E+00   0.44362301E+00
 698.0000   0.12019240E-01  -0.47791137E+03   0.22810125E+01   0.75541616E-04   0.66352015E+00   0.44422070E+00
 699.0000   0.12031257E-01  -0.47562049E+03   0.22880998E+01   0.75645635E-04   0.66347107E+00   0.44368571E+00
 700.0000   0.12035984E-01  -0.47335532E+03   0.23020355E+01   0.75715217E-04   0.66341155E+00   0.44329043E+00
 701.0000   0.12056699E-01  -0.47103311E+03   0.23045307E+01   0.75921582E-04   0.66336636E+00   0.44326508E+00
 702.0000   0.12064693E-01  -0.46873071E+03   0.23174566E+01   0.75836882E-04   0.66330619E+00   0.44369383E+00
 703.0000   0.12074699E-01  -0.46639922E+03   0.23211752E+01   0.75872691E-04   0.66325699E+00   0.44330046E+00
 704.0000   0.12090258E-01  -0.46406676E+03   0.23269502E+01   0.75861364E-04   0.66320467E+00   0.44364025E+00
 705.0000   0.12105063E-01  -0.46175444E+03   0.23381235E+01   0.75924618E-04   0.66314399E+00   0.44386246E+00
 706.0000   0.12121608E-01  -0.45943202E+03   0.23392010E+01   0.76027786E-04   0.66309683E+00   0.44393776E+00
 707.0000   0.12132515E-01  -0.45697487E+03   0.23510984E+01   0.76178190E-04   0.66302943E+00   0.44340373E+00
 708.0000   0.12140046E-01  -0.45463211E+03   0.23642200E+01   0.76030543E-04   0.66296226E+00   0.44420803E+00
 709.0000   0.12161855E-01  -0.45227271E+03   0.23661453E+01   0.76199192E-04   0.66291032E+00   0.44403599E+00
 710.0000   0.12159684E-01  -0.44994442E+03   0.23741523E+01   0.76244897E-04   0.66284800E+00   0.44345936E+00
 711.0000   0.12185191E-01  -0.44756590E+03   0.23814980E+01   0.76355023E-04   0.66278494E+00   0.44378802E+00
 712.0000   0.12197847E-01  -0.44520245E+03   0.23910310E+01   0.76429457E-04   0.66271550E+00   0.44369738E+00
 713.0000   0.12205787E-01  -0.44271155E+03   0.23956642E+01   0.76260350E-04   0.66265153E+00   0.44413106E+00
 714.0000   0.12217407E-01  -0.44035371E+03   0.23967084E+01   0.76470381E-04   0.66259654E+00   0.44358461E+00
 715.0000   0.12227678E-01  -0.43796915E+03   0.24097035E+01   0.76295048E-04   0.66251892E+00   0.44450596E+00
 716.0000   0.12244638E-01  -0.43554299E+03   0.24228152E+01   0.76566349E-04   0.66243874E+00   0.44391731E+00
 717.0000   0.12254134E-01  -0.43310838E+03   0.24288414E+01   0.76519179E-04   0.66236831E+00   0.44396975E+00
 718.0000   0.12276274E-01  -0.43069654E+03   0.24412780E+01   0.76708776E-04   0.66228647E+00   0.44386474E+00
 719.0000   0.12284452E-01  -0.42827220E+03   0.24450564E+01   0.76510637E-04   0.66221623E+00   0.44451426E+00
 720.0000   0.12303112E-01  -0.42585095E+03   0.24517934E+01   0.76731561E-04   0.66214182E+00   0.44400312E+00
 721.0000   0.12307161E-01  -0.42334370E+03   0.24586332E+01   0.76811175E-04   0.66206255E+00   0.44381115E+00
 722.0000   0.12319001E-01  -0.42088624E+03   0.24592970E+01   0.76755861E-04   0.66199368E+00   0.44367271E+00
 723.0000   0.12339137E-01  -0.41846778E+03   0.24622418E+01   0.76858911E-04   0.66192104E+00   0.44395825E+00
 724.0000   0.12351315E-01  -0.41593771E+03   0.24673102E+01   0.76919638E-04   0.66184089E+00   0.44414573E+00
 725.0000   0.12360991E-01  -0.41351508E+03   0.24709639E+01   0.77046314E-04   0.66176377E+00   0.44382638E+00
 726.0000   0.12381055E-01  -0.41105834E+03   0.24789911E+01   0.77024095E-04   0.66167383E+00   0.44414279E+00
 727.0000   0.12391210E-01  -0.40855982E+03   0.24815594E+01   0.77110966E-04   0.66159340E+00   0.44426842E+00
 728.0000   0.12400513E-01  -0.40608306E+03   0.24830438E+01   0.77154208E-04   0.66151347E+00   0.44414595E+00
 729.0000   0.12412851E-01  -0.40354691E+03   0.24824383E+01   0.77202994E-04   0.66143573E+00   0.44370900E+00
 730.0000   0.12418117E-01  -0.40106529E+03   0.24914595E+01   0.77181491E-04   0.66133595E+00   0.44414382E+00
 731.0000   0.12445293E-01  -0.39858835E+03   0.24898120E+01   0.77309132E-04   0.66125622E+00   0.44411200E+00
 732.0000   0.12457853E-01  -0.39613153E+03   0.24820684E+01   0.77340362E-04   0.66119161E+00   0.44407631E+00
 733.0000   0.12471176E-01  -0.39367305E+03   0.24819859E+01   0.77433523E-04   0.66110612E+00   0.44428128E+00
 734.0000   0.12475283E-01  -0.39117343E+03   0.24894496E+01   0.77426663E-04   0.66100149E+00   0.44394426E+00
 735.0000   0.12488569E-01  -0.38870980E+03   0.24752912E+01   0.77411895E-04   0.66094336E+00   0.44422126E+00
 736.0000   0.12505125E-01  -0.38624466E+03   0.24651110E+01   0.77636347E-04   0.66087688E+00   0.44390782E+00
 737.0000   0.12515247E-01  -0.38375201E+03   0.24552856E+01   0.77615467E-04   0.66080659E+00   0.44384591E+00
 738.0000   0.12534108E-01  -0.38124605E+03   0.24478410E+01   0.77597475E-04   0.66072806E+00   0.44436924E+00
 739.0000   0.12535675E-01  -0.37880126E+03   0.24449574E+01   0.77510848E-04   0.66063920E+00   0.44440334E+00
 740.0000   0.12558940E-01  -0.37638953E+03   0.24282479E+01   0.77690834E-04   0.66058415E+00   0.44453184E+00
 741.0000   0.12572074E-01  -0.37395912E+03   0.24070189E+01   0.77682087E-04   0.66053859E+00   0.44452594E+00
 742.0000   0.12583257E-01  -0.37158650E+03   0.23956257E+01   0.77949967E-04   0.66046878E+00   0.44391092E+00
 743.0000   0.12590893E-01  -0.36915353E+03   0.23768617E+01   0.77959458E-04   0.66041463E+00   0.44371106E+00
 744.0000   0.12603856E-01  -0.36679895E+03   0.23498366E+01   0.77974256E-04   0.66038527E+00   0.44382847E+00
 745.0000   0.12617483E-01  -0.36445016E+03   0.23241769E+01   0.78034805E-04   0.66035261E+00   0.44418599E+00
 746.0000   0.12631019E-01  -0.36207581E+03   0.22994256E+01   0.78098524E-04   0.66031509E+00   0.44394190E+00
 747.0000   0.12633864E-01  -0.35982380E+03   0.22687950E+01   0.78221303E-04   0.66030016E+00   0.44357340E+00
 748.0000   0.12647557E-01  -0.35746932E+03   0.22443000E+01   0.78038253E-04   0.66026321E+00   0.44449729E+00
 749.0000   0.12667583E-01  -0.35533208E+03   0.22127402E+01   0.78214273E-04   0.66025682E+00   0.44393043E+00
 750.0000   0.12677371E-01  -0.35313386E+03   0.21839367E+01   0.78251274E-04   0.66023847E+00   0.44426961E+00
 751.0000   0.12691899E-01  -0.35093535E+03   0.21495721E+01   0.78195725E-04   0.66023707E+00   0.44459305E+00
 752.0000   0.12700969E-01  -0.34879865E+03   0.21115819E+01   0.78289481E-04   0.66025231E+00   0.44429599E+00
 753.0000   0.12711788E-01  -0.34670373E+03   0.20791583E+01   0.78255748E-04   0.66025300E+00   0.44452432E+00
 754.0000   0.12719243E-01  -0.34467378E+03   0.20377551E+01   0.78322823E-04   0.66028672E+00   0.44417137E+00
 755.0000   0.12740337E-01  -0.34273822E+03   0.20018811E+01   0.78439579E-04   0.66030587E+00   0.44433968E+00
 756.0000   0.12744697E-01  -0.34077774E+03   0.19656205E+01   0.78475574E-04   0.66032743E+00   0.44380824E+00
