 #written on 31Jul2024 at 13:33:14 
 #----------------- MONTECARLO -------------------#
 #        M                      P(M)             #
 #------------------------------------------------#
 #T=   677.0000
  -0.40000000E+01           0.00000000E+00
  -0.39900000E+01           0.00000000E+00
  -0.39800000E+01           0.00000000E+00
  -0.39700000E+01           0.00000000E+00
  -0.39600000E+01           0.00000000E+00
  -0.39500000E+01           0.00000000E+00
  -0.39400000E+01           0.00000000E+00
  -0.39300000E+01           0.00000000E+00
  -0.39200000E+01           0.00000000E+00
  -0.39100000E+01           0.00000000E+00
  -0.39000000E+01           0.00000000E+00
  -0.38900000E+01           0.00000000E+00
  -0.38800000E+01           0.00000000E+00
  -0.38700000E+01           0.00000000E+00
  -0.38600000E+01           0.00000000E+00
  -0.38500000E+01           0.00000000E+00
  -0.38400000E+01           0.00000000E+00
  -0.38300000E+01           0.00000000E+00
  -0.38200000E+01           0.00000000E+00
  -0.38100000E+01           0.00000000E+00
  -0.38000000E+01           0.00000000E+00
  -0.37900000E+01           0.00000000E+00
  -0.37800000E+01           0.00000000E+00
  -0.37700000E+01           0.00000000E+00
  -0.37600000E+01           0.00000000E+00
  -0.37500000E+01           0.00000000E+00
  -0.37400000E+01           0.00000000E+00
  -0.37300000E+01           0.00000000E+00
  -0.37200000E+01           0.00000000E+00
  -0.37100000E+01           0.00000000E+00
  -0.37000000E+01           0.00000000E+00
  -0.36900000E+01           0.00000000E+00
  -0.36800000E+01           0.00000000E+00
  -0.36700000E+01           0.00000000E+00
  -0.36600000E+01           0.00000000E+00
  -0.36500000E+01           0.00000000E+00
  -0.36400000E+01           0.00000000E+00
  -0.36300000E+01           0.00000000E+00
  -0.36200000E+01           0.00000000E+00
  -0.36100000E+01           0.00000000E+00
  -0.36000000E+01           0.00000000E+00
  -0.35900000E+01           0.00000000E+00
  -0.35800000E+01           0.00000000E+00
  -0.35700000E+01           0.00000000E+00
  -0.35600000E+01           0.00000000E+00
  -0.35500000E+01           0.00000000E+00
  -0.35400000E+01           0.00000000E+00
  -0.35300000E+01           0.00000000E+00
  -0.35200000E+01           0.00000000E+00
  -0.35100000E+01           0.00000000E+00
  -0.35000000E+01           0.00000000E+00
  -0.34900000E+01           0.00000000E+00
  -0.34800000E+01           0.00000000E+00
  -0.34700000E+01           0.00000000E+00
  -0.34600000E+01           0.00000000E+00
  -0.34500000E+01           0.00000000E+00
  -0.34400000E+01           0.00000000E+00
  -0.34300000E+01           0.00000000E+00
  -0.34200000E+01           0.00000000E+00
  -0.34100000E+01           0.00000000E+00
  -0.34000000E+01           0.00000000E+00
  -0.33900000E+01           0.00000000E+00
  -0.33800000E+01           0.00000000E+00
  -0.33700000E+01           0.00000000E+00
  -0.33600000E+01           0.00000000E+00
  -0.33500000E+01           0.00000000E+00
  -0.33400000E+01           0.00000000E+00
  -0.33300000E+01           0.00000000E+00
  -0.33200000E+01           0.00000000E+00
  -0.33100000E+01           0.00000000E+00
  -0.33000000E+01           0.00000000E+00
  -0.32900000E+01           0.00000000E+00
  -0.32800000E+01           0.00000000E+00
  -0.32700000E+01           0.00000000E+00
  -0.32600000E+01           0.00000000E+00
  -0.32500000E+01           0.00000000E+00
  -0.32400000E+01           0.00000000E+00
  -0.32300000E+01           0.00000000E+00
  -0.32200000E+01           0.00000000E+00
  -0.32100000E+01           0.00000000E+00
  -0.32000000E+01           0.00000000E+00
  -0.31900000E+01           0.00000000E+00
  -0.31800000E+01           0.00000000E+00
  -0.31700000E+01           0.00000000E+00
  -0.31600000E+01           0.00000000E+00
  -0.31500000E+01           0.00000000E+00
  -0.31400000E+01           0.00000000E+00
  -0.31300000E+01           0.00000000E+00
  -0.31200000E+01           0.00000000E+00
  -0.31100000E+01           0.00000000E+00
  -0.31000000E+01           0.00000000E+00
  -0.30900000E+01           0.00000000E+00
  -0.30800000E+01           0.00000000E+00
  -0.30700000E+01           0.00000000E+00
  -0.30600000E+01           0.00000000E+00
  -0.30500000E+01           0.00000000E+00
  -0.30400000E+01           0.00000000E+00
  -0.30300000E+01           0.00000000E+00
  -0.30200000E+01           0.00000000E+00
  -0.30100000E+01           0.00000000E+00
  -0.30000000E+01           0.00000000E+00
  -0.29900000E+01           0.00000000E+00
  -0.29800000E+01           0.00000000E+00
  -0.29700000E+01           0.00000000E+00
  -0.29600000E+01           0.00000000E+00
  -0.29500000E+01           0.00000000E+00
  -0.29400000E+01           0.00000000E+00
  -0.29300000E+01           0.00000000E+00
  -0.29200000E+01           0.00000000E+00
  -0.29100000E+01           0.00000000E+00
  -0.29000000E+01           0.00000000E+00
  -0.28900000E+01           0.00000000E+00
  -0.28800000E+01           0.00000000E+00
  -0.28700000E+01           0.00000000E+00
  -0.28600000E+01           0.00000000E+00
  -0.28500000E+01           0.00000000E+00
  -0.28400000E+01           0.00000000E+00
  -0.28300000E+01           0.00000000E+00
  -0.28200000E+01           0.00000000E+00
  -0.28100000E+01           0.00000000E+00
  -0.28000000E+01           0.00000000E+00
  -0.27900000E+01           0.00000000E+00
  -0.27800000E+01           0.00000000E+00
  -0.27700000E+01           0.00000000E+00
  -0.27600000E+01           0.00000000E+00
  -0.27500000E+01           0.00000000E+00
  -0.27400000E+01           0.00000000E+00
  -0.27300000E+01           0.00000000E+00
  -0.27200000E+01           0.00000000E+00
  -0.27100000E+01           0.00000000E+00
  -0.27000000E+01           0.00000000E+00
  -0.26900000E+01           0.00000000E+00
  -0.26800000E+01           0.00000000E+00
  -0.26700000E+01           0.00000000E+00
  -0.26600000E+01           0.00000000E+00
  -0.26500000E+01           0.00000000E+00
  -0.26400000E+01           0.00000000E+00
  -0.26300000E+01           0.00000000E+00
  -0.26200000E+01           0.00000000E+00
  -0.26100000E+01           0.00000000E+00
  -0.26000000E+01           0.00000000E+00
  -0.25900000E+01           0.00000000E+00
  -0.25800000E+01           0.00000000E+00
  -0.25700000E+01           0.00000000E+00
  -0.25600000E+01           0.00000000E+00
  -0.25500000E+01           0.00000000E+00
  -0.25400000E+01           0.00000000E+00
  -0.25300000E+01           0.00000000E+00
  -0.25200000E+01           0.00000000E+00
  -0.25100000E+01           0.00000000E+00
  -0.25000000E+01           0.00000000E+00
  -0.24900000E+01           0.00000000E+00
  -0.24800000E+01           0.00000000E+00
  -0.24700000E+01           0.00000000E+00
  -0.24600000E+01           0.00000000E+00
  -0.24500000E+01           0.00000000E+00
  -0.24400000E+01           0.00000000E+00
  -0.24300000E+01           0.00000000E+00
  -0.24200000E+01           0.00000000E+00
  -0.24100000E+01           0.00000000E+00
  -0.24000000E+01           0.00000000E+00
  -0.23900000E+01           0.00000000E+00
  -0.23800000E+01           0.00000000E+00
  -0.23700000E+01           0.00000000E+00
  -0.23600000E+01           0.00000000E+00
  -0.23500000E+01           0.00000000E+00
  -0.23400000E+01           0.00000000E+00
  -0.23300000E+01           0.00000000E+00
  -0.23200000E+01           0.00000000E+00
  -0.23100000E+01           0.00000000E+00
  -0.23000000E+01           0.00000000E+00
  -0.22900000E+01           0.00000000E+00
  -0.22800000E+01           0.00000000E+00
  -0.22700000E+01           0.00000000E+00
  -0.22600000E+01           0.00000000E+00
  -0.22500000E+01           0.00000000E+00
  -0.22400000E+01           0.00000000E+00
  -0.22300000E+01           0.00000000E+00
  -0.22200000E+01           0.00000000E+00
  -0.22100000E+01           0.00000000E+00
  -0.22000000E+01           0.00000000E+00
  -0.21900000E+01           0.00000000E+00
  -0.21800000E+01           0.00000000E+00
  -0.21700000E+01           0.00000000E+00
  -0.21600000E+01           0.00000000E+00
  -0.21500000E+01           0.00000000E+00
  -0.21400000E+01           0.00000000E+00
  -0.21300000E+01           0.00000000E+00
  -0.21200000E+01           0.00000000E+00
  -0.21100000E+01           0.00000000E+00
  -0.21000000E+01           0.00000000E+00
  -0.20900000E+01           0.00000000E+00
  -0.20800000E+01           0.00000000E+00
  -0.20700000E+01           0.00000000E+00
  -0.20600000E+01           0.00000000E+00
  -0.20500000E+01           0.00000000E+00
  -0.20400000E+01           0.00000000E+00
  -0.20300000E+01           0.00000000E+00
  -0.20200000E+01           0.00000000E+00
  -0.20100000E+01           0.00000000E+00
  -0.20000000E+01           0.00000000E+00
  -0.19900000E+01           0.00000000E+00
  -0.19800000E+01           0.00000000E+00
  -0.19700000E+01           0.00000000E+00
  -0.19600000E+01           0.00000000E+00
  -0.19500000E+01           0.00000000E+00
  -0.19400000E+01           0.00000000E+00
  -0.19300000E+01           0.00000000E+00
  -0.19200000E+01           0.00000000E+00
  -0.19100000E+01           0.00000000E+00
  -0.19000000E+01           0.00000000E+00
  -0.18900000E+01           0.00000000E+00
  -0.18800000E+01           0.00000000E+00
  -0.18700000E+01           0.00000000E+00
  -0.18600000E+01           0.00000000E+00
  -0.18500000E+01           0.00000000E+00
  -0.18400000E+01           0.00000000E+00
  -0.18300000E+01           0.00000000E+00
  -0.18200000E+01           0.00000000E+00
  -0.18100000E+01           0.00000000E+00
  -0.18000000E+01           0.00000000E+00
  -0.17900000E+01           0.00000000E+00
  -0.17800000E+01           0.00000000E+00
  -0.17700000E+01           0.00000000E+00
  -0.17600000E+01           0.00000000E+00
  -0.17500000E+01           0.00000000E+00
  -0.17400000E+01           0.00000000E+00
  -0.17300000E+01           0.00000000E+00
  -0.17200000E+01           0.00000000E+00
  -0.17100000E+01           0.00000000E+00
  -0.17000000E+01           0.00000000E+00
  -0.16900000E+01           0.00000000E+00
  -0.16800000E+01           0.00000000E+00
  -0.16700000E+01           0.00000000E+00
  -0.16600000E+01           0.00000000E+00
  -0.16500000E+01           0.00000000E+00
  -0.16400000E+01           0.00000000E+00
  -0.16300000E+01           0.00000000E+00
  -0.16200000E+01           0.00000000E+00
  -0.16100000E+01           0.00000000E+00
  -0.16000000E+01           0.00000000E+00
  -0.15900000E+01           0.00000000E+00
  -0.15800000E+01           0.00000000E+00
  -0.15700000E+01           0.00000000E+00
  -0.15600000E+01           0.00000000E+00
  -0.15500000E+01           0.00000000E+00
  -0.15400000E+01           0.00000000E+00
  -0.15300000E+01           0.00000000E+00
  -0.15200000E+01           0.00000000E+00
  -0.15100000E+01           0.00000000E+00
  -0.15000000E+01           0.00000000E+00
  -0.14900000E+01           0.00000000E+00
  -0.14800000E+01           0.00000000E+00
  -0.14700000E+01           0.00000000E+00
  -0.14600000E+01           0.00000000E+00
  -0.14500000E+01           0.00000000E+00
  -0.14400000E+01           0.00000000E+00
  -0.14300000E+01           0.00000000E+00
  -0.14200000E+01           0.00000000E+00
  -0.14100000E+01           0.00000000E+00
  -0.14000000E+01           0.00000000E+00
  -0.13900000E+01           0.00000000E+00
  -0.13800000E+01           0.00000000E+00
  -0.13700000E+01           0.00000000E+00
  -0.13600000E+01           0.00000000E+00
  -0.13500000E+01           0.00000000E+00
  -0.13400000E+01           0.00000000E+00
  -0.13300000E+01           0.00000000E+00
  -0.13200000E+01           0.00000000E+00
  -0.13100000E+01           0.00000000E+00
  -0.13000000E+01           0.00000000E+00
  -0.12900000E+01           0.00000000E+00
  -0.12800000E+01           0.00000000E+00
  -0.12700000E+01           0.00000000E+00
  -0.12600000E+01           0.00000000E+00
  -0.12500000E+01           0.00000000E+00
  -0.12400000E+01           0.00000000E+00
  -0.12300000E+01           0.00000000E+00
  -0.12200000E+01           0.00000000E+00
  -0.12100000E+01           0.00000000E+00
  -0.12000000E+01           0.00000000E+00
  -0.11900000E+01           0.00000000E+00
  -0.11800000E+01           0.00000000E+00
  -0.11700000E+01           0.00000000E+00
  -0.11600000E+01           0.00000000E+00
  -0.11500000E+01           0.00000000E+00
  -0.11400000E+01           0.00000000E+00
  -0.11300000E+01           0.00000000E+00
  -0.11200000E+01           0.00000000E+00
  -0.11100000E+01           0.00000000E+00
  -0.11000000E+01           0.00000000E+00
  -0.10900000E+01           0.00000000E+00
  -0.10800000E+01           0.00000000E+00
  -0.10700000E+01           0.00000000E+00
  -0.10600000E+01           0.00000000E+00
  -0.10500000E+01           0.00000000E+00
  -0.10400000E+01           0.00000000E+00
  -0.10300000E+01           0.00000000E+00
  -0.10200000E+01           0.00000000E+00
  -0.10100000E+01           0.00000000E+00
  -0.10000000E+01           0.00000000E+00
  -0.99000000E+00           0.00000000E+00
  -0.98000000E+00           0.00000000E+00
  -0.97000000E+00           0.00000000E+00
  -0.96000000E+00           0.00000000E+00
  -0.95000000E+00           0.00000000E+00
  -0.94000000E+00           0.00000000E+00
  -0.93000000E+00           0.00000000E+00
  -0.92000000E+00           0.00000000E+00
  -0.91000000E+00           0.00000000E+00
  -0.90000000E+00           0.00000000E+00
  -0.89000000E+00           0.00000000E+00
  -0.88000000E+00           0.00000000E+00
  -0.87000000E+00           0.00000000E+00
  -0.86000000E+00           0.00000000E+00
  -0.85000000E+00           0.00000000E+00
  -0.84000000E+00           0.00000000E+00
  -0.83000000E+00           0.00000000E+00
  -0.82000000E+00           0.00000000E+00
  -0.81000000E+00           0.00000000E+00
  -0.80000000E+00           0.00000000E+00
  -0.79000000E+00           0.00000000E+00
  -0.78000000E+00           0.00000000E+00
  -0.77000000E+00           0.00000000E+00
  -0.76000000E+00           0.00000000E+00
  -0.75000000E+00           0.00000000E+00
  -0.74000000E+00           0.00000000E+00
  -0.73000000E+00           0.00000000E+00
  -0.72000000E+00           0.00000000E+00
  -0.71000000E+00           0.00000000E+00
  -0.70000000E+00           0.00000000E+00
  -0.69000000E+00           0.00000000E+00
  -0.68000000E+00           0.00000000E+00
  -0.67000000E+00           0.00000000E+00
  -0.66000000E+00           0.00000000E+00
  -0.65000000E+00           0.00000000E+00
  -0.64000000E+00           0.00000000E+00
  -0.63000000E+00           0.00000000E+00
  -0.62000000E+00           0.00000000E+00
  -0.61000000E+00           0.00000000E+00
  -0.60000000E+00           0.00000000E+00
  -0.59000000E+00           0.00000000E+00
  -0.58000000E+00           0.00000000E+00
  -0.57000000E+00           0.00000000E+00
  -0.56000000E+00           0.00000000E+00
  -0.55000000E+00           0.00000000E+00
  -0.54000000E+00           0.00000000E+00
  -0.53000000E+00           0.00000000E+00
  -0.52000000E+00           0.00000000E+00
  -0.51000000E+00           0.00000000E+00
  -0.50000000E+00           0.00000000E+00
  -0.49000000E+00           0.00000000E+00
  -0.48000000E+00           0.00000000E+00
  -0.47000000E+00           0.00000000E+00
  -0.46000000E+00           0.00000000E+00
  -0.45000000E+00           0.00000000E+00
  -0.44000000E+00           0.00000000E+00
  -0.43000000E+00           0.00000000E+00
  -0.42000000E+00           0.00000000E+00
  -0.41000000E+00           0.00000000E+00
  -0.40000000E+00           0.00000000E+00
  -0.39000000E+00           0.00000000E+00
  -0.38000000E+00           0.00000000E+00
  -0.37000000E+00           0.00000000E+00
  -0.36000000E+00           0.00000000E+00
  -0.35000000E+00           0.00000000E+00
  -0.34000000E+00           0.00000000E+00
  -0.33000000E+00           0.00000000E+00
  -0.32000000E+00           0.00000000E+00
  -0.31000000E+00           0.00000000E+00
  -0.30000000E+00           0.00000000E+00
  -0.29000000E+00           0.00000000E+00
  -0.28000000E+00           0.00000000E+00
  -0.27000000E+00           0.00000000E+00
  -0.26000000E+00           0.00000000E+00
  -0.25000000E+00           0.00000000E+00
  -0.24000000E+00           0.00000000E+00
  -0.23000000E+00           0.00000000E+00
  -0.22000000E+00           0.00000000E+00
  -0.21000000E+00           0.00000000E+00
  -0.20000000E+00           0.00000000E+00
  -0.19000000E+00           0.00000000E+00
  -0.18000000E+00           0.00000000E+00
  -0.17000000E+00           0.00000000E+00
  -0.16000000E+00           0.00000000E+00
  -0.15000000E+00           0.00000000E+00
  -0.14000000E+00           0.00000000E+00
  -0.13000000E+00           0.00000000E+00
  -0.12000000E+00           0.00000000E+00
  -0.11000000E+00           0.00000000E+00
  -0.10000000E+00           0.00000000E+00
  -0.90000000E-01           0.00000000E+00
  -0.80000000E-01           0.00000000E+00
  -0.70000000E-01           0.00000000E+00
  -0.60000000E-01           0.00000000E+00
  -0.50000000E-01           0.00000000E+00
  -0.40000000E-01           0.00000000E+00
  -0.30000000E-01           0.00000000E+00
  -0.20000000E-01           0.00000000E+00
  -0.10000000E-01           0.00000000E+00
   0.00000000E+00           0.43945312E-05
   0.10000000E-01           0.11376953E-03
   0.20000000E-01           0.42958984E-03
   0.30000000E-01           0.94873047E-03
   0.40000000E-01           0.16674805E-02
   0.50000000E-01           0.26376953E-02
   0.60000000E-01           0.37306641E-02
   0.70000000E-01           0.50185547E-02
   0.80000000E-01           0.65261719E-02
   0.90000000E-01           0.81561523E-02
   0.10000000E+00           0.10058691E-01
   0.11000000E+00           0.12003906E-01
   0.12000000E+00           0.14232422E-01
   0.13000000E+00           0.16543750E-01
   0.14000000E+00           0.19007227E-01
   0.15000000E+00           0.21606543E-01
   0.16000000E+00           0.24375000E-01
   0.17000000E+00           0.27313379E-01
   0.18000000E+00           0.30441406E-01
   0.19000000E+00           0.33490332E-01
   0.20000000E+00           0.36794336E-01
   0.21000000E+00           0.40250195E-01
   0.22000000E+00           0.43949316E-01
   0.23000000E+00           0.47524805E-01
   0.24000000E+00           0.51417578E-01
   0.25000000E+00           0.55375098E-01
   0.26000000E+00           0.59375684E-01
   0.27000000E+00           0.63297070E-01
   0.28000000E+00           0.67767871E-01
   0.29000000E+00           0.72101758E-01
   0.30000000E+00           0.76431738E-01
   0.31000000E+00           0.80793750E-01
   0.32000000E+00           0.85449512E-01
   0.33000000E+00           0.90042090E-01
   0.34000000E+00           0.94763867E-01
   0.35000000E+00           0.99578906E-01
   0.36000000E+00           0.10446055E+00
   0.37000000E+00           0.10940039E+00
   0.38000000E+00           0.11438857E+00
   0.39000000E+00           0.11937568E+00
   0.40000000E+00           0.12455430E+00
   0.41000000E+00           0.12998330E+00
   0.42000000E+00           0.13497627E+00
   0.43000000E+00           0.14058447E+00
   0.44000000E+00           0.14572363E+00
   0.45000000E+00           0.15106133E+00
   0.46000000E+00           0.15659209E+00
   0.47000000E+00           0.16197227E+00
   0.48000000E+00           0.16770879E+00
   0.49000000E+00           0.17273223E+00
   0.50000000E+00           0.17852666E+00
   0.51000000E+00           0.18432764E+00
   0.52000000E+00           0.18998213E+00
   0.53000000E+00           0.19570215E+00
   0.54000000E+00           0.20118379E+00
   0.55000000E+00           0.20688027E+00
   0.56000000E+00           0.21223584E+00
   0.57000000E+00           0.21826230E+00
   0.58000000E+00           0.22381533E+00
   0.59000000E+00           0.22976602E+00
   0.60000000E+00           0.23530049E+00
   0.61000000E+00           0.24105908E+00
   0.62000000E+00           0.24669014E+00
   0.63000000E+00           0.25243193E+00
   0.64000000E+00           0.25847129E+00
   0.65000000E+00           0.26408252E+00
   0.66000000E+00           0.26952822E+00
   0.67000000E+00           0.27549902E+00
   0.68000000E+00           0.28092881E+00
   0.69000000E+00           0.28669043E+00
   0.70000000E+00           0.29260117E+00
   0.71000000E+00           0.29827705E+00
   0.72000000E+00           0.30386426E+00
   0.73000000E+00           0.30901289E+00
   0.74000000E+00           0.31495518E+00
   0.75000000E+00           0.32050811E+00
   0.76000000E+00           0.32580967E+00
   0.77000000E+00           0.33164990E+00
   0.78000000E+00           0.33712441E+00
   0.79000000E+00           0.34243369E+00
   0.80000000E+00           0.34783867E+00
   0.81000000E+00           0.35329873E+00
   0.82000000E+00           0.35855352E+00
   0.83000000E+00           0.36348789E+00
   0.84000000E+00           0.36914805E+00
   0.85000000E+00           0.37436016E+00
   0.86000000E+00           0.37908828E+00
   0.87000000E+00           0.38420391E+00
   0.88000000E+00           0.38928154E+00
   0.89000000E+00           0.39456309E+00
   0.90000000E+00           0.39913037E+00
   0.91000000E+00           0.40432510E+00
   0.92000000E+00           0.40883291E+00
   0.93000000E+00           0.41390420E+00
   0.94000000E+00           0.41848848E+00
   0.95000000E+00           0.42264561E+00
   0.96000000E+00           0.42773496E+00
   0.97000000E+00           0.43223936E+00
   0.98000000E+00           0.43723730E+00
   0.99000000E+00           0.44101631E+00
   0.10000000E+01           0.44545752E+00
   0.10100000E+01           0.44976777E+00
   0.10200000E+01           0.45396738E+00
   0.10300000E+01           0.45840576E+00
   0.10400000E+01           0.46233613E+00
   0.10500000E+01           0.46606162E+00
   0.10600000E+01           0.47020303E+00
   0.10700000E+01           0.47399639E+00
   0.10800000E+01           0.47771572E+00
   0.10900000E+01           0.48148789E+00
   0.11000000E+01           0.48532783E+00
   0.11100000E+01           0.48864941E+00
   0.11200000E+01           0.49235723E+00
   0.11300000E+01           0.49548906E+00
   0.11400000E+01           0.49876367E+00
   0.11500000E+01           0.50208604E+00
   0.11600000E+01           0.50515664E+00
   0.11700000E+01           0.50865088E+00
   0.11800000E+01           0.51109736E+00
   0.11900000E+01           0.51426865E+00
   0.12000000E+01           0.51701621E+00
   0.12100000E+01           0.52011709E+00
   0.12200000E+01           0.52268057E+00
   0.12300000E+01           0.52529668E+00
   0.12400000E+01           0.52793662E+00
   0.12500000E+01           0.53022158E+00
   0.12600000E+01           0.53260781E+00
   0.12700000E+01           0.53441514E+00
   0.12800000E+01           0.53703525E+00
   0.12900000E+01           0.53882314E+00
   0.13000000E+01           0.54083945E+00
   0.13100000E+01           0.54250410E+00
   0.13200000E+01           0.54437881E+00
   0.13300000E+01           0.54614258E+00
   0.13400000E+01           0.54785127E+00
   0.13500000E+01           0.54901143E+00
   0.13600000E+01           0.55068447E+00
   0.13700000E+01           0.55207441E+00
   0.13800000E+01           0.55341006E+00
   0.13900000E+01           0.55405439E+00
   0.14000000E+01           0.55535430E+00
   0.14100000E+01           0.55622363E+00
   0.14200000E+01           0.55723701E+00
   0.14300000E+01           0.55762646E+00
   0.14400000E+01           0.55807109E+00
   0.14500000E+01           0.55906963E+00
   0.14600000E+01           0.56017979E+00
   0.14700000E+01           0.56006719E+00
   0.14800000E+01           0.56043945E+00
   0.14900000E+01           0.56091436E+00
   0.15000000E+01           0.56100498E+00
   0.15100000E+01           0.56058535E+00
   0.15200000E+01           0.56078643E+00
   0.15300000E+01           0.56059023E+00
   0.15400000E+01           0.56039609E+00
   0.15500000E+01           0.55998799E+00
   0.15600000E+01           0.55925693E+00
   0.15700000E+01           0.55931904E+00
   0.15800000E+01           0.55859873E+00
   0.15900000E+01           0.55768086E+00
   0.16000000E+01           0.55703252E+00
   0.16100000E+01           0.55638506E+00
   0.16200000E+01           0.55480684E+00
   0.16300000E+01           0.55389697E+00
   0.16400000E+01           0.55300957E+00
   0.16500000E+01           0.55141553E+00
   0.16600000E+01           0.55004824E+00
   0.16700000E+01           0.54876641E+00
   0.16800000E+01           0.54753828E+00
   0.16900000E+01           0.54558730E+00
   0.17000000E+01           0.54393887E+00
   0.17100000E+01           0.54200029E+00
   0.17200000E+01           0.54013379E+00
   0.17300000E+01           0.53834727E+00
   0.17400000E+01           0.53600254E+00
   0.17500000E+01           0.53377754E+00
   0.17600000E+01           0.53167217E+00
   0.17700000E+01           0.52946416E+00
   0.17800000E+01           0.52696152E+00
   0.17900000E+01           0.52438135E+00
   0.18000000E+01           0.52203037E+00
   0.18100000E+01           0.51952295E+00
   0.18200000E+01           0.51666221E+00
   0.18300000E+01           0.51367549E+00
   0.18400000E+01           0.51105508E+00
   0.18500000E+01           0.50781592E+00
   0.18600000E+01           0.50473262E+00
   0.18700000E+01           0.50208311E+00
   0.18800000E+01           0.49852676E+00
   0.18900000E+01           0.49521211E+00
   0.19000000E+01           0.49185059E+00
   0.19100000E+01           0.48818506E+00
   0.19200000E+01           0.48466650E+00
   0.19300000E+01           0.48113740E+00
   0.19400000E+01           0.47742363E+00
   0.19500000E+01           0.47360703E+00
   0.19600000E+01           0.46988555E+00
   0.19700000E+01           0.46551172E+00
   0.19800000E+01           0.46151836E+00
   0.19900000E+01           0.45752490E+00
   0.20000000E+01           0.45346475E+00
   0.20100000E+01           0.44929209E+00
   0.20200000E+01           0.44519268E+00
   0.20300000E+01           0.44065625E+00
   0.20400000E+01           0.43651729E+00
   0.20500000E+01           0.43250117E+00
   0.20600000E+01           0.42813311E+00
   0.20700000E+01           0.42396514E+00
   0.20800000E+01           0.41989385E+00
   0.20900000E+01           0.41549463E+00
   0.21000000E+01           0.41106953E+00
   0.21100000E+01           0.40713262E+00
   0.21200000E+01           0.40273799E+00
   0.21300000E+01           0.39870947E+00
   0.21400000E+01           0.39415244E+00
   0.21500000E+01           0.38993896E+00
   0.21600000E+01           0.38562344E+00
   0.21700000E+01           0.38165137E+00
   0.21800000E+01           0.37708711E+00
   0.21900000E+01           0.37315244E+00
   0.22000000E+01           0.36870322E+00
   0.22100000E+01           0.36493467E+00
   0.22200000E+01           0.36080117E+00
   0.22300000E+01           0.35632559E+00
   0.22400000E+01           0.35171699E+00
   0.22500000E+01           0.34806992E+00
   0.22600000E+01           0.34415186E+00
   0.22700000E+01           0.33978408E+00
   0.22800000E+01           0.33549121E+00
   0.22900000E+01           0.33131523E+00
   0.23000000E+01           0.32712979E+00
   0.23100000E+01           0.32302187E+00
   0.23200000E+01           0.31918574E+00
   0.23300000E+01           0.31520693E+00
   0.23400000E+01           0.31096650E+00
   0.23500000E+01           0.30682695E+00
   0.23600000E+01           0.30285391E+00
   0.23700000E+01           0.29911152E+00
   0.23800000E+01           0.29478906E+00
   0.23900000E+01           0.29046387E+00
   0.24000000E+01           0.28709072E+00
   0.24100000E+01           0.28300225E+00
   0.24200000E+01           0.27915713E+00
   0.24300000E+01           0.27520469E+00
   0.24400000E+01           0.27133574E+00
   0.24500000E+01           0.26751396E+00
   0.24600000E+01           0.26356016E+00
   0.24700000E+01           0.25956045E+00
   0.24800000E+01           0.25568936E+00
   0.24900000E+01           0.25201279E+00
   0.25000000E+01           0.24819687E+00
   0.25100000E+01           0.24440059E+00
   0.25200000E+01           0.24079316E+00
   0.25300000E+01           0.23700830E+00
   0.25400000E+01           0.23341074E+00
   0.25500000E+01           0.22945908E+00
   0.25600000E+01           0.22598672E+00
   0.25700000E+01           0.22236416E+00
   0.25800000E+01           0.21888047E+00
   0.25900000E+01           0.21553105E+00
   0.26000000E+01           0.21203936E+00
   0.26100000E+01           0.20845215E+00
   0.26200000E+01           0.20472402E+00
   0.26300000E+01           0.20140605E+00
   0.26400000E+01           0.19808457E+00
   0.26500000E+01           0.19455420E+00
   0.26600000E+01           0.19118857E+00
   0.26700000E+01           0.18785947E+00
   0.26800000E+01           0.18445977E+00
   0.26900000E+01           0.18131201E+00
   0.27000000E+01           0.17822061E+00
   0.27100000E+01           0.17506934E+00
   0.27200000E+01           0.17160479E+00
   0.27300000E+01           0.16849697E+00
   0.27400000E+01           0.16528584E+00
   0.27500000E+01           0.16220527E+00
   0.27600000E+01           0.15920557E+00
   0.27700000E+01           0.15610947E+00
   0.27800000E+01           0.15310381E+00
   0.27900000E+01           0.15022227E+00
   0.28000000E+01           0.14692773E+00
   0.28100000E+01           0.14424248E+00
   0.28200000E+01           0.14116592E+00
   0.28300000E+01           0.13843877E+00
   0.28400000E+01           0.13560615E+00
   0.28500000E+01           0.13273555E+00
   0.28600000E+01           0.13000693E+00
   0.28700000E+01           0.12727988E+00
   0.28800000E+01           0.12462529E+00
   0.28900000E+01           0.12173330E+00
   0.29000000E+01           0.11932168E+00
   0.29100000E+01           0.11654512E+00
   0.29200000E+01           0.11411270E+00
   0.29300000E+01           0.11168955E+00
   0.29400000E+01           0.10905527E+00
   0.29500000E+01           0.10654453E+00
   0.29600000E+01           0.10418369E+00
   0.29700000E+01           0.10170215E+00
   0.29800000E+01           0.99289941E-01
   0.29900000E+01           0.96886328E-01
   0.30000000E+01           0.94738379E-01
   0.30100000E+01           0.92275293E-01
   0.30200000E+01           0.90291113E-01
   0.30300000E+01           0.88053027E-01
   0.30400000E+01           0.85945605E-01
   0.30500000E+01           0.83564551E-01
   0.30600000E+01           0.81214160E-01
   0.30700000E+01           0.79441211E-01
   0.30800000E+01           0.77138184E-01
   0.30900000E+01           0.75400293E-01
   0.31000000E+01           0.73029004E-01
   0.31100000E+01           0.71228809E-01
   0.31200000E+01           0.69417676E-01
   0.31300000E+01           0.67451758E-01
   0.31400000E+01           0.65629004E-01
   0.31500000E+01           0.63734473E-01
   0.31600000E+01           0.61809082E-01
   0.31700000E+01           0.59967969E-01
   0.31800000E+01           0.58286133E-01
   0.31900000E+01           0.56707910E-01
   0.32000000E+01           0.55109668E-01
   0.32100000E+01           0.53235352E-01
   0.32200000E+01           0.51679590E-01
   0.32300000E+01           0.50205469E-01
   0.32400000E+01           0.48446777E-01
   0.32500000E+01           0.46976855E-01
   0.32600000E+01           0.45446680E-01
   0.32700000E+01           0.44057324E-01
   0.32800000E+01           0.42630566E-01
   0.32900000E+01           0.41107715E-01
   0.33000000E+01           0.39780469E-01
   0.33100000E+01           0.38449707E-01
   0.33200000E+01           0.37159766E-01
   0.33300000E+01           0.35723926E-01
   0.33400000E+01           0.34553027E-01
   0.33500000E+01           0.33288281E-01
   0.33600000E+01           0.32115723E-01
   0.33700000E+01           0.30935937E-01
   0.33800000E+01           0.29681641E-01
   0.33900000E+01           0.28596484E-01
   0.34000000E+01           0.27487402E-01
   0.34100000E+01           0.26412695E-01
   0.34200000E+01           0.25418164E-01
   0.34300000E+01           0.24291797E-01
   0.34400000E+01           0.23280371E-01
   0.34500000E+01           0.22292187E-01
   0.34600000E+01           0.21405078E-01
   0.34700000E+01           0.20417383E-01
   0.34800000E+01           0.19554395E-01
   0.34900000E+01           0.18653906E-01
   0.35000000E+01           0.17871973E-01
   0.35100000E+01           0.16969727E-01
   0.35200000E+01           0.16255371E-01
   0.35300000E+01           0.15430859E-01
   0.35400000E+01           0.14648535E-01
   0.35500000E+01           0.13944531E-01
   0.35600000E+01           0.13217383E-01
   0.35700000E+01           0.12481152E-01
   0.35800000E+01           0.11838086E-01
   0.35900000E+01           0.11218262E-01
   0.36000000E+01           0.10651758E-01
   0.36100000E+01           0.99741211E-02
   0.36200000E+01           0.94446289E-02
   0.36300000E+01           0.88727539E-02
   0.36400000E+01           0.83465820E-02
   0.36500000E+01           0.78091797E-02
   0.36600000E+01           0.73168945E-02
   0.36700000E+01           0.68332031E-02
   0.36800000E+01           0.63916992E-02
   0.36900000E+01           0.59616211E-02
   0.37000000E+01           0.54860352E-02
   0.37100000E+01           0.51215820E-02
   0.37200000E+01           0.47264648E-02
   0.37300000E+01           0.43392578E-02
   0.37400000E+01           0.39993164E-02
   0.37500000E+01           0.36722656E-02
   0.37600000E+01           0.33495117E-02
   0.37700000E+01           0.30343750E-02
   0.37800000E+01           0.27720703E-02
   0.37900000E+01           0.24971680E-02
   0.38000000E+01           0.22530273E-02
   0.38100000E+01           0.20254883E-02
   0.38200000E+01           0.17921875E-02
   0.38300000E+01           0.15736328E-02
   0.38400000E+01           0.13898438E-02
   0.38500000E+01           0.12332031E-02
   0.38600000E+01           0.10407227E-02
   0.38700000E+01           0.88359375E-03
   0.38800000E+01           0.75166016E-03
   0.38900000E+01           0.62314453E-03
   0.39000000E+01           0.50302734E-03
   0.39100000E+01           0.41591797E-03
   0.39200000E+01           0.32304687E-03
   0.39300000E+01           0.23701172E-03
   0.39400000E+01           0.17832031E-03
   0.39500000E+01           0.12041016E-03
   0.39600000E+01           0.80078125E-04
   0.39700000E+01           0.42578125E-04
   0.39800000E+01           0.19531250E-04
   0.39900000E+01           0.48828125E-05
   0.40000000E+01           0.19531250E-06
 #T=   678.0000
  -0.40000000E+01           0.00000000E+00
  -0.39900000E+01           0.00000000E+00
  -0.39800000E+01           0.00000000E+00
  -0.39700000E+01           0.00000000E+00
  -0.39600000E+01           0.00000000E+00
  -0.39500000E+01           0.00000000E+00
  -0.39400000E+01           0.00000000E+00
  -0.39300000E+01           0.00000000E+00
  -0.39200000E+01           0.00000000E+00
  -0.39100000E+01           0.00000000E+00
  -0.39000000E+01           0.00000000E+00
  -0.38900000E+01           0.00000000E+00
  -0.38800000E+01           0.00000000E+00
  -0.38700000E+01           0.00000000E+00
  -0.38600000E+01           0.00000000E+00
  -0.38500000E+01           0.00000000E+00
  -0.38400000E+01           0.00000000E+00
  -0.38300000E+01           0.00000000E+00
  -0.38200000E+01           0.00000000E+00
  -0.38100000E+01           0.00000000E+00
  -0.38000000E+01           0.00000000E+00
  -0.37900000E+01           0.00000000E+00
  -0.37800000E+01           0.00000000E+00
  -0.37700000E+01           0.00000000E+00
  -0.37600000E+01           0.00000000E+00
  -0.37500000E+01           0.00000000E+00
  -0.37400000E+01           0.00000000E+00
  -0.37300000E+01           0.00000000E+00
  -0.37200000E+01           0.00000000E+00
  -0.37100000E+01           0.00000000E+00
  -0.37000000E+01           0.00000000E+00
  -0.36900000E+01           0.00000000E+00
  -0.36800000E+01           0.00000000E+00
  -0.36700000E+01           0.00000000E+00
  -0.36600000E+01           0.00000000E+00
  -0.36500000E+01           0.00000000E+00
  -0.36400000E+01           0.00000000E+00
  -0.36300000E+01           0.00000000E+00
  -0.36200000E+01           0.00000000E+00
  -0.36100000E+01           0.00000000E+00
  -0.36000000E+01           0.00000000E+00
  -0.35900000E+01           0.00000000E+00
  -0.35800000E+01           0.00000000E+00
  -0.35700000E+01           0.00000000E+00
  -0.35600000E+01           0.00000000E+00
  -0.35500000E+01           0.00000000E+00
  -0.35400000E+01           0.00000000E+00
  -0.35300000E+01           0.00000000E+00
  -0.35200000E+01           0.00000000E+00
  -0.35100000E+01           0.00000000E+00
  -0.35000000E+01           0.00000000E+00
  -0.34900000E+01           0.00000000E+00
  -0.34800000E+01           0.00000000E+00
  -0.34700000E+01           0.00000000E+00
  -0.34600000E+01           0.00000000E+00
  -0.34500000E+01           0.00000000E+00
  -0.34400000E+01           0.00000000E+00
  -0.34300000E+01           0.00000000E+00
  -0.34200000E+01           0.00000000E+00
  -0.34100000E+01           0.00000000E+00
  -0.34000000E+01           0.00000000E+00
  -0.33900000E+01           0.00000000E+00
  -0.33800000E+01           0.00000000E+00
  -0.33700000E+01           0.00000000E+00
  -0.33600000E+01           0.00000000E+00
  -0.33500000E+01           0.00000000E+00
  -0.33400000E+01           0.00000000E+00
  -0.33300000E+01           0.00000000E+00
  -0.33200000E+01           0.00000000E+00
  -0.33100000E+01           0.00000000E+00
  -0.33000000E+01           0.00000000E+00
  -0.32900000E+01           0.00000000E+00
  -0.32800000E+01           0.00000000E+00
  -0.32700000E+01           0.00000000E+00
  -0.32600000E+01           0.00000000E+00
  -0.32500000E+01           0.00000000E+00
  -0.32400000E+01           0.00000000E+00
  -0.32300000E+01           0.00000000E+00
  -0.32200000E+01           0.00000000E+00
  -0.32100000E+01           0.00000000E+00
  -0.32000000E+01           0.00000000E+00
  -0.31900000E+01           0.00000000E+00
  -0.31800000E+01           0.00000000E+00
  -0.31700000E+01           0.00000000E+00
  -0.31600000E+01           0.00000000E+00
  -0.31500000E+01           0.00000000E+00
  -0.31400000E+01           0.00000000E+00
  -0.31300000E+01           0.00000000E+00
  -0.31200000E+01           0.00000000E+00
  -0.31100000E+01           0.00000000E+00
  -0.31000000E+01           0.00000000E+00
  -0.30900000E+01           0.00000000E+00
  -0.30800000E+01           0.00000000E+00
  -0.30700000E+01           0.00000000E+00
  -0.30600000E+01           0.00000000E+00
  -0.30500000E+01           0.00000000E+00
  -0.30400000E+01           0.00000000E+00
  -0.30300000E+01           0.00000000E+00
  -0.30200000E+01           0.00000000E+00
  -0.30100000E+01           0.00000000E+00
  -0.30000000E+01           0.00000000E+00
  -0.29900000E+01           0.00000000E+00
  -0.29800000E+01           0.00000000E+00
  -0.29700000E+01           0.00000000E+00
  -0.29600000E+01           0.00000000E+00
  -0.29500000E+01           0.00000000E+00
  -0.29400000E+01           0.00000000E+00
  -0.29300000E+01           0.00000000E+00
  -0.29200000E+01           0.00000000E+00
  -0.29100000E+01           0.00000000E+00
  -0.29000000E+01           0.00000000E+00
  -0.28900000E+01           0.00000000E+00
  -0.28800000E+01           0.00000000E+00
  -0.28700000E+01           0.00000000E+00
  -0.28600000E+01           0.00000000E+00
  -0.28500000E+01           0.00000000E+00
  -0.28400000E+01           0.00000000E+00
  -0.28300000E+01           0.00000000E+00
  -0.28200000E+01           0.00000000E+00
  -0.28100000E+01           0.00000000E+00
  -0.28000000E+01           0.00000000E+00
  -0.27900000E+01           0.00000000E+00
  -0.27800000E+01           0.00000000E+00
  -0.27700000E+01           0.00000000E+00
  -0.27600000E+01           0.00000000E+00
  -0.27500000E+01           0.00000000E+00
  -0.27400000E+01           0.00000000E+00
  -0.27300000E+01           0.00000000E+00
  -0.27200000E+01           0.00000000E+00
  -0.27100000E+01           0.00000000E+00
  -0.27000000E+01           0.00000000E+00
  -0.26900000E+01           0.00000000E+00
  -0.26800000E+01           0.00000000E+00
  -0.26700000E+01           0.00000000E+00
  -0.26600000E+01           0.00000000E+00
  -0.26500000E+01           0.00000000E+00
  -0.26400000E+01           0.00000000E+00
  -0.26300000E+01           0.00000000E+00
  -0.26200000E+01           0.00000000E+00
  -0.26100000E+01           0.00000000E+00
  -0.26000000E+01           0.00000000E+00
  -0.25900000E+01           0.00000000E+00
  -0.25800000E+01           0.00000000E+00
  -0.25700000E+01           0.00000000E+00
  -0.25600000E+01           0.00000000E+00
  -0.25500000E+01           0.00000000E+00
  -0.25400000E+01           0.00000000E+00
  -0.25300000E+01           0.00000000E+00
  -0.25200000E+01           0.00000000E+00
  -0.25100000E+01           0.00000000E+00
  -0.25000000E+01           0.00000000E+00
  -0.24900000E+01           0.00000000E+00
  -0.24800000E+01           0.00000000E+00
  -0.24700000E+01           0.00000000E+00
  -0.24600000E+01           0.00000000E+00
  -0.24500000E+01           0.00000000E+00
  -0.24400000E+01           0.00000000E+00
  -0.24300000E+01           0.00000000E+00
  -0.24200000E+01           0.00000000E+00
  -0.24100000E+01           0.00000000E+00
  -0.24000000E+01           0.00000000E+00
  -0.23900000E+01           0.00000000E+00
  -0.23800000E+01           0.00000000E+00
  -0.23700000E+01           0.00000000E+00
  -0.23600000E+01           0.00000000E+00
  -0.23500000E+01           0.00000000E+00
  -0.23400000E+01           0.00000000E+00
  -0.23300000E+01           0.00000000E+00
  -0.23200000E+01           0.00000000E+00
  -0.23100000E+01           0.00000000E+00
  -0.23000000E+01           0.00000000E+00
  -0.22900000E+01           0.00000000E+00
  -0.22800000E+01           0.00000000E+00
  -0.22700000E+01           0.00000000E+00
  -0.22600000E+01           0.00000000E+00
  -0.22500000E+01           0.00000000E+00
  -0.22400000E+01           0.00000000E+00
  -0.22300000E+01           0.00000000E+00
  -0.22200000E+01           0.00000000E+00
  -0.22100000E+01           0.00000000E+00
  -0.22000000E+01           0.00000000E+00
  -0.21900000E+01           0.00000000E+00
  -0.21800000E+01           0.00000000E+00
  -0.21700000E+01           0.00000000E+00
  -0.21600000E+01           0.00000000E+00
  -0.21500000E+01           0.00000000E+00
  -0.21400000E+01           0.00000000E+00
  -0.21300000E+01           0.00000000E+00
  -0.21200000E+01           0.00000000E+00
  -0.21100000E+01           0.00000000E+00
  -0.21000000E+01           0.00000000E+00
  -0.20900000E+01           0.00000000E+00
  -0.20800000E+01           0.00000000E+00
  -0.20700000E+01           0.00000000E+00
  -0.20600000E+01           0.00000000E+00
  -0.20500000E+01           0.00000000E+00
  -0.20400000E+01           0.00000000E+00
  -0.20300000E+01           0.00000000E+00
  -0.20200000E+01           0.00000000E+00
  -0.20100000E+01           0.00000000E+00
  -0.20000000E+01           0.00000000E+00
  -0.19900000E+01           0.00000000E+00
  -0.19800000E+01           0.00000000E+00
  -0.19700000E+01           0.00000000E+00
  -0.19600000E+01           0.00000000E+00
  -0.19500000E+01           0.00000000E+00
  -0.19400000E+01           0.00000000E+00
  -0.19300000E+01           0.00000000E+00
  -0.19200000E+01           0.00000000E+00
  -0.19100000E+01           0.00000000E+00
  -0.19000000E+01           0.00000000E+00
  -0.18900000E+01           0.00000000E+00
  -0.18800000E+01           0.00000000E+00
  -0.18700000E+01           0.00000000E+00
  -0.18600000E+01           0.00000000E+00
  -0.18500000E+01           0.00000000E+00
  -0.18400000E+01           0.00000000E+00
  -0.18300000E+01           0.00000000E+00
  -0.18200000E+01           0.00000000E+00
  -0.18100000E+01           0.00000000E+00
  -0.18000000E+01           0.00000000E+00
  -0.17900000E+01           0.00000000E+00
  -0.17800000E+01           0.00000000E+00
  -0.17700000E+01           0.00000000E+00
  -0.17600000E+01           0.00000000E+00
  -0.17500000E+01           0.00000000E+00
  -0.17400000E+01           0.00000000E+00
  -0.17300000E+01           0.00000000E+00
  -0.17200000E+01           0.00000000E+00
  -0.17100000E+01           0.00000000E+00
  -0.17000000E+01           0.00000000E+00
  -0.16900000E+01           0.00000000E+00
  -0.16800000E+01           0.00000000E+00
  -0.16700000E+01           0.00000000E+00
  -0.16600000E+01           0.00000000E+00
  -0.16500000E+01           0.00000000E+00
  -0.16400000E+01           0.00000000E+00
  -0.16300000E+01           0.00000000E+00
  -0.16200000E+01           0.00000000E+00
  -0.16100000E+01           0.00000000E+00
  -0.16000000E+01           0.00000000E+00
  -0.15900000E+01           0.00000000E+00
  -0.15800000E+01           0.00000000E+00
  -0.15700000E+01           0.00000000E+00
  -0.15600000E+01           0.00000000E+00
  -0.15500000E+01           0.00000000E+00
  -0.15400000E+01           0.00000000E+00
  -0.15300000E+01           0.00000000E+00
  -0.15200000E+01           0.00000000E+00
  -0.15100000E+01           0.00000000E+00
  -0.15000000E+01           0.00000000E+00
  -0.14900000E+01           0.00000000E+00
  -0.14800000E+01           0.00000000E+00
  -0.14700000E+01           0.00000000E+00
  -0.14600000E+01           0.00000000E+00
  -0.14500000E+01           0.00000000E+00
  -0.14400000E+01           0.00000000E+00
  -0.14300000E+01           0.00000000E+00
  -0.14200000E+01           0.00000000E+00
  -0.14100000E+01           0.00000000E+00
  -0.14000000E+01           0.00000000E+00
  -0.13900000E+01           0.00000000E+00
  -0.13800000E+01           0.00000000E+00
  -0.13700000E+01           0.00000000E+00
  -0.13600000E+01           0.00000000E+00
  -0.13500000E+01           0.00000000E+00
  -0.13400000E+01           0.00000000E+00
  -0.13300000E+01           0.00000000E+00
  -0.13200000E+01           0.00000000E+00
  -0.13100000E+01           0.00000000E+00
  -0.13000000E+01           0.00000000E+00
  -0.12900000E+01           0.00000000E+00
  -0.12800000E+01           0.00000000E+00
  -0.12700000E+01           0.00000000E+00
  -0.12600000E+01           0.00000000E+00
  -0.12500000E+01           0.00000000E+00
  -0.12400000E+01           0.00000000E+00
  -0.12300000E+01           0.00000000E+00
  -0.12200000E+01           0.00000000E+00
  -0.12100000E+01           0.00000000E+00
  -0.12000000E+01           0.00000000E+00
  -0.11900000E+01           0.00000000E+00
  -0.11800000E+01           0.00000000E+00
  -0.11700000E+01           0.00000000E+00
  -0.11600000E+01           0.00000000E+00
  -0.11500000E+01           0.00000000E+00
  -0.11400000E+01           0.00000000E+00
  -0.11300000E+01           0.00000000E+00
  -0.11200000E+01           0.00000000E+00
  -0.11100000E+01           0.00000000E+00
  -0.11000000E+01           0.00000000E+00
  -0.10900000E+01           0.00000000E+00
  -0.10800000E+01           0.00000000E+00
  -0.10700000E+01           0.00000000E+00
  -0.10600000E+01           0.00000000E+00
  -0.10500000E+01           0.00000000E+00
  -0.10400000E+01           0.00000000E+00
  -0.10300000E+01           0.00000000E+00
  -0.10200000E+01           0.00000000E+00
  -0.10100000E+01           0.00000000E+00
  -0.10000000E+01           0.00000000E+00
  -0.99000000E+00           0.00000000E+00
  -0.98000000E+00           0.00000000E+00
  -0.97000000E+00           0.00000000E+00
  -0.96000000E+00           0.00000000E+00
  -0.95000000E+00           0.00000000E+00
  -0.94000000E+00           0.00000000E+00
  -0.93000000E+00           0.00000000E+00
  -0.92000000E+00           0.00000000E+00
  -0.91000000E+00           0.00000000E+00
  -0.90000000E+00           0.00000000E+00
  -0.89000000E+00           0.00000000E+00
  -0.88000000E+00           0.00000000E+00
  -0.87000000E+00           0.00000000E+00
  -0.86000000E+00           0.00000000E+00
  -0.85000000E+00           0.00000000E+00
  -0.84000000E+00           0.00000000E+00
  -0.83000000E+00           0.00000000E+00
  -0.82000000E+00           0.00000000E+00
  -0.81000000E+00           0.00000000E+00
  -0.80000000E+00           0.00000000E+00
  -0.79000000E+00           0.00000000E+00
  -0.78000000E+00           0.00000000E+00
  -0.77000000E+00           0.00000000E+00
  -0.76000000E+00           0.00000000E+00
  -0.75000000E+00           0.00000000E+00
  -0.74000000E+00           0.00000000E+00
  -0.73000000E+00           0.00000000E+00
  -0.72000000E+00           0.00000000E+00
  -0.71000000E+00           0.00000000E+00
  -0.70000000E+00           0.00000000E+00
  -0.69000000E+00           0.00000000E+00
  -0.68000000E+00           0.00000000E+00
  -0.67000000E+00           0.00000000E+00
  -0.66000000E+00           0.00000000E+00
  -0.65000000E+00           0.00000000E+00
  -0.64000000E+00           0.00000000E+00
  -0.63000000E+00           0.00000000E+00
  -0.62000000E+00           0.00000000E+00
  -0.61000000E+00           0.00000000E+00
  -0.60000000E+00           0.00000000E+00
  -0.59000000E+00           0.00000000E+00
  -0.58000000E+00           0.00000000E+00
  -0.57000000E+00           0.00000000E+00
  -0.56000000E+00           0.00000000E+00
  -0.55000000E+00           0.00000000E+00
  -0.54000000E+00           0.00000000E+00
  -0.53000000E+00           0.00000000E+00
  -0.52000000E+00           0.00000000E+00
  -0.51000000E+00           0.00000000E+00
  -0.50000000E+00           0.00000000E+00
  -0.49000000E+00           0.00000000E+00
  -0.48000000E+00           0.00000000E+00
  -0.47000000E+00           0.00000000E+00
  -0.46000000E+00           0.00000000E+00
  -0.45000000E+00           0.00000000E+00
  -0.44000000E+00           0.00000000E+00
  -0.43000000E+00           0.00000000E+00
  -0.42000000E+00           0.00000000E+00
  -0.41000000E+00           0.00000000E+00
  -0.40000000E+00           0.00000000E+00
  -0.39000000E+00           0.00000000E+00
  -0.38000000E+00           0.00000000E+00
  -0.37000000E+00           0.00000000E+00
  -0.36000000E+00           0.00000000E+00
  -0.35000000E+00           0.00000000E+00
  -0.34000000E+00           0.00000000E+00
  -0.33000000E+00           0.00000000E+00
  -0.32000000E+00           0.00000000E+00
  -0.31000000E+00           0.00000000E+00
  -0.30000000E+00           0.00000000E+00
  -0.29000000E+00           0.00000000E+00
  -0.28000000E+00           0.00000000E+00
  -0.27000000E+00           0.00000000E+00
  -0.26000000E+00           0.00000000E+00
  -0.25000000E+00           0.00000000E+00
  -0.24000000E+00           0.00000000E+00
  -0.23000000E+00           0.00000000E+00
  -0.22000000E+00           0.00000000E+00
  -0.21000000E+00           0.00000000E+00
  -0.20000000E+00           0.00000000E+00
  -0.19000000E+00           0.00000000E+00
  -0.18000000E+00           0.00000000E+00
  -0.17000000E+00           0.00000000E+00
  -0.16000000E+00           0.00000000E+00
  -0.15000000E+00           0.00000000E+00
  -0.14000000E+00           0.00000000E+00
  -0.13000000E+00           0.00000000E+00
  -0.12000000E+00           0.00000000E+00
  -0.11000000E+00           0.00000000E+00
  -0.10000000E+00           0.00000000E+00
  -0.90000000E-01           0.00000000E+00
  -0.80000000E-01           0.00000000E+00
  -0.70000000E-01           0.00000000E+00
  -0.60000000E-01           0.00000000E+00
  -0.50000000E-01           0.00000000E+00
  -0.40000000E-01           0.00000000E+00
  -0.30000000E-01           0.00000000E+00
  -0.20000000E-01           0.00000000E+00
  -0.10000000E-01           0.00000000E+00
   0.00000000E+00           0.42968750E-05
   0.10000000E-01           0.11123047E-03
   0.20000000E-01           0.43632812E-03
   0.30000000E-01           0.95634766E-03
   0.40000000E-01           0.16664062E-02
   0.50000000E-01           0.26101563E-02
   0.60000000E-01           0.36892578E-02
   0.70000000E-01           0.50040039E-02
   0.80000000E-01           0.64577148E-02
   0.90000000E-01           0.81003906E-02
   0.10000000E+00           0.99463867E-02
   0.11000000E+00           0.11963770E-01
   0.12000000E+00           0.14156152E-01
   0.13000000E+00           0.16396680E-01
   0.14000000E+00           0.18877344E-01
   0.15000000E+00           0.21518652E-01
   0.16000000E+00           0.24266797E-01
   0.17000000E+00           0.27243164E-01
   0.18000000E+00           0.30095605E-01
   0.19000000E+00           0.33410254E-01
   0.20000000E+00           0.36589941E-01
   0.21000000E+00           0.40040039E-01
   0.22000000E+00           0.43610352E-01
   0.23000000E+00           0.47287305E-01
   0.24000000E+00           0.50958984E-01
   0.25000000E+00           0.55014941E-01
   0.26000000E+00           0.59070020E-01
   0.27000000E+00           0.62906641E-01
   0.28000000E+00           0.67303711E-01
   0.29000000E+00           0.71390137E-01
   0.30000000E+00           0.75791797E-01
   0.31000000E+00           0.80349316E-01
   0.32000000E+00           0.84801953E-01
   0.33000000E+00           0.89702637E-01
   0.34000000E+00           0.94285937E-01
   0.35000000E+00           0.99015918E-01
   0.36000000E+00           0.10387969E+00
   0.37000000E+00           0.10869355E+00
   0.38000000E+00           0.11377119E+00
   0.39000000E+00           0.11882959E+00
   0.40000000E+00           0.12379521E+00
   0.41000000E+00           0.12918018E+00
   0.42000000E+00           0.13439004E+00
   0.43000000E+00           0.13968252E+00
   0.44000000E+00           0.14512041E+00
   0.45000000E+00           0.15034238E+00
   0.46000000E+00           0.15570605E+00
   0.47000000E+00           0.16128633E+00
   0.48000000E+00           0.16675449E+00
   0.49000000E+00           0.17218408E+00
   0.50000000E+00           0.17782197E+00
   0.51000000E+00           0.18340322E+00
   0.52000000E+00           0.18891357E+00
   0.53000000E+00           0.19440664E+00
   0.54000000E+00           0.19990439E+00
   0.55000000E+00           0.20572139E+00
   0.56000000E+00           0.21147158E+00
   0.57000000E+00           0.21737686E+00
   0.58000000E+00           0.22296074E+00
   0.59000000E+00           0.22859580E+00
   0.60000000E+00           0.23448594E+00
   0.61000000E+00           0.24029307E+00
   0.62000000E+00           0.24584717E+00
   0.63000000E+00           0.25161953E+00
   0.64000000E+00           0.25726191E+00
   0.65000000E+00           0.26300391E+00
   0.66000000E+00           0.26873633E+00
   0.67000000E+00           0.27435664E+00
   0.68000000E+00           0.27982227E+00
   0.69000000E+00           0.28551855E+00
   0.70000000E+00           0.29115547E+00
   0.71000000E+00           0.29699443E+00
   0.72000000E+00           0.30234238E+00
   0.73000000E+00           0.30802148E+00
   0.74000000E+00           0.31372441E+00
   0.75000000E+00           0.31895176E+00
   0.76000000E+00           0.32453184E+00
   0.77000000E+00           0.33019395E+00
   0.78000000E+00           0.33568418E+00
   0.79000000E+00           0.34087061E+00
   0.80000000E+00           0.34631797E+00
   0.81000000E+00           0.35188555E+00
   0.82000000E+00           0.35700479E+00
   0.83000000E+00           0.36244092E+00
   0.84000000E+00           0.36750264E+00
   0.85000000E+00           0.37259443E+00
   0.86000000E+00           0.37747168E+00
   0.87000000E+00           0.38296387E+00
   0.88000000E+00           0.38785352E+00
   0.89000000E+00           0.39294570E+00
   0.90000000E+00           0.39788887E+00
   0.91000000E+00           0.40274033E+00
   0.92000000E+00           0.40753984E+00
   0.93000000E+00           0.41268682E+00
   0.94000000E+00           0.41676055E+00
   0.95000000E+00           0.42196885E+00
   0.96000000E+00           0.42634189E+00
   0.97000000E+00           0.43103457E+00
   0.98000000E+00           0.43569287E+00
   0.99000000E+00           0.43989082E+00
   0.10000000E+01           0.44440762E+00
   0.10100000E+01           0.44788271E+00
   0.10200000E+01           0.45299268E+00
   0.10300000E+01           0.45679951E+00
   0.10400000E+01           0.46100771E+00
   0.10500000E+01           0.46468066E+00
   0.10600000E+01           0.46880195E+00
   0.10700000E+01           0.47282773E+00
   0.10800000E+01           0.47651855E+00
   0.10900000E+01           0.48012861E+00
   0.11000000E+01           0.48343047E+00
   0.11100000E+01           0.48753916E+00
   0.11200000E+01           0.49075625E+00
   0.11300000E+01           0.49488447E+00
   0.11400000E+01           0.49744541E+00
   0.11500000E+01           0.50103184E+00
   0.11600000E+01           0.50434639E+00
   0.11700000E+01           0.50719004E+00
   0.11800000E+01           0.50987881E+00
   0.11900000E+01           0.51355518E+00
   0.12000000E+01           0.51623057E+00
   0.12100000E+01           0.51863057E+00
   0.12200000E+01           0.52138047E+00
   0.12300000E+01           0.52407949E+00
   0.12400000E+01           0.52636426E+00
   0.12500000E+01           0.52919102E+00
   0.12600000E+01           0.53141699E+00
   0.12700000E+01           0.53387764E+00
   0.12800000E+01           0.53613652E+00
   0.12900000E+01           0.53782236E+00
   0.13000000E+01           0.53984414E+00
   0.13100000E+01           0.54135264E+00
   0.13200000E+01           0.54330820E+00
   0.13300000E+01           0.54515469E+00
   0.13400000E+01           0.54661680E+00
   0.13500000E+01           0.54808711E+00
   0.13600000E+01           0.54973008E+00
   0.13700000E+01           0.55118311E+00
   0.13800000E+01           0.55244141E+00
   0.13900000E+01           0.55375205E+00
   0.14000000E+01           0.55484033E+00
   0.14100000E+01           0.55560137E+00
   0.14200000E+01           0.55645986E+00
   0.14300000E+01           0.55692080E+00
   0.14400000E+01           0.55776055E+00
   0.14500000E+01           0.55918926E+00
   0.14600000E+01           0.55915254E+00
   0.14700000E+01           0.55969678E+00
   0.14800000E+01           0.56022773E+00
   0.14900000E+01           0.56037168E+00
   0.15000000E+01           0.56069023E+00
   0.15100000E+01           0.56032402E+00
   0.15200000E+01           0.56007109E+00
   0.15300000E+01           0.56044531E+00
   0.15400000E+01           0.56017266E+00
   0.15500000E+01           0.55963232E+00
   0.15600000E+01           0.55958027E+00
   0.15700000E+01           0.55949453E+00
   0.15800000E+01           0.55797012E+00
   0.15900000E+01           0.55753799E+00
   0.16000000E+01           0.55690830E+00
   0.16100000E+01           0.55578232E+00
   0.16200000E+01           0.55501758E+00
   0.16300000E+01           0.55416924E+00
   0.16400000E+01           0.55232158E+00
   0.16500000E+01           0.55147881E+00
   0.16600000E+01           0.55014717E+00
   0.16700000E+01           0.54821943E+00
   0.16800000E+01           0.54748340E+00
   0.16900000E+01           0.54573750E+00
   0.17000000E+01           0.54405889E+00
   0.17100000E+01           0.54242715E+00
   0.17200000E+01           0.54001641E+00
   0.17300000E+01           0.53834561E+00
   0.17400000E+01           0.53669053E+00
   0.17500000E+01           0.53386338E+00
   0.17600000E+01           0.53213643E+00
   0.17700000E+01           0.52964141E+00
   0.17800000E+01           0.52718574E+00
   0.17900000E+01           0.52452354E+00
   0.18000000E+01           0.52221045E+00
   0.18100000E+01           0.51983613E+00
   0.18200000E+01           0.51698633E+00
   0.18300000E+01           0.51419766E+00
   0.18400000E+01           0.51106006E+00
   0.18500000E+01           0.50835332E+00
   0.18600000E+01           0.50524951E+00
   0.18700000E+01           0.50187187E+00
   0.18800000E+01           0.49902686E+00
   0.18900000E+01           0.49553584E+00
   0.19000000E+01           0.49245693E+00
   0.19100000E+01           0.48909082E+00
   0.19200000E+01           0.48535703E+00
   0.19300000E+01           0.48150205E+00
   0.19400000E+01           0.47781426E+00
   0.19500000E+01           0.47409980E+00
   0.19600000E+01           0.47022871E+00
   0.19700000E+01           0.46647412E+00
   0.19800000E+01           0.46234951E+00
   0.19900000E+01           0.45815361E+00
   0.20000000E+01           0.45437393E+00
   0.20100000E+01           0.45022705E+00
   0.20200000E+01           0.44556875E+00
   0.20300000E+01           0.44144268E+00
   0.20400000E+01           0.43755928E+00
   0.20500000E+01           0.43337305E+00
   0.20600000E+01           0.42887100E+00
   0.20700000E+01           0.42449502E+00
   0.20800000E+01           0.41992480E+00
   0.20900000E+01           0.41588926E+00
   0.21000000E+01           0.41198721E+00
   0.21100000E+01           0.40798291E+00
   0.21200000E+01           0.40380889E+00
   0.21300000E+01           0.39946455E+00
   0.21400000E+01           0.39505342E+00
   0.21500000E+01           0.39089463E+00
   0.21600000E+01           0.38674609E+00
   0.21700000E+01           0.38251855E+00
   0.21800000E+01           0.37825615E+00
   0.21900000E+01           0.37405605E+00
   0.22000000E+01           0.36988145E+00
   0.22100000E+01           0.36573965E+00
   0.22200000E+01           0.36125049E+00
   0.22300000E+01           0.35704150E+00
   0.22400000E+01           0.35326758E+00
   0.22500000E+01           0.34899570E+00
   0.22600000E+01           0.34471523E+00
   0.22700000E+01           0.34115771E+00
   0.22800000E+01           0.33638682E+00
   0.22900000E+01           0.33244971E+00
   0.23000000E+01           0.32829014E+00
   0.23100000E+01           0.32441318E+00
   0.23200000E+01           0.32001250E+00
   0.23300000E+01           0.31646543E+00
   0.23400000E+01           0.31227637E+00
   0.23500000E+01           0.30788691E+00
   0.23600000E+01           0.30418311E+00
   0.23700000E+01           0.29982930E+00
   0.23800000E+01           0.29583457E+00
   0.23900000E+01           0.29203555E+00
   0.24000000E+01           0.28776318E+00
   0.24100000E+01           0.28411963E+00
   0.24200000E+01           0.27987119E+00
   0.24300000E+01           0.27613984E+00
   0.24400000E+01           0.27231709E+00
   0.24500000E+01           0.26835781E+00
   0.24600000E+01           0.26452314E+00
   0.24700000E+01           0.26074961E+00
   0.24800000E+01           0.25684355E+00
   0.24900000E+01           0.25297900E+00
   0.25000000E+01           0.24906943E+00
   0.25100000E+01           0.24585977E+00
   0.25200000E+01           0.24189863E+00
   0.25300000E+01           0.23793809E+00
   0.25400000E+01           0.23448623E+00
   0.25500000E+01           0.23049404E+00
   0.25600000E+01           0.22727559E+00
   0.25700000E+01           0.22371279E+00
   0.25800000E+01           0.22012939E+00
   0.25900000E+01           0.21651582E+00
   0.26000000E+01           0.21276641E+00
   0.26100000E+01           0.20940244E+00
   0.26200000E+01           0.20583164E+00
   0.26300000E+01           0.20232930E+00
   0.26400000E+01           0.19895937E+00
   0.26500000E+01           0.19555215E+00
   0.26600000E+01           0.19221279E+00
   0.26700000E+01           0.18893232E+00
   0.26800000E+01           0.18549746E+00
   0.26900000E+01           0.18232656E+00
   0.27000000E+01           0.17906641E+00
   0.27100000E+01           0.17563994E+00
   0.27200000E+01           0.17255127E+00
   0.27300000E+01           0.16938047E+00
   0.27400000E+01           0.16627187E+00
   0.27500000E+01           0.16324287E+00
   0.27600000E+01           0.16010215E+00
   0.27700000E+01           0.15730303E+00
   0.27800000E+01           0.15412393E+00
   0.27900000E+01           0.15091914E+00
   0.28000000E+01           0.14789531E+00
   0.28100000E+01           0.14501387E+00
   0.28200000E+01           0.14221250E+00
   0.28300000E+01           0.13960791E+00
   0.28400000E+01           0.13668359E+00
   0.28500000E+01           0.13357188E+00
   0.28600000E+01           0.13099795E+00
   0.28700000E+01           0.12809590E+00
   0.28800000E+01           0.12552432E+00
   0.28900000E+01           0.12263193E+00
   0.29000000E+01           0.12019385E+00
   0.29100000E+01           0.11745586E+00
   0.29200000E+01           0.11495459E+00
   0.29300000E+01           0.11230264E+00
   0.29400000E+01           0.10980732E+00
   0.29500000E+01           0.10718857E+00
   0.29600000E+01           0.10480107E+00
   0.29700000E+01           0.10249424E+00
   0.29800000E+01           0.10009678E+00
   0.29900000E+01           0.97469043E-01
   0.30000000E+01           0.95295312E-01
   0.30100000E+01           0.92975977E-01
   0.30200000E+01           0.90908887E-01
   0.30300000E+01           0.88516699E-01
   0.30400000E+01           0.86292969E-01
   0.30500000E+01           0.84156445E-01
   0.30600000E+01           0.82025879E-01
   0.30700000E+01           0.80049707E-01
   0.30800000E+01           0.77906641E-01
   0.30900000E+01           0.75954980E-01
   0.31000000E+01           0.73859180E-01
   0.31100000E+01           0.71850879E-01
   0.31200000E+01           0.69980664E-01
   0.31300000E+01           0.68077832E-01
   0.31400000E+01           0.66145801E-01
   0.31500000E+01           0.64263965E-01
   0.31600000E+01           0.62442090E-01
   0.31700000E+01           0.60753223E-01
   0.31800000E+01           0.58915137E-01
   0.31900000E+01           0.57155371E-01
   0.32000000E+01           0.55400977E-01
   0.32100000E+01           0.53818164E-01
   0.32200000E+01           0.52343164E-01
   0.32300000E+01           0.50473633E-01
   0.32400000E+01           0.49108398E-01
   0.32500000E+01           0.47505859E-01
   0.32600000E+01           0.45989746E-01
   0.32700000E+01           0.44408301E-01
   0.32800000E+01           0.43065039E-01
   0.32900000E+01           0.41664648E-01
   0.33000000E+01           0.40145117E-01
   0.33100000E+01           0.38928906E-01
   0.33200000E+01           0.37518457E-01
   0.33300000E+01           0.36149023E-01
   0.33400000E+01           0.34996387E-01
   0.33500000E+01           0.33608984E-01
   0.33600000E+01           0.32447461E-01
   0.33700000E+01           0.31317187E-01
   0.33800000E+01           0.29979297E-01
   0.33900000E+01           0.28862402E-01
   0.34000000E+01           0.27902441E-01
   0.34100000E+01           0.26699219E-01
   0.34200000E+01           0.25615723E-01
   0.34300000E+01           0.24584180E-01
   0.34400000E+01           0.23567676E-01
   0.34500000E+01           0.22596582E-01
   0.34600000E+01           0.21617285E-01
   0.34700000E+01           0.20779492E-01
   0.34800000E+01           0.19777344E-01
   0.34900000E+01           0.18903027E-01
   0.35000000E+01           0.18091895E-01
   0.35100000E+01           0.17243164E-01
   0.35200000E+01           0.16412793E-01
   0.35300000E+01           0.15694043E-01
   0.35400000E+01           0.14912695E-01
   0.35500000E+01           0.14090820E-01
   0.35600000E+01           0.13415625E-01
   0.35700000E+01           0.12779883E-01
   0.35800000E+01           0.12060254E-01
   0.35900000E+01           0.11446094E-01
   0.36000000E+01           0.10737891E-01
   0.36100000E+01           0.10167773E-01
   0.36200000E+01           0.95678711E-02
   0.36300000E+01           0.90377930E-02
   0.36400000E+01           0.84390625E-02
   0.36500000E+01           0.78752930E-02
   0.36600000E+01           0.74402344E-02
   0.36700000E+01           0.69271484E-02
   0.36800000E+01           0.65080078E-02
   0.36900000E+01           0.60467773E-02
   0.37000000E+01           0.56221680E-02
   0.37100000E+01           0.52184570E-02
   0.37200000E+01           0.48221680E-02
   0.37300000E+01           0.44539062E-02
   0.37400000E+01           0.40610352E-02
   0.37500000E+01           0.37646484E-02
   0.37600000E+01           0.33950195E-02
   0.37700000E+01           0.31023438E-02
   0.37800000E+01           0.28333008E-02
   0.37900000E+01           0.25496094E-02
   0.38000000E+01           0.23272461E-02
   0.38100000E+01           0.20670898E-02
   0.38200000E+01           0.18406250E-02
   0.38300000E+01           0.16288086E-02
   0.38400000E+01           0.14241211E-02
   0.38500000E+01           0.12557617E-02
   0.38600000E+01           0.10738281E-02
   0.38700000E+01           0.91484375E-03
   0.38800000E+01           0.77255859E-03
   0.38900000E+01           0.64501953E-03
   0.39000000E+01           0.51562500E-03
   0.39100000E+01           0.40595703E-03
   0.39200000E+01           0.32333984E-03
   0.39300000E+01           0.25087891E-03
   0.39400000E+01           0.18095703E-03
   0.39500000E+01           0.12050781E-03
   0.39600000E+01           0.84472656E-04
   0.39700000E+01           0.45410156E-04
   0.39800000E+01           0.18261719E-04
   0.39900000E+01           0.48828125E-05
   0.40000000E+01           0.29296875E-06
 #T=   679.0000
  -0.40000000E+01           0.00000000E+00
  -0.39900000E+01           0.00000000E+00
  -0.39800000E+01           0.00000000E+00
  -0.39700000E+01           0.00000000E+00
  -0.39600000E+01           0.00000000E+00
  -0.39500000E+01           0.00000000E+00
  -0.39400000E+01           0.00000000E+00
  -0.39300000E+01           0.00000000E+00
  -0.39200000E+01           0.00000000E+00
  -0.39100000E+01           0.00000000E+00
  -0.39000000E+01           0.00000000E+00
  -0.38900000E+01           0.00000000E+00
  -0.38800000E+01           0.00000000E+00
  -0.38700000E+01           0.00000000E+00
  -0.38600000E+01           0.00000000E+00
  -0.38500000E+01           0.00000000E+00
  -0.38400000E+01           0.00000000E+00
  -0.38300000E+01           0.00000000E+00
  -0.38200000E+01           0.00000000E+00
  -0.38100000E+01           0.00000000E+00
  -0.38000000E+01           0.00000000E+00
  -0.37900000E+01           0.00000000E+00
  -0.37800000E+01           0.00000000E+00
  -0.37700000E+01           0.00000000E+00
  -0.37600000E+01           0.00000000E+00
  -0.37500000E+01           0.00000000E+00
  -0.37400000E+01           0.00000000E+00
  -0.37300000E+01           0.00000000E+00
  -0.37200000E+01           0.00000000E+00
  -0.37100000E+01           0.00000000E+00
  -0.37000000E+01           0.00000000E+00
  -0.36900000E+01           0.00000000E+00
  -0.36800000E+01           0.00000000E+00
  -0.36700000E+01           0.00000000E+00
  -0.36600000E+01           0.00000000E+00
  -0.36500000E+01           0.00000000E+00
  -0.36400000E+01           0.00000000E+00
  -0.36300000E+01           0.00000000E+00
  -0.36200000E+01           0.00000000E+00
  -0.36100000E+01           0.00000000E+00
  -0.36000000E+01           0.00000000E+00
  -0.35900000E+01           0.00000000E+00
  -0.35800000E+01           0.00000000E+00
  -0.35700000E+01           0.00000000E+00
  -0.35600000E+01           0.00000000E+00
  -0.35500000E+01           0.00000000E+00
  -0.35400000E+01           0.00000000E+00
  -0.35300000E+01           0.00000000E+00
  -0.35200000E+01           0.00000000E+00
  -0.35100000E+01           0.00000000E+00
  -0.35000000E+01           0.00000000E+00
  -0.34900000E+01           0.00000000E+00
  -0.34800000E+01           0.00000000E+00
  -0.34700000E+01           0.00000000E+00
  -0.34600000E+01           0.00000000E+00
  -0.34500000E+01           0.00000000E+00
  -0.34400000E+01           0.00000000E+00
  -0.34300000E+01           0.00000000E+00
  -0.34200000E+01           0.00000000E+00
  -0.34100000E+01           0.00000000E+00
  -0.34000000E+01           0.00000000E+00
  -0.33900000E+01           0.00000000E+00
  -0.33800000E+01           0.00000000E+00
  -0.33700000E+01           0.00000000E+00
  -0.33600000E+01           0.00000000E+00
  -0.33500000E+01           0.00000000E+00
  -0.33400000E+01           0.00000000E+00
  -0.33300000E+01           0.00000000E+00
  -0.33200000E+01           0.00000000E+00
  -0.33100000E+01           0.00000000E+00
  -0.33000000E+01           0.00000000E+00
  -0.32900000E+01           0.00000000E+00
  -0.32800000E+01           0.00000000E+00
  -0.32700000E+01           0.00000000E+00
  -0.32600000E+01           0.00000000E+00
  -0.32500000E+01           0.00000000E+00
  -0.32400000E+01           0.00000000E+00
  -0.32300000E+01           0.00000000E+00
  -0.32200000E+01           0.00000000E+00
  -0.32100000E+01           0.00000000E+00
  -0.32000000E+01           0.00000000E+00
  -0.31900000E+01           0.00000000E+00
  -0.31800000E+01           0.00000000E+00
  -0.31700000E+01           0.00000000E+00
  -0.31600000E+01           0.00000000E+00
  -0.31500000E+01           0.00000000E+00
  -0.31400000E+01           0.00000000E+00
  -0.31300000E+01           0.00000000E+00
  -0.31200000E+01           0.00000000E+00
  -0.31100000E+01           0.00000000E+00
  -0.31000000E+01           0.00000000E+00
  -0.30900000E+01           0.00000000E+00
  -0.30800000E+01           0.00000000E+00
  -0.30700000E+01           0.00000000E+00
  -0.30600000E+01           0.00000000E+00
  -0.30500000E+01           0.00000000E+00
  -0.30400000E+01           0.00000000E+00
  -0.30300000E+01           0.00000000E+00
  -0.30200000E+01           0.00000000E+00
  -0.30100000E+01           0.00000000E+00
  -0.30000000E+01           0.00000000E+00
  -0.29900000E+01           0.00000000E+00
  -0.29800000E+01           0.00000000E+00
  -0.29700000E+01           0.00000000E+00
  -0.29600000E+01           0.00000000E+00
  -0.29500000E+01           0.00000000E+00
  -0.29400000E+01           0.00000000E+00
  -0.29300000E+01           0.00000000E+00
  -0.29200000E+01           0.00000000E+00
  -0.29100000E+01           0.00000000E+00
  -0.29000000E+01           0.00000000E+00
  -0.28900000E+01           0.00000000E+00
  -0.28800000E+01           0.00000000E+00
  -0.28700000E+01           0.00000000E+00
  -0.28600000E+01           0.00000000E+00
  -0.28500000E+01           0.00000000E+00
  -0.28400000E+01           0.00000000E+00
  -0.28300000E+01           0.00000000E+00
  -0.28200000E+01           0.00000000E+00
  -0.28100000E+01           0.00000000E+00
  -0.28000000E+01           0.00000000E+00
  -0.27900000E+01           0.00000000E+00
  -0.27800000E+01           0.00000000E+00
  -0.27700000E+01           0.00000000E+00
  -0.27600000E+01           0.00000000E+00
  -0.27500000E+01           0.00000000E+00
  -0.27400000E+01           0.00000000E+00
  -0.27300000E+01           0.00000000E+00
  -0.27200000E+01           0.00000000E+00
  -0.27100000E+01           0.00000000E+00
  -0.27000000E+01           0.00000000E+00
  -0.26900000E+01           0.00000000E+00
  -0.26800000E+01           0.00000000E+00
  -0.26700000E+01           0.00000000E+00
  -0.26600000E+01           0.00000000E+00
  -0.26500000E+01           0.00000000E+00
  -0.26400000E+01           0.00000000E+00
  -0.26300000E+01           0.00000000E+00
  -0.26200000E+01           0.00000000E+00
  -0.26100000E+01           0.00000000E+00
  -0.26000000E+01           0.00000000E+00
  -0.25900000E+01           0.00000000E+00
  -0.25800000E+01           0.00000000E+00
  -0.25700000E+01           0.00000000E+00
  -0.25600000E+01           0.00000000E+00
  -0.25500000E+01           0.00000000E+00
  -0.25400000E+01           0.00000000E+00
  -0.25300000E+01           0.00000000E+00
  -0.25200000E+01           0.00000000E+00
  -0.25100000E+01           0.00000000E+00
  -0.25000000E+01           0.00000000E+00
  -0.24900000E+01           0.00000000E+00
  -0.24800000E+01           0.00000000E+00
  -0.24700000E+01           0.00000000E+00
  -0.24600000E+01           0.00000000E+00
  -0.24500000E+01           0.00000000E+00
  -0.24400000E+01           0.00000000E+00
  -0.24300000E+01           0.00000000E+00
  -0.24200000E+01           0.00000000E+00
  -0.24100000E+01           0.00000000E+00
  -0.24000000E+01           0.00000000E+00
  -0.23900000E+01           0.00000000E+00
  -0.23800000E+01           0.00000000E+00
  -0.23700000E+01           0.00000000E+00
  -0.23600000E+01           0.00000000E+00
  -0.23500000E+01           0.00000000E+00
  -0.23400000E+01           0.00000000E+00
  -0.23300000E+01           0.00000000E+00
  -0.23200000E+01           0.00000000E+00
  -0.23100000E+01           0.00000000E+00
  -0.23000000E+01           0.00000000E+00
  -0.22900000E+01           0.00000000E+00
  -0.22800000E+01           0.00000000E+00
  -0.22700000E+01           0.00000000E+00
  -0.22600000E+01           0.00000000E+00
  -0.22500000E+01           0.00000000E+00
  -0.22400000E+01           0.00000000E+00
  -0.22300000E+01           0.00000000E+00
  -0.22200000E+01           0.00000000E+00
  -0.22100000E+01           0.00000000E+00
  -0.22000000E+01           0.00000000E+00
  -0.21900000E+01           0.00000000E+00
  -0.21800000E+01           0.00000000E+00
  -0.21700000E+01           0.00000000E+00
  -0.21600000E+01           0.00000000E+00
  -0.21500000E+01           0.00000000E+00
  -0.21400000E+01           0.00000000E+00
  -0.21300000E+01           0.00000000E+00
  -0.21200000E+01           0.00000000E+00
  -0.21100000E+01           0.00000000E+00
  -0.21000000E+01           0.00000000E+00
  -0.20900000E+01           0.00000000E+00
  -0.20800000E+01           0.00000000E+00
  -0.20700000E+01           0.00000000E+00
  -0.20600000E+01           0.00000000E+00
  -0.20500000E+01           0.00000000E+00
  -0.20400000E+01           0.00000000E+00
  -0.20300000E+01           0.00000000E+00
  -0.20200000E+01           0.00000000E+00
  -0.20100000E+01           0.00000000E+00
  -0.20000000E+01           0.00000000E+00
  -0.19900000E+01           0.00000000E+00
  -0.19800000E+01           0.00000000E+00
  -0.19700000E+01           0.00000000E+00
  -0.19600000E+01           0.00000000E+00
  -0.19500000E+01           0.00000000E+00
  -0.19400000E+01           0.00000000E+00
  -0.19300000E+01           0.00000000E+00
  -0.19200000E+01           0.00000000E+00
  -0.19100000E+01           0.00000000E+00
  -0.19000000E+01           0.00000000E+00
  -0.18900000E+01           0.00000000E+00
  -0.18800000E+01           0.00000000E+00
  -0.18700000E+01           0.00000000E+00
  -0.18600000E+01           0.00000000E+00
  -0.18500000E+01           0.00000000E+00
  -0.18400000E+01           0.00000000E+00
  -0.18300000E+01           0.00000000E+00
  -0.18200000E+01           0.00000000E+00
  -0.18100000E+01           0.00000000E+00
  -0.18000000E+01           0.00000000E+00
  -0.17900000E+01           0.00000000E+00
  -0.17800000E+01           0.00000000E+00
  -0.17700000E+01           0.00000000E+00
  -0.17600000E+01           0.00000000E+00
  -0.17500000E+01           0.00000000E+00
  -0.17400000E+01           0.00000000E+00
  -0.17300000E+01           0.00000000E+00
  -0.17200000E+01           0.00000000E+00
  -0.17100000E+01           0.00000000E+00
  -0.17000000E+01           0.00000000E+00
  -0.16900000E+01           0.00000000E+00
  -0.16800000E+01           0.00000000E+00
  -0.16700000E+01           0.00000000E+00
  -0.16600000E+01           0.00000000E+00
  -0.16500000E+01           0.00000000E+00
  -0.16400000E+01           0.00000000E+00
  -0.16300000E+01           0.00000000E+00
  -0.16200000E+01           0.00000000E+00
  -0.16100000E+01           0.00000000E+00
  -0.16000000E+01           0.00000000E+00
  -0.15900000E+01           0.00000000E+00
  -0.15800000E+01           0.00000000E+00
  -0.15700000E+01           0.00000000E+00
  -0.15600000E+01           0.00000000E+00
  -0.15500000E+01           0.00000000E+00
  -0.15400000E+01           0.00000000E+00
  -0.15300000E+01           0.00000000E+00
  -0.15200000E+01           0.00000000E+00
  -0.15100000E+01           0.00000000E+00
  -0.15000000E+01           0.00000000E+00
  -0.14900000E+01           0.00000000E+00
[...]
  -0.64000000E+00           0.00000000E+00
  -0.63000000E+00           0.00000000E+00
  -0.62000000E+00           0.00000000E+00
  -0.61000000E+00           0.00000000E+00
  -0.60000000E+00           0.00000000E+00
  -0.59000000E+00           0.00000000E+00
  -0.58000000E+00           0.00000000E+00
  -0.57000000E+00           0.00000000E+00
  -0.56000000E+00           0.00000000E+00
  -0.55000000E+00           0.00000000E+00
  -0.54000000E+00           0.00000000E+00
  -0.53000000E+00           0.00000000E+00
  -0.52000000E+00           0.00000000E+00
  -0.51000000E+00           0.00000000E+00
  -0.50000000E+00           0.00000000E+00
  -0.49000000E+00           0.00000000E+00
  -0.48000000E+00           0.00000000E+00
  -0.47000000E+00           0.00000000E+00
  -0.46000000E+00           0.00000000E+00
  -0.45000000E+00           0.00000000E+00
  -0.44000000E+00           0.00000000E+00
  -0.43000000E+00           0.00000000E+00
  -0.42000000E+00           0.00000000E+00
  -0.41000000E+00           0.00000000E+00
  -0.40000000E+00           0.00000000E+00
  -0.39000000E+00           0.00000000E+00
  -0.38000000E+00           0.00000000E+00
  -0.37000000E+00           0.00000000E+00
  -0.36000000E+00           0.00000000E+00
  -0.35000000E+00           0.00000000E+00
  -0.34000000E+00           0.00000000E+00
  -0.33000000E+00           0.00000000E+00
  -0.32000000E+00           0.00000000E+00
  -0.31000000E+00           0.00000000E+00
  -0.30000000E+00           0.00000000E+00
  -0.29000000E+00           0.00000000E+00
  -0.28000000E+00           0.00000000E+00
  -0.27000000E+00           0.00000000E+00
  -0.26000000E+00           0.00000000E+00
  -0.25000000E+00           0.00000000E+00
  -0.24000000E+00           0.00000000E+00
  -0.23000000E+00           0.00000000E+00
  -0.22000000E+00           0.00000000E+00
  -0.21000000E+00           0.00000000E+00
  -0.20000000E+00           0.00000000E+00
  -0.19000000E+00           0.00000000E+00
  -0.18000000E+00           0.00000000E+00
  -0.17000000E+00           0.00000000E+00
  -0.16000000E+00           0.00000000E+00
  -0.15000000E+00           0.00000000E+00
  -0.14000000E+00           0.00000000E+00
  -0.13000000E+00           0.00000000E+00
  -0.12000000E+00           0.00000000E+00
  -0.11000000E+00           0.00000000E+00
  -0.10000000E+00           0.00000000E+00
  -0.90000000E-01           0.00000000E+00
  -0.80000000E-01           0.00000000E+00
  -0.70000000E-01           0.00000000E+00
  -0.60000000E-01           0.00000000E+00
  -0.50000000E-01           0.00000000E+00
  -0.40000000E-01           0.00000000E+00
  -0.30000000E-01           0.00000000E+00
  -0.20000000E-01           0.00000000E+00
  -0.10000000E-01           0.00000000E+00
   0.00000000E+00           0.34179687E-05
   0.10000000E-01           0.64941406E-04
   0.20000000E-01           0.25371094E-03
   0.30000000E-01           0.54824219E-03
   0.40000000E-01           0.95625000E-03
   0.50000000E-01           0.14732422E-02
   0.60000000E-01           0.21275391E-02
   0.70000000E-01           0.28809570E-02
   0.80000000E-01           0.37513672E-02
   0.90000000E-01           0.47238281E-02
   0.10000000E+00           0.58203125E-02
   0.11000000E+00           0.69325195E-02
   0.12000000E+00           0.82324219E-02
   0.13000000E+00           0.95542969E-02
   0.14000000E+00           0.11079102E-01
   0.15000000E+00           0.12677734E-01
   0.16000000E+00           0.14313184E-01
   0.17000000E+00           0.16075293E-01
   0.18000000E+00           0.17944824E-01
   0.19000000E+00           0.19965723E-01
   0.20000000E+00           0.21910156E-01
   0.21000000E+00           0.24147949E-01
   0.22000000E+00           0.26185352E-01
   0.23000000E+00           0.28631445E-01
   0.24000000E+00           0.30966797E-01
   0.25000000E+00           0.33424609E-01
   0.26000000E+00           0.35870605E-01
   0.27000000E+00           0.38512793E-01
   0.28000000E+00           0.41194043E-01
   0.29000000E+00           0.44008789E-01
   0.30000000E+00           0.46957813E-01
   0.31000000E+00           0.49743066E-01
   0.32000000E+00           0.52775586E-01
   0.33000000E+00           0.55757324E-01
   0.34000000E+00           0.59008008E-01
   0.35000000E+00           0.62199707E-01
   0.36000000E+00           0.65325391E-01
   0.37000000E+00           0.68752539E-01
   0.38000000E+00           0.72196973E-01
   0.39000000E+00           0.75498242E-01
   0.40000000E+00           0.79129199E-01
   0.41000000E+00           0.82653711E-01
   0.42000000E+00           0.86346484E-01
   0.43000000E+00           0.89705762E-01
   0.44000000E+00           0.93392578E-01
   0.45000000E+00           0.97369238E-01
   0.46000000E+00           0.10087744E+00
   0.47000000E+00           0.10490986E+00
   0.48000000E+00           0.10894072E+00
   0.49000000E+00           0.11273457E+00
   0.50000000E+00           0.11687393E+00
   0.51000000E+00           0.12076914E+00
   0.52000000E+00           0.12510059E+00
   0.53000000E+00           0.12903555E+00
   0.54000000E+00           0.13318662E+00
   0.55000000E+00           0.13735957E+00
   0.56000000E+00           0.14150244E+00
   0.57000000E+00           0.14582559E+00
   0.58000000E+00           0.15015820E+00
   0.59000000E+00           0.15443389E+00
   0.60000000E+00           0.15872764E+00
   0.61000000E+00           0.16308105E+00
   0.62000000E+00           0.16742217E+00
   0.63000000E+00           0.17185703E+00
   0.64000000E+00           0.17629219E+00
   0.65000000E+00           0.18105264E+00
   0.66000000E+00           0.18539805E+00
   0.67000000E+00           0.18980234E+00
   0.68000000E+00           0.19447568E+00
   0.69000000E+00           0.19906826E+00
   0.70000000E+00           0.20366162E+00
   0.71000000E+00           0.20841299E+00
   0.72000000E+00           0.21285732E+00
   0.73000000E+00           0.21737979E+00
   0.74000000E+00           0.22194717E+00
   0.75000000E+00           0.22670850E+00
   0.76000000E+00           0.23115879E+00
   0.77000000E+00           0.23567334E+00
   0.78000000E+00           0.24038584E+00
   0.79000000E+00           0.24520342E+00
   0.80000000E+00           0.25004492E+00
   0.81000000E+00           0.25454268E+00
   0.82000000E+00           0.25895010E+00
   0.83000000E+00           0.26383545E+00
   0.84000000E+00           0.26874717E+00
   0.85000000E+00           0.27332461E+00
   0.86000000E+00           0.27777715E+00
   0.87000000E+00           0.28257344E+00
   0.88000000E+00           0.28706895E+00
   0.89000000E+00           0.29193926E+00
   0.90000000E+00           0.29623936E+00
   0.91000000E+00           0.30115332E+00
   0.92000000E+00           0.30521494E+00
   0.93000000E+00           0.30991895E+00
   0.94000000E+00           0.31486387E+00
   0.95000000E+00           0.31919629E+00
   0.96000000E+00           0.32366592E+00
   0.97000000E+00           0.32834365E+00
   0.98000000E+00           0.33299541E+00
   0.99000000E+00           0.33740205E+00
   0.10000000E+01           0.34166885E+00
   0.10100000E+01           0.34629346E+00
   0.10200000E+01           0.35095107E+00
   0.10300000E+01           0.35491611E+00
   0.10400000E+01           0.35904727E+00
   0.10500000E+01           0.36385791E+00
   0.10600000E+01           0.36808184E+00
   0.10700000E+01           0.37240215E+00
   0.10800000E+01           0.37650947E+00
   0.10900000E+01           0.38084912E+00
   0.11000000E+01           0.38515234E+00
   0.11100000E+01           0.38913174E+00
   0.11200000E+01           0.39316895E+00
   0.11300000E+01           0.39727227E+00
   0.11400000E+01           0.40146201E+00
   0.11500000E+01           0.40529141E+00
   0.11600000E+01           0.40923779E+00
   0.11700000E+01           0.41315937E+00
   0.11800000E+01           0.41680117E+00
   0.11900000E+01           0.42094102E+00
   0.12000000E+01           0.42478662E+00
   0.12100000E+01           0.42839570E+00
   0.12200000E+01           0.43209443E+00
   0.12300000E+01           0.43577461E+00
   0.12400000E+01           0.43879053E+00
   0.12500000E+01           0.44281367E+00
   0.12600000E+01           0.44670967E+00
   0.12700000E+01           0.45006025E+00
   0.12800000E+01           0.45349316E+00
   0.12900000E+01           0.45691514E+00
   0.13000000E+01           0.46019619E+00
   0.13100000E+01           0.46296289E+00
   0.13200000E+01           0.46621572E+00
   0.13300000E+01           0.46963730E+00
   0.13400000E+01           0.47232520E+00
   0.13500000E+01           0.47581191E+00
   0.13600000E+01           0.47849893E+00
   0.13700000E+01           0.48163398E+00
   0.13800000E+01           0.48405742E+00
   0.13900000E+01           0.48679258E+00
   0.14000000E+01           0.48965117E+00
   0.14100000E+01           0.49245186E+00
   0.14200000E+01           0.49439609E+00
   0.14300000E+01           0.49687314E+00
   0.14400000E+01           0.49940801E+00
   0.14500000E+01           0.50181670E+00
   0.14600000E+01           0.50377129E+00
   0.14700000E+01           0.50631416E+00
   0.14800000E+01           0.50867666E+00
   0.14900000E+01           0.51055937E+00
   0.15000000E+01           0.51270098E+00
   0.15100000E+01           0.51462041E+00
   0.15200000E+01           0.51611123E+00
   0.15300000E+01           0.51828438E+00
   0.15400000E+01           0.51960264E+00
   0.15500000E+01           0.52167549E+00
   0.15600000E+01           0.52317256E+00
   0.15700000E+01           0.52415762E+00
   0.15800000E+01           0.52559375E+00
   0.15900000E+01           0.52682490E+00
   0.16000000E+01           0.52753975E+00
   0.16100000E+01           0.52918135E+00
   0.16200000E+01           0.52971563E+00
   0.16300000E+01           0.53104854E+00
   0.16400000E+01           0.53187158E+00
   0.16500000E+01           0.53255742E+00
   0.16600000E+01           0.53348057E+00
   0.16700000E+01           0.53362510E+00
   0.16800000E+01           0.53458945E+00
   0.16900000E+01           0.53460713E+00
   0.17000000E+01           0.53443320E+00
   0.17100000E+01           0.53509902E+00
   0.17200000E+01           0.53513721E+00
   0.17300000E+01           0.53515420E+00
   0.17400000E+01           0.53483047E+00
   0.17500000E+01           0.53516270E+00
   0.17600000E+01           0.53454609E+00
   0.17700000E+01           0.53377441E+00
   0.17800000E+01           0.53355820E+00
   0.17900000E+01           0.53340400E+00
   0.18000000E+01           0.53220723E+00
   0.18100000E+01           0.53119902E+00
   0.18200000E+01           0.53005322E+00
   0.18300000E+01           0.52955020E+00
   0.18400000E+01           0.52869863E+00
   0.18500000E+01           0.52695596E+00
   0.18600000E+01           0.52622051E+00
   0.18700000E+01           0.52435859E+00
   0.18800000E+01           0.52297354E+00
   0.18900000E+01           0.52160107E+00
   0.19000000E+01           0.51921426E+00
   0.19100000E+01           0.51742627E+00
   0.19200000E+01           0.51582012E+00
   0.19300000E+01           0.51296816E+00
   0.19400000E+01           0.51125273E+00
   0.19500000E+01           0.50912393E+00
   0.19600000E+01           0.50659131E+00
   0.19700000E+01           0.50386729E+00
   0.19800000E+01           0.50083242E+00
   0.19900000E+01           0.49871562E+00
   0.20000000E+01           0.49537930E+00
   0.20100000E+01           0.49245176E+00
   0.20200000E+01           0.48893613E+00
   0.20300000E+01           0.48629248E+00
   0.20400000E+01           0.48323701E+00
   0.20500000E+01           0.47999756E+00
   0.20600000E+01           0.47688701E+00
   0.20700000E+01           0.47442871E+00
   0.20800000E+01           0.47033359E+00
   0.20900000E+01           0.46701592E+00
   0.21000000E+01           0.46437783E+00
   0.21100000E+01           0.46112715E+00
   0.21200000E+01           0.45818682E+00
   0.21300000E+01           0.45447109E+00
   0.21400000E+01           0.45167920E+00
   0.21500000E+01           0.44824482E+00
   0.21600000E+01           0.44483145E+00
   0.21700000E+01           0.44204082E+00
   0.21800000E+01           0.43858525E+00
   0.21900000E+01           0.43477930E+00
   0.22000000E+01           0.43186191E+00
   0.22100000E+01           0.42835752E+00
   0.22200000E+01           0.42483145E+00
   0.22300000E+01           0.42167725E+00
   0.22400000E+01           0.41833535E+00
   0.22500000E+01           0.41484170E+00
   0.22600000E+01           0.41127070E+00
   0.22700000E+01           0.40821943E+00
   0.22800000E+01           0.40460898E+00
   0.22900000E+01           0.40144971E+00
   0.23000000E+01           0.39780898E+00
   0.23100000E+01           0.39423867E+00
   0.23200000E+01           0.39092500E+00
   0.23300000E+01           0.38731338E+00
   0.23400000E+01           0.38370479E+00
   0.23500000E+01           0.38027646E+00
   0.23600000E+01           0.37688311E+00
   0.23700000E+01           0.37315732E+00
   0.23800000E+01           0.37016143E+00
   0.23900000E+01           0.36649160E+00
   0.24000000E+01           0.36303936E+00
   0.24100000E+01           0.36005293E+00
   0.24200000E+01           0.35628633E+00
   0.24300000E+01           0.35232998E+00
   0.24400000E+01           0.34898975E+00
   0.24500000E+01           0.34550684E+00
   0.24600000E+01           0.34202812E+00
   0.24700000E+01           0.33858848E+00
   0.24800000E+01           0.33508721E+00
   0.24900000E+01           0.33102842E+00
   0.25000000E+01           0.32765713E+00
   0.25100000E+01           0.32436787E+00
   0.25200000E+01           0.32111992E+00
   0.25300000E+01           0.31741348E+00
   0.25400000E+01           0.31369854E+00
   0.25500000E+01           0.31057568E+00
   0.25600000E+01           0.30694307E+00
   0.25700000E+01           0.30371074E+00
   0.25800000E+01           0.29971377E+00
   0.25900000E+01           0.29617969E+00
   0.26000000E+01           0.29310840E+00
   0.26100000E+01           0.28980391E+00
   0.26200000E+01           0.28613779E+00
   0.26300000E+01           0.28237305E+00
   0.26400000E+01           0.27901631E+00
   0.26500000E+01           0.27582490E+00
   0.26600000E+01           0.27240918E+00
   0.26700000E+01           0.26896504E+00
   0.26800000E+01           0.26511143E+00
   0.26900000E+01           0.26205947E+00
   0.27000000E+01           0.25893691E+00
   0.27100000E+01           0.25510713E+00
   0.27200000E+01           0.25154180E+00
   0.27300000E+01           0.24810381E+00
   0.27400000E+01           0.24462637E+00
   0.27500000E+01           0.24167510E+00
   0.27600000E+01           0.23825137E+00
   0.27700000E+01           0.23501748E+00
   0.27800000E+01           0.23157148E+00
   0.27900000E+01           0.22812852E+00
   0.28000000E+01           0.22527949E+00
   0.28100000E+01           0.22190859E+00
   0.28200000E+01           0.21868115E+00
   0.28300000E+01           0.21496113E+00
   0.28400000E+01           0.21199639E+00
   0.28500000E+01           0.20877637E+00
   0.28600000E+01           0.20549414E+00
   0.28700000E+01           0.20233750E+00
   0.28800000E+01           0.19919512E+00
   0.28900000E+01           0.19639902E+00
   0.29000000E+01           0.19279395E+00
   0.29100000E+01           0.18979023E+00
   0.29200000E+01           0.18665605E+00
   0.29300000E+01           0.18338848E+00
   0.29400000E+01           0.18031719E+00
   0.29500000E+01           0.17734141E+00
   0.29600000E+01           0.17422080E+00
   0.29700000E+01           0.17118555E+00
   0.29800000E+01           0.16822158E+00
   0.29900000E+01           0.16537168E+00
   0.30000000E+01           0.16214756E+00
   0.30100000E+01           0.15953438E+00
   0.30200000E+01           0.15618086E+00
   0.30300000E+01           0.15345303E+00
   0.30400000E+01           0.15028574E+00
   0.30500000E+01           0.14741709E+00
   0.30600000E+01           0.14477988E+00
   0.30700000E+01           0.14191348E+00
   0.30800000E+01           0.13898574E+00
   0.30900000E+01           0.13627842E+00
   0.31000000E+01           0.13329180E+00
   0.31100000E+01           0.13061436E+00
   0.31200000E+01           0.12793203E+00
   0.31300000E+01           0.12540801E+00
   0.31400000E+01           0.12267207E+00
   0.31500000E+01           0.12009707E+00
   0.31600000E+01           0.11724219E+00
   0.31700000E+01           0.11460039E+00
   0.31800000E+01           0.11215469E+00
   0.31900000E+01           0.10953203E+00
   0.32000000E+01           0.10708711E+00
   0.32100000E+01           0.10442451E+00
   0.32200000E+01           0.10210918E+00
   0.32300000E+01           0.99440332E-01
   0.32400000E+01           0.96994141E-01
   0.32500000E+01           0.94706250E-01
   0.32600000E+01           0.92326758E-01
   0.32700000E+01           0.89840820E-01
   0.32800000E+01           0.87573047E-01
   0.32900000E+01           0.85301855E-01
   0.33000000E+01           0.82928320E-01
   0.33100000E+01           0.80732910E-01
   0.33200000E+01           0.78518457E-01
   0.33300000E+01           0.76396875E-01
   0.33400000E+01           0.74226855E-01
   0.33500000E+01           0.71882910E-01
   0.33600000E+01           0.69885645E-01
   0.33700000E+01           0.67923535E-01
   0.33800000E+01           0.65800098E-01
   0.33900000E+01           0.63682715E-01
   0.34000000E+01           0.61728027E-01
   0.34100000E+01           0.59746777E-01
   0.34200000E+01           0.57836816E-01
   0.34300000E+01           0.55875781E-01
   0.34400000E+01           0.53999609E-01
   0.34500000E+01           0.52100195E-01
   0.34600000E+01           0.50257812E-01
   0.34700000E+01           0.48514355E-01
   0.34800000E+01           0.46754492E-01
   0.34900000E+01           0.45024707E-01
   0.35000000E+01           0.43340039E-01
   0.35100000E+01           0.41575098E-01
   0.35200000E+01           0.39922559E-01
   0.35300000E+01           0.38346875E-01
   0.35400000E+01           0.36824902E-01
   0.35500000E+01           0.35175586E-01
   0.35600000E+01           0.33744727E-01
   0.35700000E+01           0.32249805E-01
   0.35800000E+01           0.30741797E-01
   0.35900000E+01           0.29204395E-01
   0.36000000E+01           0.27933887E-01
   0.36100000E+01           0.26595801E-01
   0.36200000E+01           0.25328516E-01
   0.36300000E+01           0.24006641E-01
   0.36400000E+01           0.22759668E-01
   0.36500000E+01           0.21508496E-01
   0.36600000E+01           0.20165039E-01
   0.36700000E+01           0.19116602E-01
   0.36800000E+01           0.18039453E-01
   0.36900000E+01           0.16899316E-01
   0.37000000E+01           0.15784766E-01
   0.37100000E+01           0.14865918E-01
   0.37200000E+01           0.13867480E-01
   0.37300000E+01           0.12862695E-01
   0.37400000E+01           0.11908594E-01
   0.37500000E+01           0.11019141E-01
   0.37600000E+01           0.10195801E-01
   0.37700000E+01           0.93365234E-02
   0.37800000E+01           0.85551758E-02
   0.37900000E+01           0.78315430E-02
   0.38000000E+01           0.71239258E-02
   0.38100000E+01           0.64384766E-02
   0.38200000E+01           0.57621094E-02
   0.38300000E+01           0.51455078E-02
   0.38400000E+01           0.45503906E-02
   0.38500000E+01           0.40014648E-02
   0.38600000E+01           0.34750977E-02
   0.38700000E+01           0.30370117E-02
   0.38800000E+01           0.25898437E-02
   0.38900000E+01           0.21664062E-02
   0.39000000E+01           0.17738281E-02
   0.39100000E+01           0.14606445E-02
   0.39200000E+01           0.11315430E-02
   0.39300000E+01           0.86464844E-03
   0.39400000E+01           0.64384766E-03
   0.39500000E+01           0.45380859E-03
   0.39600000E+01           0.29101562E-03
   0.39700000E+01           0.16171875E-03
   0.39800000E+01           0.73632812E-04
   0.39900000E+01           0.21289062E-04
   0.40000000E+01           0.58593750E-06
