 #written on 13Aug2024 at 06:50:08 
 #----------------- MONTECARLO -------------------#
 #        M                      P(M)             #
 #------------------------------------------------#
 #T=   200.0000
  -0.20000000E+01           0.00000000E+00
  -0.19900000E+01           0.00000000E+00
  -0.19800000E+01           0.00000000E+00
  -0.19700000E+01           0.00000000E+00
  -0.19600000E+01           0.00000000E+00
  -0.19500000E+01           0.00000000E+00
  -0.19400000E+01           0.00000000E+00
  -0.19300000E+01           0.00000000E+00
  -0.19200000E+01           0.00000000E+00
  -0.19100000E+01           0.00000000E+00
  -0.19000000E+01           0.00000000E+00
  -0.18900000E+01           0.00000000E+00
  -0.18800000E+01           0.00000000E+00
  -0.18700000E+01           0.00000000E+00
  -0.18600000E+01           0.00000000E+00
  -0.18500000E+01           0.00000000E+00
  -0.18400000E+01           0.00000000E+00
  -0.18300000E+01           0.00000000E+00
  -0.18200000E+01           0.00000000E+00
  -0.18100000E+01           0.00000000E+00
  -0.18000000E+01           0.00000000E+00
  -0.17900000E+01           0.00000000E+00
  -0.17800000E+01           0.00000000E+00
  -0.17700000E+01           0.00000000E+00
  -0.17600000E+01           0.00000000E+00
  -0.17500000E+01           0.00000000E+00
  -0.17400000E+01           0.00000000E+00
  -0.17300000E+01           0.00000000E+00
  -0.17200000E+01           0.00000000E+00
  -0.17100000E+01           0.00000000E+00
  -0.17000000E+01           0.00000000E+00
  -0.16900000E+01           0.00000000E+00
  -0.16800000E+01           0.00000000E+00
  -0.16700000E+01           0.00000000E+00
  -0.16600000E+01           0.00000000E+00
  -0.16500000E+01           0.00000000E+00
  -0.16400000E+01           0.00000000E+00
  -0.16300000E+01           0.00000000E+00
  -0.16200000E+01           0.00000000E+00
  -0.16100000E+01           0.00000000E+00
  -0.16000000E+01           0.00000000E+00
  -0.15900000E+01           0.00000000E+00
  -0.15800000E+01           0.00000000E+00
  -0.15700000E+01           0.00000000E+00
  -0.15600000E+01           0.00000000E+00
  -0.15500000E+01           0.00000000E+00
  -0.15400000E+01           0.00000000E+00
  -0.15300000E+01           0.00000000E+00
  -0.15200000E+01           0.00000000E+00
  -0.15100000E+01           0.00000000E+00
  -0.15000000E+01           0.00000000E+00
  -0.14900000E+01           0.00000000E+00
  -0.14800000E+01           0.00000000E+00
  -0.14700000E+01           0.00000000E+00
  -0.14600000E+01           0.00000000E+00
  -0.14500000E+01           0.00000000E+00
  -0.14400000E+01           0.00000000E+00
  -0.14300000E+01           0.00000000E+00
  -0.14200000E+01           0.00000000E+00
  -0.14100000E+01           0.00000000E+00
  -0.14000000E+01           0.00000000E+00
  -0.13900000E+01           0.00000000E+00
  -0.13800000E+01           0.00000000E+00
  -0.13700000E+01           0.00000000E+00
  -0.13600000E+01           0.00000000E+00
  -0.13500000E+01           0.00000000E+00
  -0.13400000E+01           0.00000000E+00
  -0.13300000E+01           0.00000000E+00
  -0.13200000E+01           0.00000000E+00
  -0.13100000E+01           0.00000000E+00
  -0.13000000E+01           0.00000000E+00
  -0.12900000E+01           0.00000000E+00
  -0.12800000E+01           0.00000000E+00
  -0.12700000E+01           0.00000000E+00
  -0.12600000E+01           0.00000000E+00
  -0.12500000E+01           0.00000000E+00
  -0.12400000E+01           0.00000000E+00
  -0.12300000E+01           0.00000000E+00
  -0.12200000E+01           0.00000000E+00
  -0.12100000E+01           0.00000000E+00
  -0.12000000E+01           0.00000000E+00
  -0.11900000E+01           0.00000000E+00
  -0.11800000E+01           0.00000000E+00
  -0.11700000E+01           0.00000000E+00
  -0.11600000E+01           0.00000000E+00
  -0.11500000E+01           0.00000000E+00
  -0.11400000E+01           0.00000000E+00
  -0.11300000E+01           0.00000000E+00
  -0.11200000E+01           0.00000000E+00
  -0.11100000E+01           0.00000000E+00
  -0.11000000E+01           0.00000000E+00
  -0.10900000E+01           0.00000000E+00
  -0.10800000E+01           0.00000000E+00
  -0.10700000E+01           0.00000000E+00
  -0.10600000E+01           0.00000000E+00
  -0.10500000E+01           0.00000000E+00
  -0.10400000E+01           0.00000000E+00
  -0.10300000E+01           0.00000000E+00
  -0.10200000E+01           0.00000000E+00
  -0.10100000E+01           0.00000000E+00
  -0.10000000E+01           0.00000000E+00
  -0.99000000E+00           0.00000000E+00
  -0.98000000E+00           0.00000000E+00
  -0.97000000E+00           0.00000000E+00
  -0.96000000E+00           0.00000000E+00
  -0.95000000E+00           0.00000000E+00
  -0.94000000E+00           0.00000000E+00
  -0.93000000E+00           0.00000000E+00
  -0.92000000E+00           0.00000000E+00
  -0.91000000E+00           0.00000000E+00
  -0.90000000E+00           0.00000000E+00
  -0.89000000E+00           0.00000000E+00
  -0.88000000E+00           0.00000000E+00
  -0.87000000E+00           0.00000000E+00
  -0.86000000E+00           0.00000000E+00
  -0.85000000E+00           0.00000000E+00
  -0.84000000E+00           0.00000000E+00
  -0.83000000E+00           0.00000000E+00
  -0.82000000E+00           0.00000000E+00
  -0.81000000E+00           0.00000000E+00
  -0.80000000E+00           0.00000000E+00
  -0.79000000E+00           0.00000000E+00
  -0.78000000E+00           0.00000000E+00
  -0.77000000E+00           0.00000000E+00
  -0.76000000E+00           0.00000000E+00
  -0.75000000E+00           0.00000000E+00
  -0.74000000E+00           0.00000000E+00
  -0.73000000E+00           0.00000000E+00
  -0.72000000E+00           0.00000000E+00
  -0.71000000E+00           0.00000000E+00
  -0.70000000E+00           0.00000000E+00
  -0.69000000E+00           0.00000000E+00
  -0.68000000E+00           0.00000000E+00
  -0.67000000E+00           0.00000000E+00
  -0.66000000E+00           0.00000000E+00
  -0.65000000E+00           0.00000000E+00
  -0.64000000E+00           0.00000000E+00
  -0.63000000E+00           0.00000000E+00
  -0.62000000E+00           0.00000000E+00
  -0.61000000E+00           0.00000000E+00
  -0.60000000E+00           0.00000000E+00
  -0.59000000E+00           0.00000000E+00
  -0.58000000E+00           0.00000000E+00
  -0.57000000E+00           0.00000000E+00
  -0.56000000E+00           0.00000000E+00
  -0.55000000E+00           0.00000000E+00
  -0.54000000E+00           0.00000000E+00
  -0.53000000E+00           0.00000000E+00
  -0.52000000E+00           0.00000000E+00
  -0.51000000E+00           0.00000000E+00
  -0.50000000E+00           0.00000000E+00
  -0.49000000E+00           0.00000000E+00
  -0.48000000E+00           0.00000000E+00
  -0.47000000E+00           0.00000000E+00
  -0.46000000E+00           0.00000000E+00
  -0.45000000E+00           0.00000000E+00
  -0.44000000E+00           0.00000000E+00
  -0.43000000E+00           0.00000000E+00
  -0.42000000E+00           0.00000000E+00
  -0.41000000E+00           0.00000000E+00
  -0.40000000E+00           0.00000000E+00
  -0.39000000E+00           0.00000000E+00
  -0.38000000E+00           0.00000000E+00
  -0.37000000E+00           0.00000000E+00
  -0.36000000E+00           0.00000000E+00
  -0.35000000E+00           0.00000000E+00
  -0.34000000E+00           0.00000000E+00
  -0.33000000E+00           0.00000000E+00
  -0.32000000E+00           0.00000000E+00
  -0.31000000E+00           0.00000000E+00
  -0.30000000E+00           0.00000000E+00
  -0.29000000E+00           0.00000000E+00
  -0.28000000E+00           0.00000000E+00
  -0.27000000E+00           0.00000000E+00
  -0.26000000E+00           0.00000000E+00
  -0.25000000E+00           0.00000000E+00
  -0.24000000E+00           0.00000000E+00
  -0.23000000E+00           0.00000000E+00
  -0.22000000E+00           0.00000000E+00
  -0.21000000E+00           0.00000000E+00
  -0.20000000E+00           0.00000000E+00
  -0.19000000E+00           0.00000000E+00
  -0.18000000E+00           0.00000000E+00
  -0.17000000E+00           0.00000000E+00
  -0.16000000E+00           0.00000000E+00
  -0.15000000E+00           0.00000000E+00
  -0.14000000E+00           0.00000000E+00
  -0.13000000E+00           0.00000000E+00
  -0.12000000E+00           0.00000000E+00
  -0.11000000E+00           0.00000000E+00
  -0.10000000E+00           0.00000000E+00
  -0.90000000E-01           0.00000000E+00
  -0.80000000E-01           0.00000000E+00
  -0.70000000E-01           0.00000000E+00
  -0.60000000E-01           0.00000000E+00
  -0.50000000E-01           0.00000000E+00
  -0.40000000E-01           0.00000000E+00
  -0.30000000E-01           0.00000000E+00
  -0.20000000E-01           0.00000000E+00
  -0.10000000E-01           0.00000000E+00
   0.00000000E+00           0.39807111E-02
   0.10000000E-01           0.32204178E-01
   0.20000000E-01           0.64466133E-01
   0.30000000E-01           0.96434756E-01
   0.40000000E-01           0.12867724E+00
   0.50000000E-01           0.16059493E+00
   0.60000000E-01           0.19219049E+00
   0.70000000E-01           0.22374604E+00
   0.80000000E-01           0.25540684E+00
   0.90000000E-01           0.28637333E+00
   0.10000000E+00           0.31708489E+00
   0.11000000E+00           0.34792756E+00
   0.12000000E+00           0.37854249E+00
   0.13000000E+00           0.40792924E+00
   0.14000000E+00           0.43719360E+00
   0.15000000E+00           0.46643893E+00
   0.16000000E+00           0.49525138E+00
   0.17000000E+00           0.52355547E+00
   0.18000000E+00           0.55158142E+00
   0.19000000E+00           0.57834827E+00
   0.20000000E+00           0.60509956E+00
   0.21000000E+00           0.63113760E+00
   0.22000000E+00           0.65763591E+00
   0.23000000E+00           0.68166489E+00
   0.24000000E+00           0.70571884E+00
   0.25000000E+00           0.72994880E+00
   0.26000000E+00           0.75349582E+00
   0.27000000E+00           0.77555404E+00
   0.28000000E+00           0.79750240E+00
   0.29000000E+00           0.81877253E+00
   0.30000000E+00           0.83959173E+00
   0.31000000E+00           0.85822036E+00
   0.32000000E+00           0.87827796E+00
   0.33000000E+00           0.89589582E+00
   0.34000000E+00           0.91333529E+00
   0.35000000E+00           0.92971840E+00
   0.36000000E+00           0.94487573E+00
   0.37000000E+00           0.96017644E+00
   0.38000000E+00           0.97513324E+00
   0.39000000E+00           0.98824133E+00
   0.40000000E+00           0.10008943E+01
   0.41000000E+00           0.10133282E+01
   0.42000000E+00           0.10242302E+01
   0.43000000E+00           0.10352078E+01
   0.44000000E+00           0.10435636E+01
   0.45000000E+00           0.10521884E+01
   0.46000000E+00           0.10604589E+01
   0.47000000E+00           0.10676180E+01
   0.48000000E+00           0.10739224E+01
   0.49000000E+00           0.10803387E+01
   0.50000000E+00           0.10848676E+01
   0.51000000E+00           0.10885569E+01
   0.52000000E+00           0.10927717E+01
   0.53000000E+00           0.10955404E+01
   0.54000000E+00           0.10970204E+01
   0.55000000E+00           0.10975724E+01
   0.56000000E+00           0.10983534E+01
   0.57000000E+00           0.10978804E+01
   0.58000000E+00           0.10970431E+01
   0.59000000E+00           0.10954967E+01
   0.60000000E+00           0.10926284E+01
   0.61000000E+00           0.10890181E+01
   0.62000000E+00           0.10862706E+01
   0.63000000E+00           0.10819584E+01
   0.64000000E+00           0.10766519E+01
   0.65000000E+00           0.10711258E+01
   0.66000000E+00           0.10655004E+01
   0.67000000E+00           0.10590075E+01
   0.68000000E+00           0.10513537E+01
   0.69000000E+00           0.10440476E+01
   0.70000000E+00           0.10353484E+01
   0.71000000E+00           0.10266746E+01
   0.72000000E+00           0.10178835E+01
   0.73000000E+00           0.10089477E+01
   0.74000000E+00           0.99878516E+00
   0.75000000E+00           0.98809733E+00
   0.76000000E+00           0.97720853E+00
   0.77000000E+00           0.96611156E+00
   0.78000000E+00           0.95487227E+00
   0.79000000E+00           0.94232924E+00
   0.80000000E+00           0.93033040E+00
   0.81000000E+00           0.91792676E+00
   0.82000000E+00           0.90556124E+00
   0.83000000E+00           0.89195831E+00
   0.84000000E+00           0.87937120E+00
   0.85000000E+00           0.86575280E+00
   0.86000000E+00           0.85222444E+00
   0.87000000E+00           0.83800391E+00
   0.88000000E+00           0.82486400E+00
   0.89000000E+00           0.81032738E+00
   0.90000000E+00           0.79565867E+00
   0.91000000E+00           0.78121458E+00
   0.92000000E+00           0.76730684E+00
   0.93000000E+00           0.75285573E+00
   0.94000000E+00           0.73844898E+00
   0.95000000E+00           0.72353342E+00
   0.96000000E+00           0.70900916E+00
   0.97000000E+00           0.69380124E+00
   0.98000000E+00           0.67881084E+00
   0.99000000E+00           0.66456204E+00
   0.10000000E+01           0.64936773E+00
   0.10100000E+01           0.63581564E+00
   0.10200000E+01           0.62084080E+00
   0.10300000E+01           0.60651591E+00
   0.10400000E+01           0.59162658E+00
   0.10500000E+01           0.57734613E+00
   0.10600000E+01           0.56327387E+00
   0.10700000E+01           0.54863396E+00
   0.10800000E+01           0.53501582E+00
   0.10900000E+01           0.52121316E+00
   0.11000000E+01           0.50742276E+00
   0.11100000E+01           0.49346418E+00
   0.11200000E+01           0.48032409E+00
   0.11300000E+01           0.46696107E+00
   0.11400000E+01           0.45353867E+00
   0.11500000E+01           0.44054480E+00
   0.11600000E+01           0.42808018E+00
   0.11700000E+01           0.41489947E+00
   0.11800000E+01           0.40285129E+00
   0.11900000E+01           0.39087209E+00
   0.12000000E+01           0.37847849E+00
   0.12100000E+01           0.36685360E+00
   0.12200000E+01           0.35540684E+00
   0.12300000E+01           0.34401307E+00
   0.12400000E+01           0.33242276E+00
   0.12500000E+01           0.32192587E+00
   0.12600000E+01           0.31124916E+00
   0.12700000E+01           0.30066978E+00
   0.12800000E+01           0.29036880E+00
   0.12900000E+01           0.28060764E+00
   0.13000000E+01           0.27036791E+00
   0.13100000E+01           0.26110462E+00
   0.13200000E+01           0.25148293E+00
   0.13300000E+01           0.24247662E+00
   0.13400000E+01           0.23341493E+00
   0.13500000E+01           0.22499564E+00
   0.13600000E+01           0.21635289E+00
   0.13700000E+01           0.20796569E+00
   0.13800000E+01           0.20013600E+00
   0.13900000E+01           0.19258862E+00
   0.14000000E+01           0.18469920E+00
   0.14100000E+01           0.17719973E+00
   0.14200000E+01           0.17007867E+00
   0.14300000E+01           0.16325111E+00
   0.14400000E+01           0.15669902E+00
   0.14500000E+01           0.14998649E+00
   0.14600000E+01           0.14373787E+00
   0.14700000E+01           0.13759449E+00
   0.14800000E+01           0.13165289E+00
   0.14900000E+01           0.12608107E+00
   0.15000000E+01           0.12037858E+00
   0.15100000E+01           0.11505431E+00
   0.15200000E+01           0.10967671E+00
   0.15300000E+01           0.10483991E+00
   0.15400000E+01           0.10015680E+00
   0.15500000E+01           0.95516178E-01
   0.15600000E+01           0.90851378E-01
   0.15700000E+01           0.86660178E-01
   0.15800000E+01           0.82680978E-01
   0.15900000E+01           0.78653067E-01
   0.16000000E+01           0.74642578E-01
   0.16100000E+01           0.70994400E-01
   0.16200000E+01           0.67524089E-01
   0.16300000E+01           0.63971289E-01
   0.16400000E+01           0.60862667E-01
   0.16500000E+01           0.57879556E-01
   0.16600000E+01           0.54636711E-01
   0.16700000E+01           0.51836000E-01
   0.16800000E+01           0.49136000E-01
   0.16900000E+01           0.46412889E-01
   0.17000000E+01           0.43990844E-01
   0.17100000E+01           0.41485244E-01
   0.17200000E+01           0.39350400E-01
   0.17300000E+01           0.37057600E-01
   0.17400000E+01           0.35040356E-01
   0.17500000E+01           0.33074222E-01
   0.17600000E+01           0.31095378E-01
   0.17700000E+01           0.29310311E-01
   0.17800000E+01           0.27638933E-01
   0.17900000E+01           0.25888267E-01
   0.18000000E+01           0.24444622E-01
   0.18100000E+01           0.22882044E-01
   0.18200000E+01           0.21494578E-01
   0.18300000E+01           0.20134844E-01
   0.18400000E+01           0.18878222E-01
   0.18500000E+01           0.17690489E-01
   0.18600000E+01           0.16632889E-01
   0.18700000E+01           0.15396622E-01
   0.18800000E+01           0.14517156E-01
   0.18900000E+01           0.13479733E-01
   0.19000000E+01           0.12590756E-01
   0.19100000E+01           0.11732889E-01
   0.19200000E+01           0.10877333E-01
   0.19300000E+01           0.10148356E-01
   0.19400000E+01           0.93919111E-02
   0.19500000E+01           0.87312889E-02
   0.19600000E+01           0.81049778E-02
   0.19700000E+01           0.75030222E-02
   0.19800000E+01           0.69998222E-02
   0.19900000E+01           0.64670222E-02
   0.20000000E+01           0.30139556E-02
 #T=   201.0000
  -0.20000000E+01           0.00000000E+00
  -0.19900000E+01           0.00000000E+00
  -0.19800000E+01           0.00000000E+00
  -0.19700000E+01           0.00000000E+00
  -0.19600000E+01           0.00000000E+00
  -0.19500000E+01           0.00000000E+00
  -0.19400000E+01           0.00000000E+00
  -0.19300000E+01           0.00000000E+00
  -0.19200000E+01           0.00000000E+00
  -0.19100000E+01           0.00000000E+00
  -0.19000000E+01           0.00000000E+00
  -0.18900000E+01           0.00000000E+00
  -0.18800000E+01           0.00000000E+00
  -0.18700000E+01           0.00000000E+00
  -0.18600000E+01           0.00000000E+00
  -0.18500000E+01           0.00000000E+00
  -0.18400000E+01           0.00000000E+00
  -0.18300000E+01           0.00000000E+00
  -0.18200000E+01           0.00000000E+00
  -0.18100000E+01           0.00000000E+00
  -0.18000000E+01           0.00000000E+00
  -0.17900000E+01           0.00000000E+00
  -0.17800000E+01           0.00000000E+00
  -0.17700000E+01           0.00000000E+00
  -0.17600000E+01           0.00000000E+00
  -0.17500000E+01           0.00000000E+00
  -0.17400000E+01           0.00000000E+00
  -0.17300000E+01           0.00000000E+00
  -0.17200000E+01           0.00000000E+00
  -0.17100000E+01           0.00000000E+00
  -0.17000000E+01           0.00000000E+00
  -0.16900000E+01           0.00000000E+00
  -0.16800000E+01           0.00000000E+00
  -0.16700000E+01           0.00000000E+00
  -0.16600000E+01           0.00000000E+00
  -0.16500000E+01           0.00000000E+00
  -0.16400000E+01           0.00000000E+00
  -0.16300000E+01           0.00000000E+00
  -0.16200000E+01           0.00000000E+00
  -0.16100000E+01           0.00000000E+00
  -0.16000000E+01           0.00000000E+00
  -0.15900000E+01           0.00000000E+00
  -0.15800000E+01           0.00000000E+00
  -0.15700000E+01           0.00000000E+00
  -0.15600000E+01           0.00000000E+00
  -0.15500000E+01           0.00000000E+00
  -0.15400000E+01           0.00000000E+00
  -0.15300000E+01           0.00000000E+00
  -0.15200000E+01           0.00000000E+00
  -0.15100000E+01           0.00000000E+00
  -0.15000000E+01           0.00000000E+00
  -0.14900000E+01           0.00000000E+00
  -0.14800000E+01           0.00000000E+00
  -0.14700000E+01           0.00000000E+00
  -0.14600000E+01           0.00000000E+00
  -0.14500000E+01           0.00000000E+00
  -0.14400000E+01           0.00000000E+00
  -0.14300000E+01           0.00000000E+00
  -0.14200000E+01           0.00000000E+00
  -0.14100000E+01           0.00000000E+00
  -0.14000000E+01           0.00000000E+00
  -0.13900000E+01           0.00000000E+00
  -0.13800000E+01           0.00000000E+00
  -0.13700000E+01           0.00000000E+00
  -0.13600000E+01           0.00000000E+00
  -0.13500000E+01           0.00000000E+00
  -0.13400000E+01           0.00000000E+00
  -0.13300000E+01           0.00000000E+00
  -0.13200000E+01           0.00000000E+00
  -0.13100000E+01           0.00000000E+00
  -0.13000000E+01           0.00000000E+00
  -0.12900000E+01           0.00000000E+00
  -0.12800000E+01           0.00000000E+00
  -0.12700000E+01           0.00000000E+00
  -0.12600000E+01           0.00000000E+00
  -0.12500000E+01           0.00000000E+00
  -0.12400000E+01           0.00000000E+00
  -0.12300000E+01           0.00000000E+00
  -0.12200000E+01           0.00000000E+00
  -0.12100000E+01           0.00000000E+00
  -0.12000000E+01           0.00000000E+00
  -0.11900000E+01           0.00000000E+00
  -0.11800000E+01           0.00000000E+00
  -0.11700000E+01           0.00000000E+00
  -0.11600000E+01           0.00000000E+00
  -0.11500000E+01           0.00000000E+00
  -0.11400000E+01           0.00000000E+00
  -0.11300000E+01           0.00000000E+00
  -0.11200000E+01           0.00000000E+00
  -0.11100000E+01           0.00000000E+00
  -0.11000000E+01           0.00000000E+00
  -0.10900000E+01           0.00000000E+00
  -0.10800000E+01           0.00000000E+00
  -0.10700000E+01           0.00000000E+00
  -0.10600000E+01           0.00000000E+00
  -0.10500000E+01           0.00000000E+00
  -0.10400000E+01           0.00000000E+00
  -0.10300000E+01           0.00000000E+00
  -0.10200000E+01           0.00000000E+00
  -0.10100000E+01           0.00000000E+00
  -0.10000000E+01           0.00000000E+00
  -0.99000000E+00           0.00000000E+00
  -0.98000000E+00           0.00000000E+00
  -0.97000000E+00           0.00000000E+00
  -0.96000000E+00           0.00000000E+00
  -0.95000000E+00           0.00000000E+00
  -0.94000000E+00           0.00000000E+00
  -0.93000000E+00           0.00000000E+00
  -0.92000000E+00           0.00000000E+00
  -0.91000000E+00           0.00000000E+00
  -0.90000000E+00           0.00000000E+00
  -0.89000000E+00           0.00000000E+00
  -0.88000000E+00           0.00000000E+00
  -0.87000000E+00           0.00000000E+00
  -0.86000000E+00           0.00000000E+00
  -0.85000000E+00           0.00000000E+00
  -0.84000000E+00           0.00000000E+00
  -0.83000000E+00           0.00000000E+00
  -0.82000000E+00           0.00000000E+00
  -0.81000000E+00           0.00000000E+00
  -0.80000000E+00           0.00000000E+00
  -0.79000000E+00           0.00000000E+00
  -0.78000000E+00           0.00000000E+00
  -0.77000000E+00           0.00000000E+00
  -0.76000000E+00           0.00000000E+00
  -0.75000000E+00           0.00000000E+00
  -0.74000000E+00           0.00000000E+00
  -0.73000000E+00           0.00000000E+00
  -0.72000000E+00           0.00000000E+00
  -0.71000000E+00           0.00000000E+00
  -0.70000000E+00           0.00000000E+00
  -0.69000000E+00           0.00000000E+00
  -0.68000000E+00           0.00000000E+00
  -0.67000000E+00           0.00000000E+00
  -0.66000000E+00           0.00000000E+00
  -0.65000000E+00           0.00000000E+00
  -0.64000000E+00           0.00000000E+00
  -0.63000000E+00           0.00000000E+00
  -0.62000000E+00           0.00000000E+00
  -0.61000000E+00           0.00000000E+00
  -0.60000000E+00           0.00000000E+00
  -0.59000000E+00           0.00000000E+00
  -0.58000000E+00           0.00000000E+00
  -0.57000000E+00           0.00000000E+00
  -0.56000000E+00           0.00000000E+00
  -0.55000000E+00           0.00000000E+00
  -0.54000000E+00           0.00000000E+00
  -0.53000000E+00           0.00000000E+00
  -0.52000000E+00           0.00000000E+00
  -0.51000000E+00           0.00000000E+00
  -0.50000000E+00           0.00000000E+00
  -0.49000000E+00           0.00000000E+00
  -0.48000000E+00           0.00000000E+00
  -0.47000000E+00           0.00000000E+00
  -0.46000000E+00           0.00000000E+00
  -0.45000000E+00           0.00000000E+00
  -0.44000000E+00           0.00000000E+00
  -0.43000000E+00           0.00000000E+00
  -0.42000000E+00           0.00000000E+00
  -0.41000000E+00           0.00000000E+00
  -0.40000000E+00           0.00000000E+00
  -0.39000000E+00           0.00000000E+00
  -0.38000000E+00           0.00000000E+00
  -0.37000000E+00           0.00000000E+00
  -0.36000000E+00           0.00000000E+00
  -0.35000000E+00           0.00000000E+00
  -0.34000000E+00           0.00000000E+00
  -0.33000000E+00           0.00000000E+00
  -0.32000000E+00           0.00000000E+00
  -0.31000000E+00           0.00000000E+00
  -0.30000000E+00           0.00000000E+00
  -0.29000000E+00           0.00000000E+00
  -0.28000000E+00           0.00000000E+00
  -0.27000000E+00           0.00000000E+00
  -0.26000000E+00           0.00000000E+00
  -0.25000000E+00           0.00000000E+00
  -0.24000000E+00           0.00000000E+00
  -0.23000000E+00           0.00000000E+00
  -0.22000000E+00           0.00000000E+00
  -0.21000000E+00           0.00000000E+00
  -0.20000000E+00           0.00000000E+00
  -0.19000000E+00           0.00000000E+00
  -0.18000000E+00           0.00000000E+00
  -0.17000000E+00           0.00000000E+00
  -0.16000000E+00           0.00000000E+00
  -0.15000000E+00           0.00000000E+00
  -0.14000000E+00           0.00000000E+00
  -0.13000000E+00           0.00000000E+00
  -0.12000000E+00           0.00000000E+00
  -0.11000000E+00           0.00000000E+00
  -0.10000000E+00           0.00000000E+00
  -0.90000000E-01           0.00000000E+00
  -0.80000000E-01           0.00000000E+00
  -0.70000000E-01           0.00000000E+00
  -0.60000000E-01           0.00000000E+00
  -0.50000000E-01           0.00000000E+00
  -0.40000000E-01           0.00000000E+00
  -0.30000000E-01           0.00000000E+00
  -0.20000000E-01           0.00000000E+00
  -0.10000000E-01           0.00000000E+00
   0.00000000E+00           0.39160000E-02
   0.10000000E-01           0.32081333E-01
   0.20000000E-01           0.64120444E-01
   0.30000000E-01           0.95812444E-01
   0.40000000E-01           0.12755493E+00
   0.50000000E-01           0.15958187E+00
   0.60000000E-01           0.19110560E+00
   0.70000000E-01           0.22204898E+00
   0.80000000E-01           0.25353982E+00
   0.90000000E-01           0.28448996E+00
   0.10000000E+00           0.31545102E+00
   0.11000000E+00           0.34553716E+00
   0.12000000E+00           0.37554338E+00
   0.13000000E+00           0.40521387E+00
   0.14000000E+00           0.43481058E+00
   0.15000000E+00           0.46336604E+00
   0.16000000E+00           0.49211680E+00
   0.17000000E+00           0.52025591E+00
   0.18000000E+00           0.54738080E+00
   0.19000000E+00           0.57451182E+00
   0.20000000E+00           0.60148098E+00
   0.21000000E+00           0.62762382E+00
   0.22000000E+00           0.65286329E+00
   0.23000000E+00           0.67708169E+00
   0.24000000E+00           0.70207920E+00
   0.25000000E+00           0.72491556E+00
   0.26000000E+00           0.74852480E+00
   0.27000000E+00           0.77092960E+00
   0.28000000E+00           0.79271369E+00
   0.29000000E+00           0.81362187E+00
   0.30000000E+00           0.83444418E+00
   0.31000000E+00           0.85397458E+00
   0.32000000E+00           0.87279431E+00
   0.33000000E+00           0.89032409E+00
   0.34000000E+00           0.90835893E+00
   0.35000000E+00           0.92422240E+00
   0.36000000E+00           0.94019093E+00
   0.37000000E+00           0.95539333E+00
   0.38000000E+00           0.96967111E+00
   0.39000000E+00           0.98315111E+00
   0.40000000E+00           0.99578720E+00
   0.41000000E+00           0.10082196E+01
   0.42000000E+00           0.10185804E+01
   0.43000000E+00           0.10289735E+01
   0.44000000E+00           0.10395908E+01
   0.45000000E+00           0.10478174E+01
   0.46000000E+00           0.10554494E+01
   0.47000000E+00           0.10627134E+01
   0.48000000E+00           0.10699636E+01
   0.49000000E+00           0.10751015E+01
   0.50000000E+00           0.10807787E+01
   0.51000000E+00           0.10839521E+01
   0.52000000E+00           0.10879395E+01
   0.53000000E+00           0.10903393E+01
   0.54000000E+00           0.10926901E+01
   0.55000000E+00           0.10934781E+01
   0.56000000E+00           0.10949550E+01
   0.57000000E+00           0.10941684E+01
   0.58000000E+00           0.10931820E+01
   0.59000000E+00           0.10915418E+01
   0.60000000E+00           0.10894825E+01
   0.61000000E+00           0.10855561E+01
   0.62000000E+00           0.10834253E+01
   0.63000000E+00           0.10793140E+01
   0.64000000E+00           0.10738297E+01
   0.65000000E+00           0.10694246E+01
   0.66000000E+00           0.10627282E+01
   0.67000000E+00           0.10570528E+01
   0.68000000E+00           0.10492991E+01
   0.69000000E+00           0.10419563E+01
   0.70000000E+00           0.10344081E+01
   0.71000000E+00           0.10251083E+01
   0.72000000E+00           0.10169432E+01
   0.73000000E+00           0.10076772E+01
   0.74000000E+00           0.99748853E+00
   0.75000000E+00           0.98763191E+00
   0.76000000E+00           0.97632133E+00
   0.77000000E+00           0.96649547E+00
   0.78000000E+00           0.95422453E+00
   0.79000000E+00           0.94283529E+00
   0.80000000E+00           0.93074702E+00
   0.81000000E+00           0.91799742E+00
   0.82000000E+00           0.90567876E+00
   0.83000000E+00           0.89305564E+00
   0.84000000E+00           0.87964453E+00
   0.85000000E+00           0.86631716E+00
   0.86000000E+00           0.85322960E+00
   0.87000000E+00           0.83982836E+00
   0.88000000E+00           0.82544862E+00
   0.89000000E+00           0.81244009E+00
   0.90000000E+00           0.79791200E+00
   0.91000000E+00           0.78322249E+00
   0.92000000E+00           0.76894836E+00
   0.93000000E+00           0.75443218E+00
   0.94000000E+00           0.74014658E+00
   0.95000000E+00           0.72495182E+00
   0.96000000E+00           0.71093351E+00
   0.97000000E+00           0.69648800E+00
   0.98000000E+00           0.68197076E+00
   0.99000000E+00           0.66698293E+00
   0.10000000E+01           0.65269351E+00
   0.10100000E+01           0.63823520E+00
   0.10200000E+01           0.62304738E+00
   0.10300000E+01           0.60910356E+00
   0.10400000E+01           0.59498382E+00
   0.10500000E+01           0.58105920E+00
   0.10600000E+01           0.56619964E+00
   0.10700000E+01           0.55183893E+00
   0.10800000E+01           0.53822062E+00
   0.10900000E+01           0.52467013E+00
   0.11000000E+01           0.51114284E+00
   0.11100000E+01           0.49689564E+00
   0.11200000E+01           0.48405920E+00
   0.11300000E+01           0.47085502E+00
   0.11400000E+01           0.45747600E+00
   0.11500000E+01           0.44458773E+00
   0.11600000E+01           0.43128231E+00
   0.11700000E+01           0.41915849E+00
   0.11800000E+01           0.40649778E+00
   0.11900000E+01           0.39452107E+00
   0.12000000E+01           0.38261333E+00
   0.12100000E+01           0.37062196E+00
   0.12200000E+01           0.35911627E+00
   0.12300000E+01           0.34754338E+00
   0.12400000E+01           0.33635484E+00
   0.12500000E+01           0.32518116E+00
   0.12600000E+01           0.31479191E+00
   0.12700000E+01           0.30425449E+00
   0.12800000E+01           0.29419289E+00
   0.12900000E+01           0.28385813E+00
   0.13000000E+01           0.27376258E+00
   0.13100000E+01           0.26468836E+00
   0.13200000E+01           0.25521271E+00
   0.13300000E+01           0.24588862E+00
   0.13400000E+01           0.23713422E+00
   0.13500000E+01           0.22806293E+00
   0.13600000E+01           0.21968231E+00
   0.13700000E+01           0.21122640E+00
   0.13800000E+01           0.20352818E+00
   0.13900000E+01           0.19549396E+00
   0.14000000E+01           0.18785227E+00
   0.14100000E+01           0.18030773E+00
   0.14200000E+01           0.17351893E+00
   0.14300000E+01           0.16595929E+00
   0.14400000E+01           0.15948560E+00
   0.14500000E+01           0.15285244E+00
   0.14600000E+01           0.14633609E+00
   0.14700000E+01           0.14022720E+00
   0.14800000E+01           0.13437778E+00
   0.14900000E+01           0.12878738E+00
   0.15000000E+01           0.12285804E+00
   0.15100000E+01           0.11756773E+00
   0.15200000E+01           0.11214862E+00
   0.15300000E+01           0.10726427E+00
   0.15400000E+01           0.10242791E+00
   0.15500000E+01           0.97542400E-01
   0.15600000E+01           0.93157422E-01
   0.15700000E+01           0.88944444E-01
   0.15800000E+01           0.84675378E-01
   0.15900000E+01           0.80685689E-01
   0.16000000E+01           0.76703378E-01
   0.16100000E+01           0.72905511E-01
   0.16200000E+01           0.69353867E-01
   0.16300000E+01           0.65984711E-01
   0.16400000E+01           0.62619644E-01
   0.16500000E+01           0.59270756E-01
   0.16600000E+01           0.56335022E-01
   0.16700000E+01           0.53312178E-01
   0.16800000E+01           0.50571289E-01
   0.16900000E+01           0.47912178E-01
   0.17000000E+01           0.45256000E-01
   0.17100000E+01           0.42802044E-01
   0.17200000E+01           0.40619644E-01
   0.17300000E+01           0.38340533E-01
   0.17400000E+01           0.36103644E-01
   0.17500000E+01           0.34152356E-01
   0.17600000E+01           0.32178489E-01
   0.17700000E+01           0.30292800E-01
   0.17800000E+01           0.28506044E-01
   0.17900000E+01           0.26843378E-01
   0.18000000E+01           0.25262400E-01
   0.18100000E+01           0.23773067E-01
   0.18200000E+01           0.22399644E-01
   0.18300000E+01           0.20877600E-01
   0.18400000E+01           0.19736800E-01
   0.18500000E+01           0.18362400E-01
   0.18600000E+01           0.17271378E-01
   0.18700000E+01           0.16123200E-01
   0.18800000E+01           0.15093689E-01
   0.18900000E+01           0.14144978E-01
   0.19000000E+01           0.13194400E-01
   0.19100000E+01           0.12225067E-01
   0.19200000E+01           0.11445333E-01
   0.19300000E+01           0.10661067E-01
   0.19400000E+01           0.99348444E-02
   0.19500000E+01           0.91803556E-02
   0.19600000E+01           0.85375111E-02
   0.19700000E+01           0.79626667E-02
   0.19800000E+01           0.74024000E-02
   0.19900000E+01           0.68141333E-02
   0.20000000E+01           0.32218667E-02
 #T=   202.0000
  -0.20000000E+01           0.00000000E+00
  -0.19900000E+01           0.00000000E+00
  -0.19800000E+01           0.00000000E+00
  -0.19700000E+01           0.00000000E+00
  -0.19600000E+01           0.00000000E+00
  -0.19500000E+01           0.00000000E+00
  -0.19400000E+01           0.00000000E+00
  -0.19300000E+01           0.00000000E+00
  -0.19200000E+01           0.00000000E+00
  -0.19100000E+01           0.00000000E+00
  -0.19000000E+01           0.00000000E+00
  -0.18900000E+01           0.00000000E+00
  -0.18800000E+01           0.00000000E+00
  -0.18700000E+01           0.00000000E+00
  -0.18600000E+01           0.00000000E+00
  -0.18500000E+01           0.00000000E+00
  -0.18400000E+01           0.00000000E+00
  -0.18300000E+01           0.00000000E+00
  -0.18200000E+01           0.00000000E+00
  -0.18100000E+01           0.00000000E+00
  -0.18000000E+01           0.00000000E+00
  -0.17900000E+01           0.00000000E+00
  -0.17800000E+01           0.00000000E+00
  -0.17700000E+01           0.00000000E+00
  -0.17600000E+01           0.00000000E+00
  -0.17500000E+01           0.00000000E+00
  -0.17400000E+01           0.00000000E+00
  -0.17300000E+01           0.00000000E+00
  -0.17200000E+01           0.00000000E+00
  -0.17100000E+01           0.00000000E+00
  -0.17000000E+01           0.00000000E+00
  -0.16900000E+01           0.00000000E+00
  -0.16800000E+01           0.00000000E+00
  -0.16700000E+01           0.00000000E+00
  -0.16600000E+01           0.00000000E+00
  -0.16500000E+01           0.00000000E+00
  -0.16400000E+01           0.00000000E+00
  -0.16300000E+01           0.00000000E+00
  -0.16200000E+01           0.00000000E+00
  -0.16100000E+01           0.00000000E+00
  -0.16000000E+01           0.00000000E+00
  -0.15900000E+01           0.00000000E+00
  -0.15800000E+01           0.00000000E+00
  -0.15700000E+01           0.00000000E+00
  -0.15600000E+01           0.00000000E+00
  -0.15500000E+01           0.00000000E+00
  -0.15400000E+01           0.00000000E+00
  -0.15300000E+01           0.00000000E+00
  -0.15200000E+01           0.00000000E+00
  -0.15100000E+01           0.00000000E+00
  -0.15000000E+01           0.00000000E+00
  -0.14900000E+01           0.00000000E+00
  -0.14800000E+01           0.00000000E+00
  -0.14700000E+01           0.00000000E+00
  -0.14600000E+01           0.00000000E+00
  -0.14500000E+01           0.00000000E+00
  -0.14400000E+01           0.00000000E+00
  -0.14300000E+01           0.00000000E+00
  -0.14200000E+01           0.00000000E+00
  -0.14100000E+01           0.00000000E+00
  -0.14000000E+01           0.00000000E+00
  -0.13900000E+01           0.00000000E+00
  -0.13800000E+01           0.00000000E+00
  -0.13700000E+01           0.00000000E+00
  -0.13600000E+01           0.00000000E+00
  -0.13500000E+01           0.00000000E+00
  -0.13400000E+01           0.00000000E+00
  -0.13300000E+01           0.00000000E+00
  -0.13200000E+01           0.00000000E+00
  -0.13100000E+01           0.00000000E+00
  -0.13000000E+01           0.00000000E+00
  -0.12900000E+01           0.00000000E+00
  -0.12800000E+01           0.00000000E+00
  -0.12700000E+01           0.00000000E+00
  -0.12600000E+01           0.00000000E+00
  -0.12500000E+01           0.00000000E+00
  -0.12400000E+01           0.00000000E+00
  -0.12300000E+01           0.00000000E+00
  -0.12200000E+01           0.00000000E+00
  -0.12100000E+01           0.00000000E+00
  -0.12000000E+01           0.00000000E+00
  -0.11900000E+01           0.00000000E+00
  -0.11800000E+01           0.00000000E+00
  -0.11700000E+01           0.00000000E+00
  -0.11600000E+01           0.00000000E+00
  -0.11500000E+01           0.00000000E+00
  -0.11400000E+01           0.00000000E+00
  -0.11300000E+01           0.00000000E+00
  -0.11200000E+01           0.00000000E+00
  -0.11100000E+01           0.00000000E+00
  -0.11000000E+01           0.00000000E+00
  -0.10900000E+01           0.00000000E+00
  -0.10800000E+01           0.00000000E+00
  -0.10700000E+01           0.00000000E+00
  -0.10600000E+01           0.00000000E+00
  -0.10500000E+01           0.00000000E+00
  -0.10400000E+01           0.00000000E+00
  -0.10300000E+01           0.00000000E+00
  -0.10200000E+01           0.00000000E+00
  -0.10100000E+01           0.00000000E+00
  -0.10000000E+01           0.00000000E+00
  -0.99000000E+00           0.00000000E+00
  -0.98000000E+00           0.00000000E+00
  -0.97000000E+00           0.00000000E+00
  -0.96000000E+00           0.00000000E+00
  -0.95000000E+00           0.00000000E+00
  -0.94000000E+00           0.00000000E+00
  -0.93000000E+00           0.00000000E+00
  -0.92000000E+00           0.00000000E+00
  -0.91000000E+00           0.00000000E+00
  -0.90000000E+00           0.00000000E+00
  -0.89000000E+00           0.00000000E+00
  -0.88000000E+00           0.00000000E+00
  -0.87000000E+00           0.00000000E+00
  -0.86000000E+00           0.00000000E+00
  -0.85000000E+00           0.00000000E+00
  -0.84000000E+00           0.00000000E+00
  -0.83000000E+00           0.00000000E+00
  -0.82000000E+00           0.00000000E+00
  -0.81000000E+00           0.00000000E+00
  -0.80000000E+00           0.00000000E+00
  -0.79000000E+00           0.00000000E+00
  -0.78000000E+00           0.00000000E+00
  -0.77000000E+00           0.00000000E+00
  -0.76000000E+00           0.00000000E+00
  -0.75000000E+00           0.00000000E+00
  -0.74000000E+00           0.00000000E+00
  -0.73000000E+00           0.00000000E+00
  -0.72000000E+00           0.00000000E+00
  -0.71000000E+00           0.00000000E+00
  -0.70000000E+00           0.00000000E+00
  -0.69000000E+00           0.00000000E+00
  -0.68000000E+00           0.00000000E+00
  -0.67000000E+00           0.00000000E+00
  -0.66000000E+00           0.00000000E+00
  -0.65000000E+00           0.00000000E+00
  -0.64000000E+00           0.00000000E+00
  -0.63000000E+00           0.00000000E+00
  -0.62000000E+00           0.00000000E+00
  -0.61000000E+00           0.00000000E+00
  -0.60000000E+00           0.00000000E+00
  -0.59000000E+00           0.00000000E+00
  -0.58000000E+00           0.00000000E+00
  -0.57000000E+00           0.00000000E+00
  -0.56000000E+00           0.00000000E+00
  -0.55000000E+00           0.00000000E+00
  -0.54000000E+00           0.00000000E+00
  -0.53000000E+00           0.00000000E+00
  -0.52000000E+00           0.00000000E+00
  -0.51000000E+00           0.00000000E+00
  -0.50000000E+00           0.00000000E+00
  -0.49000000E+00           0.00000000E+00
  -0.48000000E+00           0.00000000E+00
  -0.47000000E+00           0.00000000E+00
  -0.46000000E+00           0.00000000E+00
  -0.45000000E+00           0.00000000E+00
  -0.44000000E+00           0.00000000E+00
  -0.43000000E+00           0.00000000E+00
  -0.42000000E+00           0.00000000E+00
  -0.41000000E+00           0.00000000E+00
  -0.40000000E+00           0.00000000E+00
  -0.39000000E+00           0.00000000E+00
  -0.38000000E+00           0.00000000E+00
  -0.37000000E+00           0.00000000E+00
  -0.36000000E+00           0.00000000E+00
  -0.35000000E+00           0.00000000E+00
  -0.34000000E+00           0.00000000E+00
  -0.33000000E+00           0.00000000E+00
  -0.32000000E+00           0.00000000E+00
  -0.31000000E+00           0.00000000E+00
  -0.30000000E+00           0.00000000E+00
  -0.29000000E+00           0.00000000E+00
  -0.28000000E+00           0.00000000E+00
  -0.27000000E+00           0.00000000E+00
  -0.26000000E+00           0.00000000E+00
  -0.25000000E+00           0.00000000E+00
  -0.24000000E+00           0.00000000E+00
  -0.23000000E+00           0.00000000E+00
  -0.22000000E+00           0.00000000E+00
  -0.21000000E+00           0.00000000E+00
  -0.20000000E+00           0.00000000E+00
  -0.19000000E+00           0.00000000E+00
  -0.18000000E+00           0.00000000E+00
  -0.17000000E+00           0.00000000E+00
  -0.16000000E+00           0.00000000E+00
  -0.15000000E+00           0.00000000E+00
  -0.14000000E+00           0.00000000E+00
  -0.13000000E+00           0.00000000E+00
  -0.12000000E+00           0.00000000E+00
  -0.11000000E+00           0.00000000E+00
  -0.10000000E+00           0.00000000E+00
  -0.90000000E-01           0.00000000E+00
  -0.80000000E-01           0.00000000E+00
  -0.70000000E-01           0.00000000E+00
  -0.60000000E-01           0.00000000E+00
  -0.50000000E-01           0.00000000E+00
  -0.40000000E-01           0.00000000E+00
  -0.30000000E-01           0.00000000E+00
  -0.20000000E-01           0.00000000E+00
  -0.10000000E-01           0.00000000E+00
   0.00000000E+00           0.39781333E-02
   0.10000000E-01           0.31847022E-01
   0.20000000E-01           0.63629333E-01
   0.30000000E-01           0.95361689E-01
   0.40000000E-01           0.12697671E+00
   0.50000000E-01           0.15813982E+00
   0.60000000E-01           0.18986818E+00
   0.70000000E-01           0.22070960E+00
   0.80000000E-01           0.25190187E+00
   0.90000000E-01           0.28272400E+00
   0.10000000E+00           0.31307280E+00
   0.11000000E+00           0.34334613E+00
   0.12000000E+00           0.37323627E+00
   0.13000000E+00           0.40296480E+00
   0.14000000E+00           0.43164613E+00
   0.15000000E+00           0.46052240E+00
   0.16000000E+00           0.48867467E+00
   0.17000000E+00           0.51668142E+00
   0.18000000E+00           0.54409511E+00
   0.19000000E+00           0.57078098E+00
   0.20000000E+00           0.59762409E+00
   0.21000000E+00           0.62336462E+00
   0.22000000E+00           0.64862133E+00
   0.23000000E+00           0.67365431E+00
   0.24000000E+00           0.69732293E+00
   0.25000000E+00           0.72083858E+00
   0.26000000E+00           0.74404649E+00
   0.27000000E+00           0.76639262E+00
   0.28000000E+00           0.78709609E+00
   0.29000000E+00           0.80875822E+00
   0.30000000E+00           0.82859689E+00
   0.31000000E+00           0.84853378E+00
   0.32000000E+00           0.86678062E+00
   0.33000000E+00           0.88514169E+00
   0.34000000E+00           0.90358631E+00
   0.35000000E+00           0.91911520E+00
   0.36000000E+00           0.93474151E+00
   0.37000000E+00           0.95075173E+00
   0.38000000E+00           0.96479911E+00
   0.39000000E+00           0.97775778E+00
   0.40000000E+00           0.99028853E+00
   0.41000000E+00           0.10027954E+01
   0.42000000E+00           0.10138287E+01
   0.43000000E+00           0.10246945E+01
   0.44000000E+00           0.10337990E+01
   0.45000000E+00           0.10428434E+01
   0.46000000E+00           0.10505384E+01
   0.47000000E+00           0.10586444E+01
   0.48000000E+00           0.10649893E+01
   0.49000000E+00           0.10707126E+01
   0.50000000E+00           0.10757045E+01
   0.51000000E+00           0.10799932E+01
   0.52000000E+00           0.10831112E+01
   0.53000000E+00           0.10864740E+01
   0.54000000E+00           0.10879605E+01
   0.55000000E+00           0.10894731E+01
   0.56000000E+00           0.10905986E+01
   0.57000000E+00           0.10903553E+01
   0.58000000E+00           0.10897123E+01
   0.59000000E+00           0.10878704E+01
   0.60000000E+00           0.10865149E+01
   0.61000000E+00           0.10829344E+01
   0.62000000E+00           0.10803916E+01
   0.63000000E+00           0.10762966E+01
   0.64000000E+00           0.10718113E+01
   0.65000000E+00           0.10667922E+01
   0.66000000E+00           0.10609356E+01
   0.67000000E+00           0.10542469E+01
   0.68000000E+00           0.10473381E+01
   0.69000000E+00           0.10410916E+01
   0.70000000E+00           0.10330828E+01
   0.71000000E+00           0.10248051E+01
   0.72000000E+00           0.10152137E+01
   0.73000000E+00           0.10058142E+01
   0.74000000E+00           0.99652978E+00
   0.75000000E+00           0.98633618E+00
   0.76000000E+00           0.97662498E+00
   0.77000000E+00           0.96577067E+00
   0.78000000E+00           0.95415031E+00
   0.79000000E+00           0.94308071E+00
   0.80000000E+00           0.93154533E+00
   0.81000000E+00           0.91892258E+00
   0.82000000E+00           0.90592640E+00
   0.83000000E+00           0.89414364E+00
   0.84000000E+00           0.88074258E+00
   0.85000000E+00           0.86732951E+00
   0.86000000E+00           0.85410133E+00
   0.87000000E+00           0.84065751E+00
   0.88000000E+00           0.82764782E+00
   0.89000000E+00           0.81337431E+00
   0.90000000E+00           0.79931511E+00
   0.91000000E+00           0.78502062E+00
   0.92000000E+00           0.77094631E+00
   0.93000000E+00           0.75683022E+00
   0.94000000E+00           0.74258427E+00
   0.95000000E+00           0.72856596E+00
   0.96000000E+00           0.71356382E+00
   0.97000000E+00           0.69815662E+00
   0.98000000E+00           0.68434409E+00
   0.99000000E+00           0.66980853E+00
   0.10000000E+01           0.65487209E+00
   0.10100000E+01           0.64105840E+00
   0.10200000E+01           0.62651564E+00
   0.10300000E+01           0.61219538E+00
   0.10400000E+01           0.59797298E+00
   0.10500000E+01           0.58392293E+00
   0.10600000E+01           0.56916524E+00
   0.10700000E+01           0.55554951E+00
   0.10800000E+01           0.54112676E+00
   0.10900000E+01           0.52773111E+00
   0.11000000E+01           0.51401013E+00
   0.11100000E+01           0.50057698E+00
   0.11200000E+01           0.48725200E+00
   0.11300000E+01           0.47399822E+00
   0.11400000E+01           0.46117973E+00
   0.11500000E+01           0.44770044E+00
   0.11600000E+01           0.43451084E+00
   0.11700000E+01           0.42289200E+00
   0.11800000E+01           0.41021804E+00
   0.11900000E+01           0.39829476E+00
   0.12000000E+01           0.38601253E+00
   0.12100000E+01           0.37400249E+00
   0.12200000E+01           0.36286871E+00
   0.12300000E+01           0.35179698E+00
   0.12400000E+01           0.34026009E+00
   0.12500000E+01           0.32933956E+00
   0.12600000E+01           0.31842738E+00
   0.12700000E+01           0.30751360E+00
   0.12800000E+01           0.29730622E+00
   0.12900000E+01           0.28751413E+00
   0.13000000E+01           0.27723556E+00
   0.13100000E+01           0.26787716E+00
   0.13200000E+01           0.25811849E+00
   0.13300000E+01           0.24904738E+00
   0.13400000E+01           0.24021387E+00
   0.13500000E+01           0.23150969E+00
   0.13600000E+01           0.22303636E+00
   0.13700000E+01           0.21442133E+00
   0.13800000E+01           0.20645093E+00
   0.13900000E+01           0.19827902E+00
   0.14000000E+01           0.19101076E+00
   0.14100000E+01           0.18358658E+00
   0.14200000E+01           0.17627200E+00
   0.14300000E+01           0.16918284E+00
   0.14400000E+01           0.16229031E+00
   0.14500000E+01           0.15571333E+00
   0.14600000E+01           0.14927787E+00
   0.14700000E+01           0.14292187E+00
   0.14800000E+01           0.13673271E+00
   0.14900000E+01           0.13120107E+00
   0.15000000E+01           0.12531893E+00
   0.15100000E+01           0.11994898E+00
   0.15200000E+01           0.11465769E+00
   0.15300000E+01           0.10963147E+00
   0.15400000E+01           0.10463431E+00
   0.15500000E+01           0.99902400E-01
   0.15600000E+01           0.95357511E-01
   0.15700000E+01           0.90903378E-01
   0.15800000E+01           0.86614933E-01
   0.15900000E+01           0.82676000E-01
   0.16000000E+01           0.78636800E-01
   0.16100000E+01           0.74717778E-01
   0.16200000E+01           0.71174667E-01
   0.16300000E+01           0.67525511E-01
   0.16400000E+01           0.64219111E-01
   0.16500000E+01           0.61004267E-01
   0.16600000E+01           0.57916000E-01
   0.16700000E+01           0.54970133E-01
   0.16800000E+01           0.51997600E-01
   0.16900000E+01           0.49349067E-01
   0.17000000E+01           0.46599556E-01
   0.17100000E+01           0.44202756E-01
   0.17200000E+01           0.41803556E-01
   0.17300000E+01           0.39538756E-01
   0.17400000E+01           0.37283111E-01
   0.17500000E+01           0.35172978E-01
   0.17600000E+01           0.33343111E-01
   0.17700000E+01           0.31336444E-01
   0.17800000E+01           0.29609156E-01
   0.17900000E+01           0.27912089E-01
   0.18000000E+01           0.26253867E-01
   0.18100000E+01           0.24690133E-01
   0.18200000E+01           0.23120889E-01
   0.18300000E+01           0.21833600E-01
   0.18400000E+01           0.20555111E-01
   0.18500000E+01           0.19172533E-01
   0.18600000E+01           0.17980089E-01
   0.18700000E+01           0.16836444E-01
   0.18800000E+01           0.15781156E-01
   0.18900000E+01           0.14757689E-01
   0.19000000E+01           0.13787289E-01
   0.19100000E+01           0.12920356E-01
   0.19200000E+01           0.11948533E-01
   0.19300000E+01           0.11176711E-01
   0.19400000E+01           0.10383911E-01
   0.19500000E+01           0.97056889E-02
   0.19600000E+01           0.89515556E-02
   0.19700000E+01           0.83560889E-02
   0.19800000E+01           0.77204444E-02
   0.19900000E+01           0.72041778E-02
   0.20000000E+01           0.33849778E-02
 #T=   203.0000
  -0.20000000E+01           0.00000000E+00
  -0.19900000E+01           0.00000000E+00
  -0.19800000E+01           0.00000000E+00
  -0.19700000E+01           0.00000000E+00
  -0.19600000E+01           0.00000000E+00
  -0.19500000E+01           0.00000000E+00
  -0.19400000E+01           0.00000000E+00
  -0.19300000E+01           0.00000000E+00
  -0.19200000E+01           0.00000000E+00
  -0.19100000E+01           0.00000000E+00
  -0.19000000E+01           0.00000000E+00
  -0.18900000E+01           0.00000000E+00
  -0.18800000E+01           0.00000000E+00
  -0.18700000E+01           0.00000000E+00
  -0.18600000E+01           0.00000000E+00
  -0.18500000E+01           0.00000000E+00
  -0.18400000E+01           0.00000000E+00
  -0.18300000E+01           0.00000000E+00
  -0.18200000E+01           0.00000000E+00
  -0.18100000E+01           0.00000000E+00
  -0.18000000E+01           0.00000000E+00
  -0.17900000E+01           0.00000000E+00
  -0.17800000E+01           0.00000000E+00
  -0.17700000E+01           0.00000000E+00
  -0.17600000E+01           0.00000000E+00
  -0.17500000E+01           0.00000000E+00
  -0.17400000E+01           0.00000000E+00
  -0.17300000E+01           0.00000000E+00
  -0.17200000E+01           0.00000000E+00
  -0.17100000E+01           0.00000000E+00
  -0.17000000E+01           0.00000000E+00
  -0.16900000E+01           0.00000000E+00
  -0.16800000E+01           0.00000000E+00
  -0.16700000E+01           0.00000000E+00
  -0.16600000E+01           0.00000000E+00
  -0.16500000E+01           0.00000000E+00
  -0.16400000E+01           0.00000000E+00
  -0.16300000E+01           0.00000000E+00
  -0.16200000E+01           0.00000000E+00
  -0.16100000E+01           0.00000000E+00
  -0.16000000E+01           0.00000000E+00
  -0.15900000E+01           0.00000000E+00
  -0.15800000E+01           0.00000000E+00
  -0.15700000E+01           0.00000000E+00
  -0.15600000E+01           0.00000000E+00
  -0.15500000E+01           0.00000000E+00
  -0.15400000E+01           0.00000000E+00
  -0.15300000E+01           0.00000000E+00
  -0.15200000E+01           0.00000000E+00
  -0.15100000E+01           0.00000000E+00
  -0.15000000E+01           0.00000000E+00
  -0.14900000E+01           0.00000000E+00
  -0.14800000E+01           0.00000000E+00
  -0.14700000E+01           0.00000000E+00
  -0.14600000E+01           0.00000000E+00
  -0.14500000E+01           0.00000000E+00
  -0.14400000E+01           0.00000000E+00
  -0.14300000E+01           0.00000000E+00
  -0.14200000E+01           0.00000000E+00
  -0.14100000E+01           0.00000000E+00
  -0.14000000E+01           0.00000000E+00
  -0.13900000E+01           0.00000000E+00
  -0.13800000E+01           0.00000000E+00
  -0.13700000E+01           0.00000000E+00
  -0.13600000E+01           0.00000000E+00
  -0.13500000E+01           0.00000000E+00
  -0.13400000E+01           0.00000000E+00
  -0.13300000E+01           0.00000000E+00
  -0.13200000E+01           0.00000000E+00
  -0.13100000E+01           0.00000000E+00
  -0.13000000E+01           0.00000000E+00
  -0.12900000E+01           0.00000000E+00
  -0.12800000E+01           0.00000000E+00
  -0.12700000E+01           0.00000000E+00
  -0.12600000E+01           0.00000000E+00
  -0.12500000E+01           0.00000000E+00
  -0.12400000E+01           0.00000000E+00
  -0.12300000E+01           0.00000000E+00
  -0.12200000E+01           0.00000000E+00
  -0.12100000E+01           0.00000000E+00
  -0.12000000E+01           0.00000000E+00
  -0.11900000E+01           0.00000000E+00
  -0.11800000E+01           0.00000000E+00
  -0.11700000E+01           0.00000000E+00
  -0.11600000E+01           0.00000000E+00
  -0.11500000E+01           0.00000000E+00
  -0.11400000E+01           0.00000000E+00
  -0.11300000E+01           0.00000000E+00
  -0.11200000E+01           0.00000000E+00
  -0.11100000E+01           0.00000000E+00
  -0.11000000E+01           0.00000000E+00
  -0.10900000E+01           0.00000000E+00
  -0.10800000E+01           0.00000000E+00
  -0.10700000E+01           0.00000000E+00
  -0.10600000E+01           0.00000000E+00
  -0.10500000E+01           0.00000000E+00
  -0.10400000E+01           0.00000000E+00
  -0.10300000E+01           0.00000000E+00
  -0.10200000E+01           0.00000000E+00
  -0.10100000E+01           0.00000000E+00
  -0.10000000E+01           0.00000000E+00
  -0.99000000E+00           0.00000000E+00
  -0.98000000E+00           0.00000000E+00
  -0.97000000E+00           0.00000000E+00
  -0.96000000E+00           0.00000000E+00
  -0.95000000E+00           0.00000000E+00
  -0.94000000E+00           0.00000000E+00
  -0.93000000E+00           0.00000000E+00
  -0.92000000E+00           0.00000000E+00
  -0.91000000E+00           0.00000000E+00
  -0.90000000E+00           0.00000000E+00
  -0.89000000E+00           0.00000000E+00
  -0.88000000E+00           0.00000000E+00
  -0.87000000E+00           0.00000000E+00
  -0.86000000E+00           0.00000000E+00
  -0.85000000E+00           0.00000000E+00
  -0.84000000E+00           0.00000000E+00
  -0.83000000E+00           0.00000000E+00
  -0.82000000E+00           0.00000000E+00
  -0.81000000E+00           0.00000000E+00
  -0.80000000E+00           0.00000000E+00
  -0.79000000E+00           0.00000000E+00
  -0.78000000E+00           0.00000000E+00
  -0.77000000E+00           0.00000000E+00
  -0.76000000E+00           0.00000000E+00
  -0.75000000E+00           0.00000000E+00
  -0.74000000E+00           0.00000000E+00
  -0.73000000E+00           0.00000000E+00
  -0.72000000E+00           0.00000000E+00
  -0.71000000E+00           0.00000000E+00
  -0.70000000E+00           0.00000000E+00
  -0.69000000E+00           0.00000000E+00
  -0.68000000E+00           0.00000000E+00
  -0.67000000E+00           0.00000000E+00
  -0.66000000E+00           0.00000000E+00
  -0.65000000E+00           0.00000000E+00
  -0.64000000E+00           0.00000000E+00
  -0.63000000E+00           0.00000000E+00
  -0.62000000E+00           0.00000000E+00
  -0.61000000E+00           0.00000000E+00
  -0.60000000E+00           0.00000000E+00
  -0.59000000E+00           0.00000000E+00
  -0.58000000E+00           0.00000000E+00
  -0.57000000E+00           0.00000000E+00
  -0.56000000E+00           0.00000000E+00
  -0.55000000E+00           0.00000000E+00
  -0.54000000E+00           0.00000000E+00
  -0.53000000E+00           0.00000000E+00
  -0.52000000E+00           0.00000000E+00
  -0.51000000E+00           0.00000000E+00
  -0.50000000E+00           0.00000000E+00
  -0.49000000E+00           0.00000000E+00
  -0.48000000E+00           0.00000000E+00
  -0.47000000E+00           0.00000000E+00
  -0.46000000E+00           0.00000000E+00
  -0.45000000E+00           0.00000000E+00
  -0.44000000E+00           0.00000000E+00
  -0.43000000E+00           0.00000000E+00
  -0.42000000E+00           0.00000000E+00
  -0.41000000E+00           0.00000000E+00
  -0.40000000E+00           0.00000000E+00
  -0.39000000E+00           0.00000000E+00
  -0.38000000E+00           0.00000000E+00
  -0.37000000E+00           0.00000000E+00
  -0.36000000E+00           0.00000000E+00
  -0.35000000E+00           0.00000000E+00
  -0.34000000E+00           0.00000000E+00
  -0.33000000E+00           0.00000000E+00
  -0.32000000E+00           0.00000000E+00
  -0.31000000E+00           0.00000000E+00
  -0.30000000E+00           0.00000000E+00
  -0.29000000E+00           0.00000000E+00
  -0.28000000E+00           0.00000000E+00
  -0.27000000E+00           0.00000000E+00
  -0.26000000E+00           0.00000000E+00
  -0.25000000E+00           0.00000000E+00
  -0.24000000E+00           0.00000000E+00
  -0.23000000E+00           0.00000000E+00
  -0.22000000E+00           0.00000000E+00
  -0.21000000E+00           0.00000000E+00
  -0.20000000E+00           0.00000000E+00
  -0.19000000E+00           0.00000000E+00
  -0.18000000E+00           0.00000000E+00
  -0.17000000E+00           0.00000000E+00
  -0.16000000E+00           0.00000000E+00
  -0.15000000E+00           0.00000000E+00
  -0.14000000E+00           0.00000000E+00
  -0.13000000E+00           0.00000000E+00
  -0.12000000E+00           0.00000000E+00
  -0.11000000E+00           0.00000000E+00
  -0.10000000E+00           0.00000000E+00
  -0.90000000E-01           0.00000000E+00
  -0.80000000E-01           0.00000000E+00
  -0.70000000E-01           0.00000000E+00
  -0.60000000E-01           0.00000000E+00
  -0.50000000E-01           0.00000000E+00
  -0.40000000E-01           0.00000000E+00
  -0.30000000E-01           0.00000000E+00
  -0.20000000E-01           0.00000000E+00
  -0.10000000E-01           0.00000000E+00
   0.00000000E+00           0.39636444E-02
   0.10000000E-01           0.31621689E-01
   0.20000000E-01           0.63030667E-01
   0.30000000E-01           0.94408711E-01
   0.40000000E-01           0.12637573E+00
   0.50000000E-01           0.15724329E+00
   0.60000000E-01           0.18816364E+00
   0.70000000E-01           0.21950427E+00
   0.80000000E-01           0.24998116E+00
   0.90000000E-01           0.28071609E+00
   0.10000000E+00           0.31112827E+00
   0.11000000E+00           0.34118924E+00
   0.12000000E+00           0.37057404E+00
   0.13000000E+00           0.40003413E+00
   0.14000000E+00           0.42906089E+00
   0.15000000E+00           0.45729324E+00
   0.16000000E+00           0.48604116E+00
   0.17000000E+00           0.51378747E+00
   0.18000000E+00           0.54093369E+00
   0.19000000E+00           0.56770418E+00
   0.20000000E+00           0.59398507E+00
   0.21000000E+00           0.61943449E+00
   0.22000000E+00           0.64434791E+00
   0.23000000E+00           0.66937653E+00
   0.24000000E+00           0.69321564E+00
   0.25000000E+00           0.71660427E+00
   0.26000000E+00           0.73967431E+00
   0.27000000E+00           0.76143351E+00
   0.28000000E+00           0.78344258E+00
   0.29000000E+00           0.80361662E+00
   0.30000000E+00           0.82404640E+00
   0.31000000E+00           0.84386373E+00
   0.32000000E+00           0.86223378E+00
   0.33000000E+00           0.87984480E+00
   0.34000000E+00           0.89777476E+00
   0.35000000E+00           0.91376151E+00
   0.36000000E+00           0.93071067E+00
   0.37000000E+00           0.94546462E+00
   0.38000000E+00           0.95944560E+00
   0.39000000E+00           0.97295778E+00
   0.40000000E+00           0.98599458E+00
   0.41000000E+00           0.99765378E+00
   0.42000000E+00           0.10092239E+01
   0.43000000E+00           0.10192883E+01
   0.44000000E+00           0.10291697E+01
   0.45000000E+00           0.10379247E+01
   0.46000000E+00           0.10459713E+01
   0.47000000E+00           0.10538098E+01
   0.48000000E+00           0.10604662E+01
   0.49000000E+00           0.10659621E+01
   0.50000000E+00           0.10711013E+01
   0.51000000E+00           0.10751243E+01
   0.52000000E+00           0.10796612E+01
   0.53000000E+00           0.10823686E+01
   0.54000000E+00           0.10848079E+01
   0.55000000E+00           0.10860092E+01
   0.56000000E+00           0.10863033E+01
   0.57000000E+00           0.10868534E+01
   0.58000000E+00           0.10855380E+01
   0.59000000E+00           0.10841309E+01
   0.60000000E+00           0.10836895E+01
   0.61000000E+00           0.10808440E+01
   0.62000000E+00           0.10770107E+01
   0.63000000E+00           0.10735694E+01
   0.64000000E+00           0.10700390E+01
   0.65000000E+00           0.10639361E+01
   0.66000000E+00           0.10590012E+01
   0.67000000E+00           0.10517421E+01
   0.68000000E+00           0.10458308E+01
   0.69000000E+00           0.10394379E+01
   0.70000000E+00           0.10318765E+01
   0.71000000E+00           0.10225479E+01
   0.72000000E+00           0.10141448E+01
   0.73000000E+00           0.10052108E+01
   0.74000000E+00           0.99676889E+00
   0.75000000E+00           0.98595831E+00
   0.76000000E+00           0.97509058E+00
   0.77000000E+00           0.96577618E+00
   0.78000000E+00           0.95401244E+00
   0.79000000E+00           0.94286009E+00
   0.80000000E+00           0.93099031E+00
   0.81000000E+00           0.91833698E+00
   0.82000000E+00           0.90658187E+00
   0.83000000E+00           0.89383316E+00
   0.84000000E+00           0.88154196E+00
   0.85000000E+00           0.86824844E+00
   0.86000000E+00           0.85498418E+00
   0.87000000E+00           0.84253929E+00
   0.88000000E+00           0.82749911E+00
   0.89000000E+00           0.81522187E+00
   0.90000000E+00           0.80054276E+00
   0.91000000E+00           0.78631289E+00
   0.92000000E+00           0.77256907E+00
   0.93000000E+00           0.75833227E+00
   0.94000000E+00           0.74411707E+00
   0.95000000E+00           0.72962542E+00
   0.96000000E+00           0.71595964E+00
   0.97000000E+00           0.70081413E+00
   0.98000000E+00           0.68667653E+00
   0.99000000E+00           0.67256809E+00
   0.10000000E+01           0.65796960E+00
   0.10100000E+01           0.64324089E+00
   0.10200000E+01           0.62884453E+00
   0.10300000E+01           0.61525476E+00
   0.10400000E+01           0.60068258E+00
   0.10500000E+01           0.58670089E+00
   0.10600000E+01           0.57305271E+00
   0.10700000E+01           0.55875138E+00
   0.10800000E+01           0.54468356E+00
   0.10900000E+01           0.53118409E+00
   0.11000000E+01           0.51711173E+00
   0.11100000E+01           0.50382836E+00
   0.11200000E+01           0.49040498E+00
   0.11300000E+01           0.47731271E+00
   0.11400000E+01           0.46419280E+00
   0.11500000E+01           0.45164773E+00
   0.11600000E+01           0.43840720E+00
   0.11700000E+01           0.42616773E+00
   0.11800000E+01           0.41364640E+00
   0.11900000E+01           0.40101200E+00
   0.12000000E+01           0.38988418E+00
   0.12100000E+01           0.37799200E+00
   0.12200000E+01           0.36597253E+00
   0.12300000E+01           0.35495076E+00
   0.12400000E+01           0.34403013E+00
   0.12500000E+01           0.33265467E+00
   0.12600000E+01           0.32189209E+00
   0.12700000E+01           0.31115102E+00
   0.12800000E+01           0.30111511E+00
   0.12900000E+01           0.29071493E+00
   0.13000000E+01           0.28079840E+00
   0.13100000E+01           0.27134027E+00
   0.13200000E+01           0.26127707E+00
   0.13300000E+01           0.25277938E+00
   0.13400000E+01           0.24402693E+00
   0.13500000E+01           0.23474178E+00
   0.13600000E+01           0.22608720E+00
   0.13700000E+01           0.21784347E+00
   0.13800000E+01           0.20953787E+00
   0.13900000E+01           0.20154204E+00
   0.14000000E+01           0.19401707E+00
   0.14100000E+01           0.18644667E+00
   0.14200000E+01           0.17883147E+00
   0.14300000E+01           0.17209209E+00
   0.14400000E+01           0.16523396E+00
   0.14500000E+01           0.15845333E+00
   0.14600000E+01           0.15186480E+00
   0.14700000E+01           0.14550338E+00
   0.14800000E+01           0.13942364E+00
   0.14900000E+01           0.13364978E+00
   0.15000000E+01           0.12800738E+00
   0.15100000E+01           0.12234071E+00
   0.15200000E+01           0.11705556E+00
   0.15300000E+01           0.11185431E+00
   0.15400000E+01           0.10683422E+00
   0.15500000E+01           0.10192124E+00
   0.15600000E+01           0.97460889E-01
   0.15700000E+01           0.92991733E-01
   0.15800000E+01           0.88542489E-01
   0.15900000E+01           0.84360800E-01
   0.16000000E+01           0.80526489E-01
   0.16100000E+01           0.76693067E-01
   0.16200000E+01           0.72969867E-01
   0.16300000E+01           0.69399289E-01
   0.16400000E+01           0.65914133E-01
   0.16500000E+01           0.62704978E-01
   0.16600000E+01           0.59372889E-01
   0.16700000E+01           0.56429333E-01
   0.16800000E+01           0.53568000E-01
   0.16900000E+01           0.50740444E-01
   0.17000000E+01           0.48092000E-01
   0.17100000E+01           0.45643556E-01
   0.17200000E+01           0.43173156E-01
   0.17300000E+01           0.40808178E-01
   0.17400000E+01           0.38566667E-01
   0.17500000E+01           0.36361333E-01
   0.17600000E+01           0.34331378E-01
   0.17700000E+01           0.32527556E-01
   0.17800000E+01           0.30647644E-01
   0.17900000E+01           0.28835467E-01
   0.18000000E+01           0.27210756E-01
   0.18100000E+01           0.25558578E-01
   0.18200000E+01           0.24014489E-01
   0.18300000E+01           0.22610844E-01
   0.18400000E+01           0.21262933E-01
   0.18500000E+01           0.19943200E-01
   0.18600000E+01           0.18708444E-01
   0.18700000E+01           0.17617156E-01
   0.18800000E+01           0.16483733E-01
   0.18900000E+01           0.15396356E-01
   0.19000000E+01           0.14316267E-01
   0.19100000E+01           0.13440178E-01
   0.19200000E+01           0.12565867E-01
   0.19300000E+01           0.11751556E-01
   0.19400000E+01           0.10896178E-01
   0.19500000E+01           0.10163733E-01
   0.19600000E+01           0.94471111E-02
   0.19700000E+01           0.87805333E-02
   0.19800000E+01           0.81080889E-02
   0.19900000E+01           0.75604444E-02
   0.20000000E+01           0.35496000E-02
 #T=   204.0000
  -0.20000000E+01           0.00000000E+00
  -0.19900000E+01           0.00000000E+00
  -0.19800000E+01           0.00000000E+00
  -0.19700000E+01           0.00000000E+00
  -0.19600000E+01           0.00000000E+00
  -0.19500000E+01           0.00000000E+00
  -0.19400000E+01           0.00000000E+00
  -0.19300000E+01           0.00000000E+00
  -0.19200000E+01           0.00000000E+00
  -0.19100000E+01           0.00000000E+00
  -0.19000000E+01           0.00000000E+00
  -0.18900000E+01           0.00000000E+00
  -0.18800000E+01           0.00000000E+00
  -0.18700000E+01           0.00000000E+00
  -0.18600000E+01           0.00000000E+00
  -0.18500000E+01           0.00000000E+00
  -0.18400000E+01           0.00000000E+00
  -0.18300000E+01           0.00000000E+00
  -0.18200000E+01           0.00000000E+00
  -0.18100000E+01           0.00000000E+00
  -0.18000000E+01           0.00000000E+00
  -0.17900000E+01           0.00000000E+00
  -0.17800000E+01           0.00000000E+00
  -0.17700000E+01           0.00000000E+00
  -0.17600000E+01           0.00000000E+00
  -0.17500000E+01           0.00000000E+00
  -0.17400000E+01           0.00000000E+00
  -0.17300000E+01           0.00000000E+00
  -0.17200000E+01           0.00000000E+00
  -0.17100000E+01           0.00000000E+00
  -0.17000000E+01           0.00000000E+00
  -0.16900000E+01           0.00000000E+00
  -0.16800000E+01           0.00000000E+00
  -0.16700000E+01           0.00000000E+00
  -0.16600000E+01           0.00000000E+00
  -0.16500000E+01           0.00000000E+00
  -0.16400000E+01           0.00000000E+00
  -0.16300000E+01           0.00000000E+00
  -0.16200000E+01           0.00000000E+00
  -0.16100000E+01           0.00000000E+00
  -0.16000000E+01           0.00000000E+00
  -0.15900000E+01           0.00000000E+00
  -0.15800000E+01           0.00000000E+00
  -0.15700000E+01           0.00000000E+00
  -0.15600000E+01           0.00000000E+00
  -0.15500000E+01           0.00000000E+00
  -0.15400000E+01           0.00000000E+00
  -0.15300000E+01           0.00000000E+00
  -0.15200000E+01           0.00000000E+00
  -0.15100000E+01           0.00000000E+00
  -0.15000000E+01           0.00000000E+00
  -0.14900000E+01           0.00000000E+00
  -0.14800000E+01           0.00000000E+00
  -0.14700000E+01           0.00000000E+00
  -0.14600000E+01           0.00000000E+00
  -0.14500000E+01           0.00000000E+00
  -0.14400000E+01           0.00000000E+00
  -0.14300000E+01           0.00000000E+00
  -0.14200000E+01           0.00000000E+00
  -0.14100000E+01           0.00000000E+00
  -0.14000000E+01           0.00000000E+00
  -0.13900000E+01           0.00000000E+00
  -0.13800000E+01           0.00000000E+00
  -0.13700000E+01           0.00000000E+00
  -0.13600000E+01           0.00000000E+00
  -0.13500000E+01           0.00000000E+00
  -0.13400000E+01           0.00000000E+00
  -0.13300000E+01           0.00000000E+00
  -0.13200000E+01           0.00000000E+00
  -0.13100000E+01           0.00000000E+00
  -0.13000000E+01           0.00000000E+00
  -0.12900000E+01           0.00000000E+00
  -0.12800000E+01           0.00000000E+00
  -0.12700000E+01           0.00000000E+00
  -0.12600000E+01           0.00000000E+00
  -0.12500000E+01           0.00000000E+00
  -0.12400000E+01           0.00000000E+00
  -0.12300000E+01           0.00000000E+00
  -0.12200000E+01           0.00000000E+00
  -0.12100000E+01           0.00000000E+00
  -0.12000000E+01           0.00000000E+00
  -0.11900000E+01           0.00000000E+00
  -0.11800000E+01           0.00000000E+00
  -0.11700000E+01           0.00000000E+00
  -0.11600000E+01           0.00000000E+00
  -0.11500000E+01           0.00000000E+00
  -0.11400000E+01           0.00000000E+00
  -0.11300000E+01           0.00000000E+00
  -0.11200000E+01           0.00000000E+00
  -0.11100000E+01           0.00000000E+00
  -0.11000000E+01           0.00000000E+00
  -0.10900000E+01           0.00000000E+00
  -0.10800000E+01           0.00000000E+00
  -0.10700000E+01           0.00000000E+00
  -0.10600000E+01           0.00000000E+00
  -0.10500000E+01           0.00000000E+00
  -0.10400000E+01           0.00000000E+00
  -0.10300000E+01           0.00000000E+00
  -0.10200000E+01           0.00000000E+00
  -0.10100000E+01           0.00000000E+00
  -0.10000000E+01           0.00000000E+00
  -0.99000000E+00           0.00000000E+00
  -0.98000000E+00           0.00000000E+00
  -0.97000000E+00           0.00000000E+00
  -0.96000000E+00           0.00000000E+00
  -0.95000000E+00           0.00000000E+00
  -0.94000000E+00           0.00000000E+00
  -0.93000000E+00           0.00000000E+00
  -0.92000000E+00           0.00000000E+00
  -0.91000000E+00           0.00000000E+00
  -0.90000000E+00           0.00000000E+00
  -0.89000000E+00           0.00000000E+00
  -0.88000000E+00           0.00000000E+00
  -0.87000000E+00           0.00000000E+00
  -0.86000000E+00           0.00000000E+00
  -0.85000000E+00           0.00000000E+00
  -0.84000000E+00           0.00000000E+00
  -0.83000000E+00           0.00000000E+00
  -0.82000000E+00           0.00000000E+00
  -0.81000000E+00           0.00000000E+00
  -0.80000000E+00           0.00000000E+00
  -0.79000000E+00           0.00000000E+00
  -0.78000000E+00           0.00000000E+00
  -0.77000000E+00           0.00000000E+00
  -0.76000000E+00           0.00000000E+00
  -0.75000000E+00           0.00000000E+00
  -0.74000000E+00           0.00000000E+00
  -0.73000000E+00           0.00000000E+00
  -0.72000000E+00           0.00000000E+00
  -0.71000000E+00           0.00000000E+00
  -0.70000000E+00           0.00000000E+00
  -0.69000000E+00           0.00000000E+00
  -0.68000000E+00           0.00000000E+00
  -0.67000000E+00           0.00000000E+00
  -0.66000000E+00           0.00000000E+00
  -0.65000000E+00           0.00000000E+00
  -0.64000000E+00           0.00000000E+00
  -0.63000000E+00           0.00000000E+00
  -0.62000000E+00           0.00000000E+00
  -0.61000000E+00           0.00000000E+00
  -0.60000000E+00           0.00000000E+00
  -0.59000000E+00           0.00000000E+00
  -0.58000000E+00           0.00000000E+00
  -0.57000000E+00           0.00000000E+00
  -0.56000000E+00           0.00000000E+00
  -0.55000000E+00           0.00000000E+00
  -0.54000000E+00           0.00000000E+00
  -0.53000000E+00           0.00000000E+00
  -0.52000000E+00           0.00000000E+00
  -0.51000000E+00           0.00000000E+00
  -0.50000000E+00           0.00000000E+00
  -0.49000000E+00           0.00000000E+00
  -0.48000000E+00           0.00000000E+00
  -0.47000000E+00           0.00000000E+00
  -0.46000000E+00           0.00000000E+00
  -0.45000000E+00           0.00000000E+00
  -0.44000000E+00           0.00000000E+00
  -0.43000000E+00           0.00000000E+00
  -0.42000000E+00           0.00000000E+00
  -0.41000000E+00           0.00000000E+00
  -0.40000000E+00           0.00000000E+00
  -0.39000000E+00           0.00000000E+00
  -0.38000000E+00           0.00000000E+00
  -0.37000000E+00           0.00000000E+00
  -0.36000000E+00           0.00000000E+00
  -0.35000000E+00           0.00000000E+00
  -0.34000000E+00           0.00000000E+00
  -0.33000000E+00           0.00000000E+00
  -0.32000000E+00           0.00000000E+00
  -0.31000000E+00           0.00000000E+00
  -0.30000000E+00           0.00000000E+00
  -0.29000000E+00           0.00000000E+00
  -0.28000000E+00           0.00000000E+00
  -0.27000000E+00           0.00000000E+00
  -0.26000000E+00           0.00000000E+00
  -0.25000000E+00           0.00000000E+00
  -0.24000000E+00           0.00000000E+00
  -0.23000000E+00           0.00000000E+00
  -0.22000000E+00           0.00000000E+00
  -0.21000000E+00           0.00000000E+00
  -0.20000000E+00           0.00000000E+00
  -0.19000000E+00           0.00000000E+00
  -0.18000000E+00           0.00000000E+00
  -0.17000000E+00           0.00000000E+00
  -0.16000000E+00           0.00000000E+00
  -0.15000000E+00           0.00000000E+00
  -0.14000000E+00           0.00000000E+00
  -0.13000000E+00           0.00000000E+00
  -0.12000000E+00           0.00000000E+00
  -0.11000000E+00           0.00000000E+00
  -0.10000000E+00           0.00000000E+00
  -0.90000000E-01           0.00000000E+00
  -0.80000000E-01           0.00000000E+00
  -0.70000000E-01           0.00000000E+00
  -0.60000000E-01           0.00000000E+00
  -0.50000000E-01           0.00000000E+00
  -0.40000000E-01           0.00000000E+00
  -0.30000000E-01           0.00000000E+00
  -0.20000000E-01           0.00000000E+00
  -0.10000000E-01           0.00000000E+00
   0.00000000E+00           0.39112889E-02
   0.10000000E-01           0.31398311E-01
   0.20000000E-01           0.62788889E-01
   0.30000000E-01           0.93971733E-01
   0.40000000E-01           0.12504782E+00
   0.50000000E-01           0.15622062E+00
   0.60000000E-01           0.18712524E+00
   0.70000000E-01           0.21763653E+00
   0.80000000E-01           0.24850836E+00
   0.90000000E-01           0.27871271E+00
   0.10000000E+00           0.30869920E+00
   0.11000000E+00           0.33849324E+00
   0.12000000E+00           0.36771644E+00
   0.13000000E+00           0.39729822E+00
   0.14000000E+00           0.42617067E+00
   0.15000000E+00           0.45474782E+00
   0.16000000E+00           0.48256569E+00
   0.17000000E+00           0.51015271E+00
   0.18000000E+00           0.53711822E+00
   0.19000000E+00           0.56345093E+00
   0.20000000E+00           0.58958542E+00
   0.21000000E+00           0.61505636E+00
   0.22000000E+00           0.64015182E+00
   0.23000000E+00           0.66531049E+00
   0.24000000E+00           0.68898151E+00
   0.25000000E+00           0.71288756E+00
   0.26000000E+00           0.73499787E+00
   0.27000000E+00           0.75710507E+00
   0.28000000E+00           0.77821449E+00
   0.29000000E+00           0.79925804E+00
   0.30000000E+00           0.81946000E+00
   0.31000000E+00           0.83903156E+00
   0.32000000E+00           0.85773387E+00
   0.33000000E+00           0.87551369E+00
   0.34000000E+00           0.89194800E+00
   0.35000000E+00           0.90924951E+00
   0.36000000E+00           0.92527004E+00
   0.37000000E+00           0.94042498E+00
   0.38000000E+00           0.95497022E+00
   0.39000000E+00           0.96755973E+00
   0.40000000E+00           0.98071804E+00
   0.41000000E+00           0.99250169E+00
   0.42000000E+00           0.10035137E+01
   0.43000000E+00           0.10142005E+01
   0.44000000E+00           0.10242979E+01
   0.45000000E+00           0.10329288E+01
   0.46000000E+00           0.10415156E+01
   0.47000000E+00           0.10487273E+01
   0.48000000E+00           0.10552838E+01
   0.49000000E+00           0.10610645E+01
[...]
   0.13800000E+01           0.46014116E+00
   0.13900000E+01           0.45201102E+00
   0.14000000E+01           0.44438711E+00
   0.14100000E+01           0.43622302E+00
   0.14200000E+01           0.42786436E+00
   0.14300000E+01           0.42068916E+00
   0.14400000E+01           0.41264329E+00
   0.14500000E+01           0.40451058E+00
   0.14600000E+01           0.39733733E+00
   0.14700000E+01           0.38944996E+00
   0.14800000E+01           0.38200667E+00
   0.14900000E+01           0.37398667E+00
   0.15000000E+01           0.36691378E+00
   0.15100000E+01           0.35961111E+00
   0.15200000E+01           0.35218631E+00
   0.15300000E+01           0.34479511E+00
   0.15400000E+01           0.33737707E+00
   0.15500000E+01           0.33102649E+00
   0.15600000E+01           0.32355307E+00
   0.15700000E+01           0.31680169E+00
   0.15800000E+01           0.31003627E+00
   0.15900000E+01           0.30333769E+00
   0.16000000E+01           0.29643724E+00
   0.16100000E+01           0.28974427E+00
   0.16200000E+01           0.28305209E+00
   0.16300000E+01           0.27680987E+00
   0.16400000E+01           0.27009911E+00
   0.16500000E+01           0.26422204E+00
   0.16600000E+01           0.25831564E+00
   0.16700000E+01           0.25193636E+00
   0.16800000E+01           0.24629102E+00
   0.16900000E+01           0.24063956E+00
   0.17000000E+01           0.23428116E+00
   0.17100000E+01           0.22836338E+00
   0.17200000E+01           0.22312036E+00
   0.17300000E+01           0.21776213E+00
   0.17400000E+01           0.21231342E+00
   0.17500000E+01           0.20684276E+00
   0.17600000E+01           0.20160978E+00
   0.17700000E+01           0.19648364E+00
   0.17800000E+01           0.19128062E+00
   0.17900000E+01           0.18640960E+00
   0.18000000E+01           0.18148764E+00
   0.18100000E+01           0.17678293E+00
   0.18200000E+01           0.17191947E+00
   0.18300000E+01           0.16749502E+00
   0.18400000E+01           0.16295742E+00
   0.18500000E+01           0.15828702E+00
   0.18600000E+01           0.15390818E+00
   0.18700000E+01           0.14995582E+00
   0.18800000E+01           0.14586000E+00
   0.18900000E+01           0.14161947E+00
   0.19000000E+01           0.13759067E+00
   0.19100000E+01           0.13361129E+00
   0.19200000E+01           0.13009271E+00
   0.19300000E+01           0.12617413E+00
   0.19400000E+01           0.12257182E+00
   0.19500000E+01           0.11873076E+00
   0.19600000E+01           0.11552222E+00
   0.19700000E+01           0.11191280E+00
   0.19800000E+01           0.10866560E+00
   0.19900000E+01           0.10531760E+00
   0.20000000E+01           0.51445244E-01
 #T=   299.0000
  -0.20000000E+01           0.00000000E+00
  -0.19900000E+01           0.00000000E+00
  -0.19800000E+01           0.00000000E+00
  -0.19700000E+01           0.00000000E+00
  -0.19600000E+01           0.00000000E+00
  -0.19500000E+01           0.00000000E+00
  -0.19400000E+01           0.00000000E+00
  -0.19300000E+01           0.00000000E+00
  -0.19200000E+01           0.00000000E+00
  -0.19100000E+01           0.00000000E+00
  -0.19000000E+01           0.00000000E+00
  -0.18900000E+01           0.00000000E+00
  -0.18800000E+01           0.00000000E+00
  -0.18700000E+01           0.00000000E+00
  -0.18600000E+01           0.00000000E+00
  -0.18500000E+01           0.00000000E+00
  -0.18400000E+01           0.00000000E+00
  -0.18300000E+01           0.00000000E+00
  -0.18200000E+01           0.00000000E+00
  -0.18100000E+01           0.00000000E+00
  -0.18000000E+01           0.00000000E+00
  -0.17900000E+01           0.00000000E+00
  -0.17800000E+01           0.00000000E+00
  -0.17700000E+01           0.00000000E+00
  -0.17600000E+01           0.00000000E+00
  -0.17500000E+01           0.00000000E+00
  -0.17400000E+01           0.00000000E+00
  -0.17300000E+01           0.00000000E+00
  -0.17200000E+01           0.00000000E+00
  -0.17100000E+01           0.00000000E+00
  -0.17000000E+01           0.00000000E+00
  -0.16900000E+01           0.00000000E+00
  -0.16800000E+01           0.00000000E+00
  -0.16700000E+01           0.00000000E+00
  -0.16600000E+01           0.00000000E+00
  -0.16500000E+01           0.00000000E+00
  -0.16400000E+01           0.00000000E+00
  -0.16300000E+01           0.00000000E+00
  -0.16200000E+01           0.00000000E+00
  -0.16100000E+01           0.00000000E+00
  -0.16000000E+01           0.00000000E+00
  -0.15900000E+01           0.00000000E+00
  -0.15800000E+01           0.00000000E+00
  -0.15700000E+01           0.00000000E+00
  -0.15600000E+01           0.00000000E+00
  -0.15500000E+01           0.00000000E+00
  -0.15400000E+01           0.00000000E+00
  -0.15300000E+01           0.00000000E+00
  -0.15200000E+01           0.00000000E+00
  -0.15100000E+01           0.00000000E+00
  -0.15000000E+01           0.00000000E+00
  -0.14900000E+01           0.00000000E+00
  -0.14800000E+01           0.00000000E+00
  -0.14700000E+01           0.00000000E+00
  -0.14600000E+01           0.00000000E+00
  -0.14500000E+01           0.00000000E+00
  -0.14400000E+01           0.00000000E+00
  -0.14300000E+01           0.00000000E+00
  -0.14200000E+01           0.00000000E+00
  -0.14100000E+01           0.00000000E+00
  -0.14000000E+01           0.00000000E+00
  -0.13900000E+01           0.00000000E+00
  -0.13800000E+01           0.00000000E+00
  -0.13700000E+01           0.00000000E+00
  -0.13600000E+01           0.00000000E+00
  -0.13500000E+01           0.00000000E+00
  -0.13400000E+01           0.00000000E+00
  -0.13300000E+01           0.00000000E+00
  -0.13200000E+01           0.00000000E+00
  -0.13100000E+01           0.00000000E+00
  -0.13000000E+01           0.00000000E+00
  -0.12900000E+01           0.00000000E+00
  -0.12800000E+01           0.00000000E+00
  -0.12700000E+01           0.00000000E+00
  -0.12600000E+01           0.00000000E+00
  -0.12500000E+01           0.00000000E+00
  -0.12400000E+01           0.00000000E+00
  -0.12300000E+01           0.00000000E+00
  -0.12200000E+01           0.00000000E+00
  -0.12100000E+01           0.00000000E+00
  -0.12000000E+01           0.00000000E+00
  -0.11900000E+01           0.00000000E+00
  -0.11800000E+01           0.00000000E+00
  -0.11700000E+01           0.00000000E+00
  -0.11600000E+01           0.00000000E+00
  -0.11500000E+01           0.00000000E+00
  -0.11400000E+01           0.00000000E+00
  -0.11300000E+01           0.00000000E+00
  -0.11200000E+01           0.00000000E+00
  -0.11100000E+01           0.00000000E+00
  -0.11000000E+01           0.00000000E+00
  -0.10900000E+01           0.00000000E+00
  -0.10800000E+01           0.00000000E+00
  -0.10700000E+01           0.00000000E+00
  -0.10600000E+01           0.00000000E+00
  -0.10500000E+01           0.00000000E+00
  -0.10400000E+01           0.00000000E+00
  -0.10300000E+01           0.00000000E+00
  -0.10200000E+01           0.00000000E+00
  -0.10100000E+01           0.00000000E+00
  -0.10000000E+01           0.00000000E+00
  -0.99000000E+00           0.00000000E+00
  -0.98000000E+00           0.00000000E+00
  -0.97000000E+00           0.00000000E+00
  -0.96000000E+00           0.00000000E+00
  -0.95000000E+00           0.00000000E+00
  -0.94000000E+00           0.00000000E+00
  -0.93000000E+00           0.00000000E+00
  -0.92000000E+00           0.00000000E+00
  -0.91000000E+00           0.00000000E+00
  -0.90000000E+00           0.00000000E+00
  -0.89000000E+00           0.00000000E+00
  -0.88000000E+00           0.00000000E+00
  -0.87000000E+00           0.00000000E+00
  -0.86000000E+00           0.00000000E+00
  -0.85000000E+00           0.00000000E+00
  -0.84000000E+00           0.00000000E+00
  -0.83000000E+00           0.00000000E+00
  -0.82000000E+00           0.00000000E+00
  -0.81000000E+00           0.00000000E+00
  -0.80000000E+00           0.00000000E+00
  -0.79000000E+00           0.00000000E+00
  -0.78000000E+00           0.00000000E+00
  -0.77000000E+00           0.00000000E+00
  -0.76000000E+00           0.00000000E+00
  -0.75000000E+00           0.00000000E+00
  -0.74000000E+00           0.00000000E+00
  -0.73000000E+00           0.00000000E+00
  -0.72000000E+00           0.00000000E+00
  -0.71000000E+00           0.00000000E+00
  -0.70000000E+00           0.00000000E+00
  -0.69000000E+00           0.00000000E+00
  -0.68000000E+00           0.00000000E+00
  -0.67000000E+00           0.00000000E+00
  -0.66000000E+00           0.00000000E+00
  -0.65000000E+00           0.00000000E+00
  -0.64000000E+00           0.00000000E+00
  -0.63000000E+00           0.00000000E+00
  -0.62000000E+00           0.00000000E+00
  -0.61000000E+00           0.00000000E+00
  -0.60000000E+00           0.00000000E+00
  -0.59000000E+00           0.00000000E+00
  -0.58000000E+00           0.00000000E+00
  -0.57000000E+00           0.00000000E+00
  -0.56000000E+00           0.00000000E+00
  -0.55000000E+00           0.00000000E+00
  -0.54000000E+00           0.00000000E+00
  -0.53000000E+00           0.00000000E+00
  -0.52000000E+00           0.00000000E+00
  -0.51000000E+00           0.00000000E+00
  -0.50000000E+00           0.00000000E+00
  -0.49000000E+00           0.00000000E+00
  -0.48000000E+00           0.00000000E+00
  -0.47000000E+00           0.00000000E+00
  -0.46000000E+00           0.00000000E+00
  -0.45000000E+00           0.00000000E+00
  -0.44000000E+00           0.00000000E+00
  -0.43000000E+00           0.00000000E+00
  -0.42000000E+00           0.00000000E+00
  -0.41000000E+00           0.00000000E+00
  -0.40000000E+00           0.00000000E+00
  -0.39000000E+00           0.00000000E+00
  -0.38000000E+00           0.00000000E+00
  -0.37000000E+00           0.00000000E+00
  -0.36000000E+00           0.00000000E+00
  -0.35000000E+00           0.00000000E+00
  -0.34000000E+00           0.00000000E+00
  -0.33000000E+00           0.00000000E+00
  -0.32000000E+00           0.00000000E+00
  -0.31000000E+00           0.00000000E+00
  -0.30000000E+00           0.00000000E+00
  -0.29000000E+00           0.00000000E+00
  -0.28000000E+00           0.00000000E+00
  -0.27000000E+00           0.00000000E+00
  -0.26000000E+00           0.00000000E+00
  -0.25000000E+00           0.00000000E+00
  -0.24000000E+00           0.00000000E+00
  -0.23000000E+00           0.00000000E+00
  -0.22000000E+00           0.00000000E+00
  -0.21000000E+00           0.00000000E+00
  -0.20000000E+00           0.00000000E+00
  -0.19000000E+00           0.00000000E+00
  -0.18000000E+00           0.00000000E+00
  -0.17000000E+00           0.00000000E+00
  -0.16000000E+00           0.00000000E+00
  -0.15000000E+00           0.00000000E+00
  -0.14000000E+00           0.00000000E+00
  -0.13000000E+00           0.00000000E+00
  -0.12000000E+00           0.00000000E+00
  -0.11000000E+00           0.00000000E+00
  -0.10000000E+00           0.00000000E+00
  -0.90000000E-01           0.00000000E+00
  -0.80000000E-01           0.00000000E+00
  -0.70000000E-01           0.00000000E+00
  -0.60000000E-01           0.00000000E+00
  -0.50000000E-01           0.00000000E+00
  -0.40000000E-01           0.00000000E+00
  -0.30000000E-01           0.00000000E+00
  -0.20000000E-01           0.00000000E+00
  -0.10000000E-01           0.00000000E+00
   0.00000000E+00           0.23209778E-02
   0.10000000E-01           0.18472178E-01
   0.20000000E-01           0.36859200E-01
   0.30000000E-01           0.55234667E-01
   0.40000000E-01           0.73527467E-01
   0.50000000E-01           0.91952356E-01
   0.60000000E-01           0.11027084E+00
   0.70000000E-01           0.12827538E+00
   0.80000000E-01           0.14657876E+00
   0.90000000E-01           0.16490276E+00
   0.10000000E+00           0.18262418E+00
   0.11000000E+00           0.20045253E+00
   0.12000000E+00           0.21833111E+00
   0.13000000E+00           0.23603511E+00
   0.14000000E+00           0.25327333E+00
   0.15000000E+00           0.27071004E+00
   0.16000000E+00           0.28799982E+00
   0.17000000E+00           0.30560187E+00
   0.18000000E+00           0.32248649E+00
   0.19000000E+00           0.33894809E+00
   0.20000000E+00           0.35565600E+00
   0.21000000E+00           0.37210889E+00
   0.22000000E+00           0.38845058E+00
   0.23000000E+00           0.40450747E+00
   0.24000000E+00           0.42004364E+00
   0.25000000E+00           0.43531449E+00
   0.26000000E+00           0.45091591E+00
   0.27000000E+00           0.46607742E+00
   0.28000000E+00           0.48100107E+00
   0.29000000E+00           0.49594098E+00
   0.30000000E+00           0.51028338E+00
   0.31000000E+00           0.52414720E+00
   0.32000000E+00           0.53775218E+00
   0.33000000E+00           0.55182702E+00
   0.34000000E+00           0.56419751E+00
   0.35000000E+00           0.57782258E+00
   0.36000000E+00           0.59084516E+00
   0.37000000E+00           0.60267431E+00
   0.38000000E+00           0.61533013E+00
   0.39000000E+00           0.62704933E+00
   0.40000000E+00           0.63849102E+00
   0.41000000E+00           0.65003093E+00
   0.42000000E+00           0.66045209E+00
   0.43000000E+00           0.67168720E+00
   0.44000000E+00           0.68163778E+00
   0.45000000E+00           0.69177218E+00
   0.46000000E+00           0.70152053E+00
   0.47000000E+00           0.71004916E+00
   0.48000000E+00           0.71961653E+00
   0.49000000E+00           0.72803831E+00
   0.50000000E+00           0.73623493E+00
   0.51000000E+00           0.74457778E+00
   0.52000000E+00           0.75176916E+00
   0.53000000E+00           0.75881556E+00
   0.54000000E+00           0.76620382E+00
   0.55000000E+00           0.77260933E+00
   0.56000000E+00           0.77870418E+00
   0.57000000E+00           0.78488178E+00
   0.58000000E+00           0.79051947E+00
   0.59000000E+00           0.79544702E+00
   0.60000000E+00           0.80054942E+00
   0.61000000E+00           0.80519298E+00
   0.62000000E+00           0.80940622E+00
   0.63000000E+00           0.81288311E+00
   0.64000000E+00           0.81631760E+00
   0.65000000E+00           0.82002569E+00
   0.66000000E+00           0.82313831E+00
   0.67000000E+00           0.82526444E+00
   0.68000000E+00           0.82733787E+00
   0.69000000E+00           0.83005982E+00
   0.70000000E+00           0.83106800E+00
   0.71000000E+00           0.83257787E+00
   0.72000000E+00           0.83316542E+00
   0.73000000E+00           0.83398613E+00
   0.74000000E+00           0.83394293E+00
   0.75000000E+00           0.83438800E+00
   0.76000000E+00           0.83421947E+00
   0.77000000E+00           0.83318871E+00
   0.78000000E+00           0.83313404E+00
   0.79000000E+00           0.83164213E+00
   0.80000000E+00           0.83031138E+00
   0.81000000E+00           0.82860907E+00
   0.82000000E+00           0.82664596E+00
   0.83000000E+00           0.82478169E+00
   0.84000000E+00           0.82261911E+00
   0.85000000E+00           0.81945698E+00
   0.86000000E+00           0.81618213E+00
   0.87000000E+00           0.81295431E+00
   0.88000000E+00           0.80910364E+00
   0.89000000E+00           0.80587982E+00
   0.90000000E+00           0.80161636E+00
   0.91000000E+00           0.79753778E+00
   0.92000000E+00           0.79337538E+00
   0.93000000E+00           0.78906071E+00
   0.94000000E+00           0.78368311E+00
   0.95000000E+00           0.77850480E+00
   0.96000000E+00           0.77352124E+00
   0.97000000E+00           0.76899707E+00
   0.98000000E+00           0.76321956E+00
   0.99000000E+00           0.75766862E+00
   0.10000000E+01           0.75166071E+00
   0.10100000E+01           0.74529671E+00
   0.10200000E+01           0.73948729E+00
   0.10300000E+01           0.73310587E+00
   0.10400000E+01           0.72620187E+00
   0.10500000E+01           0.71997289E+00
   0.10600000E+01           0.71341431E+00
   0.10700000E+01           0.70619182E+00
   0.10800000E+01           0.69920400E+00
   0.10900000E+01           0.69202782E+00
   0.11000000E+01           0.68542231E+00
   0.11100000E+01           0.67793858E+00
   0.11200000E+01           0.67054204E+00
   0.11300000E+01           0.66264258E+00
   0.11400000E+01           0.65531138E+00
   0.11500000E+01           0.64743111E+00
   0.11600000E+01           0.64006196E+00
   0.11700000E+01           0.63218302E+00
   0.11800000E+01           0.62406836E+00
   0.11900000E+01           0.61622782E+00
   0.12000000E+01           0.60846791E+00
   0.12100000E+01           0.60008951E+00
   0.12200000E+01           0.59198178E+00
   0.12300000E+01           0.58421973E+00
   0.12400000E+01           0.57600569E+00
   0.12500000E+01           0.56838427E+00
   0.12600000E+01           0.55936480E+00
   0.12700000E+01           0.55169751E+00
   0.12800000E+01           0.54350569E+00
   0.12900000E+01           0.53517289E+00
   0.13000000E+01           0.52698347E+00
   0.13100000E+01           0.51862969E+00
   0.13200000E+01           0.51062729E+00
   0.13300000E+01           0.50246391E+00
   0.13400000E+01           0.49410044E+00
   0.13500000E+01           0.48645129E+00
   0.13600000E+01           0.47828649E+00
   0.13700000E+01           0.46992693E+00
   0.13800000E+01           0.46175884E+00
   0.13900000E+01           0.45372853E+00
   0.14000000E+01           0.44614871E+00
   0.14100000E+01           0.43775040E+00
   0.14200000E+01           0.42975947E+00
   0.14300000E+01           0.42189298E+00
   0.14400000E+01           0.41451778E+00
   0.14500000E+01           0.40658044E+00
   0.14600000E+01           0.39883502E+00
   0.14700000E+01           0.39128898E+00
   0.14800000E+01           0.38333164E+00
   0.14900000E+01           0.37636364E+00
   0.15000000E+01           0.36882524E+00
   0.15100000E+01           0.36109013E+00
   0.15200000E+01           0.35390800E+00
   0.15300000E+01           0.34642142E+00
   0.15400000E+01           0.33955618E+00
   0.15500000E+01           0.33227689E+00
   0.15600000E+01           0.32576729E+00
   0.15700000E+01           0.31876569E+00
   0.15800000E+01           0.31188773E+00
   0.15900000E+01           0.30509502E+00
   0.16000000E+01           0.29844907E+00
   0.16100000E+01           0.29148996E+00
   0.16200000E+01           0.28523760E+00
   0.16300000E+01           0.27872889E+00
   0.16400000E+01           0.27267227E+00
   0.16500000E+01           0.26633120E+00
   0.16600000E+01           0.25992231E+00
   0.16700000E+01           0.25385129E+00
   0.16800000E+01           0.24778764E+00
   0.16900000E+01           0.24192782E+00
   0.17000000E+01           0.23605324E+00
   0.17100000E+01           0.23022880E+00
   0.17200000E+01           0.22501440E+00
   0.17300000E+01           0.21921671E+00
   0.17400000E+01           0.21404293E+00
   0.17500000E+01           0.20842391E+00
   0.17600000E+01           0.20329929E+00
   0.17700000E+01           0.19798436E+00
   0.17800000E+01           0.19297653E+00
   0.17900000E+01           0.18804942E+00
   0.18000000E+01           0.18320738E+00
   0.18100000E+01           0.17826311E+00
   0.18200000E+01           0.17374898E+00
   0.18300000E+01           0.16920080E+00
   0.18400000E+01           0.16439156E+00
   0.18500000E+01           0.16013058E+00
   0.18600000E+01           0.15551467E+00
   0.18700000E+01           0.15135413E+00
   0.18800000E+01           0.14728684E+00
   0.18900000E+01           0.14306684E+00
   0.19000000E+01           0.13917431E+00
   0.19100000E+01           0.13512658E+00
   0.19200000E+01           0.13133244E+00
   0.19300000E+01           0.12752231E+00
   0.19400000E+01           0.12399929E+00
   0.19500000E+01           0.12033582E+00
   0.19600000E+01           0.11679493E+00
   0.19700000E+01           0.11325058E+00
   0.19800000E+01           0.11014524E+00
   0.19900000E+01           0.10682178E+00
   0.20000000E+01           0.52264356E-01
