 #written on 13Sep2024 at 17:14:14 
 #----------------------------------------------- MONTECARLO ---------------------------------------------------#
 # Temp      Magnetization     Energy_ave          C_M              Sus              U_E              U_M       #
 #--------------------------------------------------------------------------------------------------------------#
   0.5000   0.56208161E-02  -0.25168780E+02   0.10062841E+01   0.26623850E-01   0.66666643E+00   0.41762903E+00
   1.0000   0.79675056E-02  -0.24661459E+02   0.10177870E+01   0.26680980E-01   0.66666565E+00   0.41898962E+00
   1.5000   0.97623307E-02  -0.24148351E+02   0.10309588E+01   0.26523838E-01   0.66666425E+00   0.42153726E+00
   2.0000   0.11275333E-01  -0.23629404E+02   0.10438188E+01   0.26565193E-01   0.66666213E+00   0.42179938E+00
   2.5000   0.12619258E-01  -0.23103899E+02   0.10601588E+01   0.26553129E-01   0.66665913E+00   0.42219628E+00
   3.0000   0.13856718E-01  -0.22571109E+02   0.10736467E+01   0.26601846E-01   0.66665516E+00   0.42276354E+00
   3.5000   0.14982946E-01  -0.22030546E+02   0.10891695E+01   0.26645133E-01   0.66664999E+00   0.42341006E+00
   4.0000   0.16038139E-01  -0.21481983E+02   0.11064201E+01   0.26724435E-01   0.66664339E+00   0.42354168E+00
   4.5000   0.17083310E-01  -0.20923680E+02   0.11264465E+01   0.26913484E-01   0.66663505E+00   0.42384946E+00
   5.0000   0.18027796E-01  -0.20354704E+02   0.11476350E+01   0.26796059E-01   0.66662465E+00   0.42596947E+00
   5.5000   0.18996020E-01  -0.19774294E+02   0.11753442E+01   0.27032359E-01   0.66661150E+00   0.42654219E+00
   6.0000   0.19893742E-01  -0.19179763E+02   0.12025684E+01   0.27084425E-01   0.66659527E+00   0.42773927E+00
   6.5000   0.20779281E-01  -0.18569988E+02   0.12367518E+01   0.27223751E-01   0.66657475E+00   0.42842796E+00
   7.0000   0.21641510E-01  -0.17942149E+02   0.12777116E+01   0.27377727E-01   0.66654870E+00   0.42947472E+00
   7.5000   0.22483765E-01  -0.17293401E+02   0.13198627E+01   0.27498435E-01   0.66651610E+00   0.42996791E+00
   8.0000   0.23358097E-01  -0.16618807E+02   0.13758625E+01   0.27747834E-01   0.66647334E+00   0.43084550E+00
   8.5000   0.24230771E-01  -0.15914247E+02   0.14422878E+01   0.28032417E-01   0.66641720E+00   0.43197455E+00
   9.0000   0.25134534E-01  -0.15173554E+02   0.15199607E+01   0.28326144E-01   0.66634253E+00   0.43388060E+00
   9.5000   0.26068194E-01  -0.14389512E+02   0.16191986E+01   0.28744423E-01   0.66623897E+00   0.43502561E+00
  10.0000   0.27050906E-01  -0.13553052E+02   0.17317124E+01   0.29246767E-01   0.66609554E+00   0.43726993E+00
  10.5000   0.28125248E-01  -0.12650732E+02   0.18799699E+01   0.29992079E-01   0.66588253E+00   0.43847459E+00
  11.0000   0.29334211E-01  -0.11667747E+02   0.20662801E+01   0.31007746E-01   0.66555557E+00   0.44016771E+00
  11.5000   0.30656179E-01  -0.10588190E+02   0.22407956E+01   0.32258916E-01   0.66506785E+00   0.44150964E+00
  12.0000   0.31983009E-01  -0.94708246E+01   0.21443639E+01   0.33528309E-01   0.66457978E+00   0.44263645E+00
  12.5000   0.32785319E-01  -0.85237000E+01   0.16223176E+01   0.33671028E-01   0.66454504E+00   0.44411450E+00
  13.0000   0.33006405E-01  -0.78323044E+01   0.11850989E+01   0.32842385E-01   0.66468239E+00   0.44384967E+00
  13.5000   0.32891304E-01  -0.73047709E+01   0.94636424E+00   0.31353794E-01   0.66470432E+00   0.44444222E+00
  14.0000   0.32603319E-01  -0.68698288E+01   0.80188381E+00   0.29676535E-01   0.66464591E+00   0.44467751E+00
  14.5000   0.32252770E-01  -0.64961339E+01   0.69975799E+00   0.28015921E-01   0.66455230E+00   0.44509235E+00
  15.0000   0.31878525E-01  -0.61666130E+01   0.62043589E+00   0.26482613E-01   0.66444089E+00   0.44473677E+00
  15.5000   0.31474624E-01  -0.58725270E+01   0.55832412E+00   0.24973949E-01   0.66430898E+00   0.44483929E+00
  16.0000   0.31076337E-01  -0.56076485E+01   0.50496931E+00   0.23628323E-01   0.66417535E+00   0.44446681E+00
  16.5000   0.30692186E-01  -0.53668734E+01   0.46033853E+00   0.22330823E-01   0.66403051E+00   0.44455160E+00
  17.0000   0.30329062E-01  -0.51466892E+01   0.42110423E+00   0.21144534E-01   0.66388336E+00   0.44474081E+00
  17.5000   0.29971865E-01  -0.49443578E+01   0.38816271E+00   0.20073329E-01   0.66372188E+00   0.44462530E+00
  18.0000   0.29621762E-01  -0.47581018E+01   0.35834988E+00   0.19057560E-01   0.66356046E+00   0.44474120E+00
  18.5000   0.29291575E-01  -0.45853843E+01   0.33203298E+00   0.18136101E-01   0.66339413E+00   0.44478457E+00
  19.0000   0.29011060E-01  -0.44252472E+01   0.30941594E+00   0.17313600E-01   0.66321398E+00   0.44480667E+00
  19.5000   0.28695996E-01  -0.42760511E+01   0.28834204E+00   0.16510907E-01   0.66303788E+00   0.44469904E+00
  20.0000   0.28422034E-01  -0.41367045E+01   0.26950834E+00   0.15785538E-01   0.66285442E+00   0.44494482E+00
  20.5000   0.28158461E-01  -0.40061809E+01   0.25263732E+00   0.15109583E-01   0.66266462E+00   0.44502275E+00
  21.0000   0.27902290E-01  -0.38836371E+01   0.23745623E+00   0.14498823E-01   0.66246701E+00   0.44462237E+00
  21.5000   0.27664720E-01  -0.37685793E+01   0.22338395E+00   0.13917878E-01   0.66226957E+00   0.44468471E+00
  22.0000   0.27427820E-01  -0.36600023E+01   0.21063968E+00   0.13369436E-01   0.66206433E+00   0.44450259E+00
  22.5000   0.27228708E-01  -0.35575128E+01   0.19929351E+00   0.12876807E-01   0.66184761E+00   0.44474758E+00
  23.0000   0.27014701E-01  -0.34607347E+01   0.18830484E+00   0.12407480E-01   0.66164042E+00   0.44458826E+00
  23.5000   0.26819465E-01  -0.33690933E+01   0.17861360E+00   0.11969919E-01   0.66141513E+00   0.44460330E+00
  24.0000   0.26642829E-01  -0.32821805E+01   0.16940672E+00   0.11557547E-01   0.66119484E+00   0.44477108E+00
  24.5000   0.26458204E-01  -0.31998259E+01   0.16100980E+00   0.11177119E-01   0.66096527E+00   0.44446848E+00
  25.0000   0.26309896E-01  -0.31211486E+01   0.15315927E+00   0.10819432E-01   0.66073253E+00   0.44477025E+00
  25.5000   0.26129010E-01  -0.30464428E+01   0.14578415E+00   0.10473725E-01   0.66050073E+00   0.44452490E+00
  26.0000   0.25976449E-01  -0.29751506E+01   0.13888296E+00   0.10151239E-01   0.66026452E+00   0.44461003E+00
  26.5000   0.25830995E-01  -0.29071328E+01   0.13296017E+00   0.98317558E-02   0.66000072E+00   0.44502216E+00
  27.0000   0.25699344E-01  -0.28423451E+01   0.12706232E+00   0.95579256E-02   0.65975034E+00   0.44485019E+00
  27.5000   0.25565718E-01  -0.27804339E+01   0.12144451E+00   0.92924906E-02   0.65950170E+00   0.44464357E+00
  28.0000   0.25422203E-01  -0.27208297E+01   0.11630918E+00   0.90217768E-02   0.65924110E+00   0.44479065E+00
  28.5000   0.25298003E-01  -0.26638503E+01   0.11153483E+00   0.87748085E-02   0.65897094E+00   0.44475763E+00
  29.0000   0.25180228E-01  -0.26093093E+01   0.10684728E+00   0.85400216E-02   0.65871218E+00   0.44490967E+00
  29.5000   0.25068767E-01  -0.25566793E+01   0.10265281E+00   0.83264854E-02   0.65843468E+00   0.44482002E+00
  30.0000   0.24965002E-01  -0.25065749E+01   0.98613969E-01   0.81253688E-02   0.65815926E+00   0.44470854E+00
  30.5000   0.24849945E-01  -0.24581790E+01   0.94912591E-01   0.79216941E-02   0.65786821E+00   0.44450179E+00
  31.0000   0.24752187E-01  -0.24114329E+01   0.91361079E-01   0.77182335E-02   0.65757821E+00   0.44496665E+00
  31.5000   0.24658209E-01  -0.23666789E+01   0.88090286E-01   0.75439114E-02   0.65727733E+00   0.44472652E+00
  32.0000   0.24563308E-01  -0.23234010E+01   0.84912601E-01   0.73731854E-02   0.65697747E+00   0.44453784E+00
  32.5000   0.24466838E-01  -0.22815562E+01   0.81933465E-01   0.72057178E-02   0.65667055E+00   0.44458457E+00
  33.0000   0.24386231E-01  -0.22416707E+01   0.79043582E-01   0.70507313E-02   0.65636865E+00   0.44443527E+00
  33.5000   0.24305015E-01  -0.22028613E+01   0.76313366E-01   0.68964520E-02   0.65606059E+00   0.44463921E+00
  34.0000   0.24222927E-01  -0.21651556E+01   0.73734779E-01   0.67563459E-02   0.65574264E+00   0.44445074E+00
  34.5000   0.24141610E-01  -0.21289608E+01   0.71273799E-01   0.65982946E-02   0.65542441E+00   0.44528471E+00
  35.0000   0.24066404E-01  -0.20938869E+01   0.68952927E-01   0.64731478E-02   0.65509588E+00   0.44456587E+00
  35.5000   0.23985483E-01  -0.20597776E+01   0.66777056E-01   0.63500363E-02   0.65476312E+00   0.44430167E+00
  36.0000   0.23916702E-01  -0.20269567E+01   0.64626322E-01   0.62108514E-02   0.65443598E+00   0.44477300E+00
  36.5000   0.23858313E-01  -0.19954333E+01   0.62605885E-01   0.61019522E-02   0.65410432E+00   0.44452345E+00
  37.0000   0.23784110E-01  -0.19645829E+01   0.60745097E-01   0.59765497E-02   0.65374797E+00   0.44468844E+00
  37.5000   0.23727107E-01  -0.19346599E+01   0.58865109E-01   0.58715971E-02   0.65341488E+00   0.44478851E+00
  38.0000   0.23660677E-01  -0.19055057E+01   0.57115937E-01   0.57561108E-02   0.65306244E+00   0.44489218E+00
  38.5000   0.23596161E-01  -0.18775326E+01   0.55410466E-01   0.56520655E-02   0.65271558E+00   0.44485274E+00
  39.0000   0.23544101E-01  -0.18502069E+01   0.53924309E-01   0.55611284E-02   0.65232126E+00   0.44454506E+00
  39.5000   0.23487700E-01  -0.18236827E+01   0.52263885E-01   0.54639964E-02   0.65199422E+00   0.44454451E+00
  40.0000   0.23434271E-01  -0.17979556E+01   0.50838027E-01   0.53661277E-02   0.65161605E+00   0.44485036E+00
