 #written on  4Sep2024 at 19:02:01 
 #----------------- MONTECARLO -------------------#
 #        M                      P(M)             #
 #------------------------------------------------#
 #T=   276.0000
  -0.20000000E+01           0.00000000E+00
  -0.19900000E+01           0.00000000E+00
  -0.19800000E+01           0.00000000E+00
  -0.19700000E+01           0.00000000E+00
  -0.19600000E+01           0.00000000E+00
  -0.19500000E+01           0.00000000E+00
  -0.19400000E+01           0.00000000E+00
  -0.19300000E+01           0.00000000E+00
  -0.19200000E+01           0.00000000E+00
  -0.19100000E+01           0.00000000E+00
  -0.19000000E+01           0.00000000E+00
  -0.18900000E+01           0.00000000E+00
  -0.18800000E+01           0.00000000E+00
  -0.18700000E+01           0.00000000E+00
  -0.18600000E+01           0.00000000E+00
  -0.18500000E+01           0.00000000E+00
  -0.18400000E+01           0.00000000E+00
  -0.18300000E+01           0.00000000E+00
  -0.18200000E+01           0.00000000E+00
  -0.18100000E+01           0.00000000E+00
  -0.18000000E+01           0.00000000E+00
  -0.17900000E+01           0.00000000E+00
  -0.17800000E+01           0.00000000E+00
  -0.17700000E+01           0.00000000E+00
  -0.17600000E+01           0.00000000E+00
  -0.17500000E+01           0.00000000E+00
  -0.17400000E+01           0.00000000E+00
  -0.17300000E+01           0.00000000E+00
  -0.17200000E+01           0.00000000E+00
  -0.17100000E+01           0.00000000E+00
  -0.17000000E+01           0.00000000E+00
  -0.16900000E+01           0.00000000E+00
  -0.16800000E+01           0.00000000E+00
  -0.16700000E+01           0.00000000E+00
  -0.16600000E+01           0.00000000E+00
  -0.16500000E+01           0.00000000E+00
  -0.16400000E+01           0.00000000E+00
  -0.16300000E+01           0.00000000E+00
  -0.16200000E+01           0.00000000E+00
  -0.16100000E+01           0.00000000E+00
  -0.16000000E+01           0.00000000E+00
  -0.15900000E+01           0.00000000E+00
  -0.15800000E+01           0.00000000E+00
  -0.15700000E+01           0.00000000E+00
  -0.15600000E+01           0.00000000E+00
  -0.15500000E+01           0.00000000E+00
  -0.15400000E+01           0.00000000E+00
  -0.15300000E+01           0.00000000E+00
  -0.15200000E+01           0.00000000E+00
  -0.15100000E+01           0.00000000E+00
  -0.15000000E+01           0.00000000E+00
  -0.14900000E+01           0.00000000E+00
  -0.14800000E+01           0.00000000E+00
  -0.14700000E+01           0.00000000E+00
  -0.14600000E+01           0.00000000E+00
  -0.14500000E+01           0.00000000E+00
  -0.14400000E+01           0.00000000E+00
  -0.14300000E+01           0.00000000E+00
  -0.14200000E+01           0.00000000E+00
  -0.14100000E+01           0.00000000E+00
  -0.14000000E+01           0.00000000E+00
  -0.13900000E+01           0.00000000E+00
  -0.13800000E+01           0.00000000E+00
  -0.13700000E+01           0.00000000E+00
  -0.13600000E+01           0.00000000E+00
  -0.13500000E+01           0.00000000E+00
  -0.13400000E+01           0.00000000E+00
  -0.13300000E+01           0.00000000E+00
  -0.13200000E+01           0.00000000E+00
  -0.13100000E+01           0.00000000E+00
  -0.13000000E+01           0.00000000E+00
  -0.12900000E+01           0.00000000E+00
  -0.12800000E+01           0.00000000E+00
  -0.12700000E+01           0.00000000E+00
  -0.12600000E+01           0.00000000E+00
  -0.12500000E+01           0.00000000E+00
  -0.12400000E+01           0.00000000E+00
  -0.12300000E+01           0.00000000E+00
  -0.12200000E+01           0.00000000E+00
  -0.12100000E+01           0.00000000E+00
  -0.12000000E+01           0.00000000E+00
  -0.11900000E+01           0.00000000E+00
  -0.11800000E+01           0.00000000E+00
  -0.11700000E+01           0.00000000E+00
  -0.11600000E+01           0.00000000E+00
  -0.11500000E+01           0.00000000E+00
  -0.11400000E+01           0.00000000E+00
  -0.11300000E+01           0.00000000E+00
  -0.11200000E+01           0.00000000E+00
  -0.11100000E+01           0.00000000E+00
  -0.11000000E+01           0.00000000E+00
  -0.10900000E+01           0.00000000E+00
  -0.10800000E+01           0.00000000E+00
  -0.10700000E+01           0.00000000E+00
  -0.10600000E+01           0.00000000E+00
  -0.10500000E+01           0.00000000E+00
  -0.10400000E+01           0.00000000E+00
  -0.10300000E+01           0.00000000E+00
  -0.10200000E+01           0.00000000E+00
  -0.10100000E+01           0.00000000E+00
  -0.10000000E+01           0.00000000E+00
  -0.99000000E+00           0.00000000E+00
  -0.98000000E+00           0.00000000E+00
  -0.97000000E+00           0.00000000E+00
  -0.96000000E+00           0.00000000E+00
  -0.95000000E+00           0.00000000E+00
  -0.94000000E+00           0.00000000E+00
  -0.93000000E+00           0.00000000E+00
  -0.92000000E+00           0.00000000E+00
  -0.91000000E+00           0.00000000E+00
  -0.90000000E+00           0.00000000E+00
  -0.89000000E+00           0.00000000E+00
  -0.88000000E+00           0.00000000E+00
  -0.87000000E+00           0.00000000E+00
  -0.86000000E+00           0.00000000E+00
  -0.85000000E+00           0.00000000E+00
  -0.84000000E+00           0.00000000E+00
  -0.83000000E+00           0.00000000E+00
  -0.82000000E+00           0.00000000E+00
  -0.81000000E+00           0.00000000E+00
  -0.80000000E+00           0.00000000E+00
  -0.79000000E+00           0.00000000E+00
  -0.78000000E+00           0.00000000E+00
  -0.77000000E+00           0.00000000E+00
  -0.76000000E+00           0.00000000E+00
  -0.75000000E+00           0.00000000E+00
  -0.74000000E+00           0.00000000E+00
  -0.73000000E+00           0.00000000E+00
  -0.72000000E+00           0.00000000E+00
  -0.71000000E+00           0.00000000E+00
  -0.70000000E+00           0.00000000E+00
  -0.69000000E+00           0.00000000E+00
  -0.68000000E+00           0.00000000E+00
  -0.67000000E+00           0.00000000E+00
  -0.66000000E+00           0.00000000E+00
  -0.65000000E+00           0.00000000E+00
  -0.64000000E+00           0.00000000E+00
  -0.63000000E+00           0.00000000E+00
  -0.62000000E+00           0.00000000E+00
  -0.61000000E+00           0.00000000E+00
  -0.60000000E+00           0.00000000E+00
  -0.59000000E+00           0.00000000E+00
  -0.58000000E+00           0.00000000E+00
  -0.57000000E+00           0.00000000E+00
  -0.56000000E+00           0.00000000E+00
  -0.55000000E+00           0.00000000E+00
  -0.54000000E+00           0.00000000E+00
  -0.53000000E+00           0.00000000E+00
  -0.52000000E+00           0.00000000E+00
  -0.51000000E+00           0.00000000E+00
  -0.50000000E+00           0.00000000E+00
  -0.49000000E+00           0.00000000E+00
  -0.48000000E+00           0.00000000E+00
  -0.47000000E+00           0.00000000E+00
  -0.46000000E+00           0.00000000E+00
  -0.45000000E+00           0.00000000E+00
  -0.44000000E+00           0.00000000E+00
  -0.43000000E+00           0.00000000E+00
  -0.42000000E+00           0.00000000E+00
  -0.41000000E+00           0.00000000E+00
  -0.40000000E+00           0.00000000E+00
  -0.39000000E+00           0.00000000E+00
  -0.38000000E+00           0.00000000E+00
  -0.37000000E+00           0.00000000E+00
  -0.36000000E+00           0.00000000E+00
  -0.35000000E+00           0.00000000E+00
  -0.34000000E+00           0.00000000E+00
  -0.33000000E+00           0.00000000E+00
  -0.32000000E+00           0.00000000E+00
  -0.31000000E+00           0.00000000E+00
  -0.30000000E+00           0.00000000E+00
  -0.29000000E+00           0.00000000E+00
  -0.28000000E+00           0.00000000E+00
  -0.27000000E+00           0.00000000E+00
  -0.26000000E+00           0.00000000E+00
  -0.25000000E+00           0.00000000E+00
  -0.24000000E+00           0.00000000E+00
  -0.23000000E+00           0.00000000E+00
  -0.22000000E+00           0.00000000E+00
  -0.21000000E+00           0.00000000E+00
  -0.20000000E+00           0.00000000E+00
  -0.19000000E+00           0.00000000E+00
  -0.18000000E+00           0.00000000E+00
  -0.17000000E+00           0.00000000E+00
  -0.16000000E+00           0.00000000E+00
  -0.15000000E+00           0.00000000E+00
  -0.14000000E+00           0.00000000E+00
  -0.13000000E+00           0.00000000E+00
  -0.12000000E+00           0.00000000E+00
  -0.11000000E+00           0.00000000E+00
  -0.10000000E+00           0.00000000E+00
  -0.90000000E-01           0.00000000E+00
  -0.80000000E-01           0.00000000E+00
  -0.70000000E-01           0.00000000E+00
  -0.60000000E-01           0.00000000E+00
  -0.50000000E-01           0.00000000E+00
  -0.40000000E-01           0.00000000E+00
  -0.30000000E-01           0.00000000E+00
  -0.20000000E-01           0.00000000E+00
  -0.10000000E-01           0.00000000E+00
   0.00000000E+00           0.45601852E-04
   0.10000000E-01           0.35802469E-03
   0.20000000E-01           0.71195988E-03
   0.30000000E-01           0.11070216E-02
   0.40000000E-01           0.14663580E-02
   0.50000000E-01           0.18056327E-02
   0.60000000E-01           0.21739198E-02
   0.70000000E-01           0.25836420E-02
   0.80000000E-01           0.29466821E-02
   0.90000000E-01           0.33137346E-02
   0.10000000E+00           0.36804012E-02
   0.11000000E+00           0.40929012E-02
   0.12000000E+00           0.44553241E-02
   0.13000000E+00           0.48758488E-02
   0.14000000E+00           0.53107253E-02
   0.15000000E+00           0.56988426E-02
   0.16000000E+00           0.61139660E-02
   0.17000000E+00           0.65506944E-02
   0.18000000E+00           0.69895833E-02
   0.19000000E+00           0.74629630E-02
   0.20000000E+00           0.78848765E-02
   0.21000000E+00           0.83415895E-02
   0.22000000E+00           0.88659722E-02
   0.23000000E+00           0.93199846E-02
   0.24000000E+00           0.98439043E-02
   0.25000000E+00           0.10390818E-01
   0.26000000E+00           0.10939120E-01
   0.27000000E+00           0.11487191E-01
   0.28000000E+00           0.12003086E-01
   0.29000000E+00           0.12603472E-01
   0.30000000E+00           0.13229552E-01
   0.31000000E+00           0.13781944E-01
   0.32000000E+00           0.14547917E-01
   0.33000000E+00           0.15083719E-01
   0.34000000E+00           0.15810185E-01
   0.35000000E+00           0.16446682E-01
   0.36000000E+00           0.17166590E-01
   0.37000000E+00           0.17902006E-01
   0.38000000E+00           0.18664352E-01
   0.39000000E+00           0.19464583E-01
   0.40000000E+00           0.20267438E-01
   0.41000000E+00           0.21064738E-01
   0.42000000E+00           0.21910108E-01
   0.43000000E+00           0.22868364E-01
   0.44000000E+00           0.23755556E-01
   0.45000000E+00           0.24657485E-01
   0.46000000E+00           0.25668750E-01
   0.47000000E+00           0.26674228E-01
   0.48000000E+00           0.27809336E-01
   0.49000000E+00           0.28806250E-01
   0.50000000E+00           0.29896373E-01
   0.51000000E+00           0.31047145E-01
   0.52000000E+00           0.32220062E-01
   0.53000000E+00           0.33568750E-01
   0.54000000E+00           0.34794753E-01
   0.55000000E+00           0.36031327E-01
   0.56000000E+00           0.37397994E-01
   0.57000000E+00           0.38755941E-01
   0.58000000E+00           0.40264892E-01
   0.59000000E+00           0.41719907E-01
   0.60000000E+00           0.43200386E-01
   0.61000000E+00           0.44868210E-01
   0.62000000E+00           0.46460802E-01
   0.63000000E+00           0.48153164E-01
   0.64000000E+00           0.49880093E-01
   0.65000000E+00           0.51727932E-01
   0.66000000E+00           0.53526003E-01
   0.67000000E+00           0.55599383E-01
   0.68000000E+00           0.57502855E-01
   0.69000000E+00           0.59607716E-01
   0.70000000E+00           0.61615586E-01
   0.71000000E+00           0.64018287E-01
   0.72000000E+00           0.66100772E-01
   0.73000000E+00           0.68465201E-01
   0.74000000E+00           0.70717515E-01
   0.75000000E+00           0.73200077E-01
   0.76000000E+00           0.75809491E-01
   0.77000000E+00           0.78397762E-01
   0.78000000E+00           0.81264506E-01
   0.79000000E+00           0.84016667E-01
   0.80000000E+00           0.86864429E-01
   0.81000000E+00           0.89927469E-01
   0.82000000E+00           0.92932176E-01
   0.83000000E+00           0.96026929E-01
   0.84000000E+00           0.99340355E-01
   0.85000000E+00           0.10250455E+00
   0.86000000E+00           0.10614306E+00
   0.87000000E+00           0.10970640E+00
   0.88000000E+00           0.11333140E+00
   0.89000000E+00           0.11717099E+00
   0.90000000E+00           0.12123449E+00
   0.91000000E+00           0.12516952E+00
   0.92000000E+00           0.12935702E+00
   0.93000000E+00           0.13367894E+00
   0.94000000E+00           0.13795756E+00
   0.95000000E+00           0.14245563E+00
   0.96000000E+00           0.14710548E+00
   0.97000000E+00           0.15217245E+00
   0.98000000E+00           0.15698835E+00
   0.99000000E+00           0.16219491E+00
   0.10000000E+01           0.16749622E+00
   0.10100000E+01           0.17265525E+00
   0.10200000E+01           0.17837608E+00
   0.10300000E+01           0.18410239E+00
   0.10400000E+01           0.18996211E+00
   0.10500000E+01           0.19632894E+00
   0.10600000E+01           0.20221042E+00
   0.10700000E+01           0.20885131E+00
   0.10800000E+01           0.21549853E+00
   0.10900000E+01           0.22221103E+00
   0.11000000E+01           0.22926366E+00
   0.11100000E+01           0.23630586E+00
   0.11200000E+01           0.24391914E+00
   0.11300000E+01           0.25138611E+00
   0.11400000E+01           0.25933102E+00
   0.11500000E+01           0.26732068E+00
   0.11600000E+01           0.27558565E+00
   0.11700000E+01           0.28380193E+00
   0.11800000E+01           0.29279969E+00
   0.11900000E+01           0.30206111E+00
   0.12000000E+01           0.31100262E+00
   0.12100000E+01           0.32051103E+00
   0.12200000E+01           0.33069329E+00
   0.12300000E+01           0.34059244E+00
   0.12400000E+01           0.35072569E+00
   0.12500000E+01           0.36138981E+00
   0.12600000E+01           0.37236258E+00
   0.12700000E+01           0.38358966E+00
   0.12800000E+01           0.39475378E+00
   0.12900000E+01           0.40670340E+00
   0.13000000E+01           0.41874390E+00
   0.13100000E+01           0.43084059E+00
   0.13200000E+01           0.44399560E+00
   0.13300000E+01           0.45710224E+00
   0.13400000E+01           0.47046011E+00
   0.13500000E+01           0.48421265E+00
   0.13600000E+01           0.49802824E+00
   0.13700000E+01           0.51307701E+00
   0.13800000E+01           0.52775926E+00
   0.13900000E+01           0.54243773E+00
   0.14000000E+01           0.55840062E+00
   0.14100000E+01           0.57486119E+00
   0.14200000E+01           0.59136381E+00
   0.14300000E+01           0.60820077E+00
   0.14400000E+01           0.62538789E+00
   0.14500000E+01           0.64296088E+00
   0.14600000E+01           0.66150532E+00
   0.14700000E+01           0.68017222E+00
   0.14800000E+01           0.69924028E+00
   0.14900000E+01           0.71891898E+00
   0.15000000E+01           0.73901613E+00
   0.15100000E+01           0.75946875E+00
   0.15200000E+01           0.78106358E+00
   0.15300000E+01           0.80243364E+00
   0.15400000E+01           0.82418588E+00
   0.15500000E+01           0.84708225E+00
   0.15600000E+01           0.87042778E+00
   0.15700000E+01           0.89401389E+00
   0.15800000E+01           0.91857585E+00
   0.15900000E+01           0.94331250E+00
   0.16000000E+01           0.96859552E+00
   0.16100000E+01           0.99491350E+00
   0.16200000E+01           0.10214235E+01
   0.16300000E+01           0.10490215E+01
   0.16400000E+01           0.10765957E+01
   0.16500000E+01           0.11055699E+01
   0.16600000E+01           0.11348165E+01
   0.16700000E+01           0.11651221E+01
   0.16800000E+01           0.11959754E+01
   0.16900000E+01           0.12271712E+01
   0.17000000E+01           0.12594085E+01
   0.17100000E+01           0.12920094E+01
   0.17200000E+01           0.13258256E+01
   0.17300000E+01           0.13600445E+01
   0.17400000E+01           0.13954646E+01
   0.17500000E+01           0.14307701E+01
   0.17600000E+01           0.14679613E+01
   0.17700000E+01           0.15057295E+01
   0.17800000E+01           0.15439934E+01
   0.17900000E+01           0.15830995E+01
   0.18000000E+01           0.16231401E+01
   0.18100000E+01           0.16643259E+01
   0.18200000E+01           0.17065932E+01
   0.18300000E+01           0.17486941E+01
   0.18400000E+01           0.17918568E+01
   0.18500000E+01           0.18366917E+01
   0.18600000E+01           0.18821051E+01
   0.18700000E+01           0.19289897E+01
   0.18800000E+01           0.19761804E+01
   0.18900000E+01           0.20241383E+01
   0.19000000E+01           0.20735097E+01
   0.19100000E+01           0.21249167E+01
   0.19200000E+01           0.21756259E+01
   0.19300000E+01           0.22291810E+01
   0.19400000E+01           0.22818340E+01
   0.19500000E+01           0.23370880E+01
   0.19600000E+01           0.23918548E+01
   0.19700000E+01           0.24499701E+01
   0.19800000E+01           0.25068069E+01
   0.19900000E+01           0.25668217E+01
   0.20000000E+01           0.13060283E+01
 #T=   277.0000
  -0.20000000E+01           0.00000000E+00
  -0.19900000E+01           0.00000000E+00
  -0.19800000E+01           0.00000000E+00
  -0.19700000E+01           0.00000000E+00
  -0.19600000E+01           0.00000000E+00
  -0.19500000E+01           0.00000000E+00
  -0.19400000E+01           0.00000000E+00
  -0.19300000E+01           0.00000000E+00
  -0.19200000E+01           0.00000000E+00
  -0.19100000E+01           0.00000000E+00
  -0.19000000E+01           0.00000000E+00
  -0.18900000E+01           0.00000000E+00
  -0.18800000E+01           0.00000000E+00
  -0.18700000E+01           0.00000000E+00
  -0.18600000E+01           0.00000000E+00
  -0.18500000E+01           0.00000000E+00
  -0.18400000E+01           0.00000000E+00
  -0.18300000E+01           0.00000000E+00
  -0.18200000E+01           0.00000000E+00
  -0.18100000E+01           0.00000000E+00
  -0.18000000E+01           0.00000000E+00
  -0.17900000E+01           0.00000000E+00
  -0.17800000E+01           0.00000000E+00
  -0.17700000E+01           0.00000000E+00
  -0.17600000E+01           0.00000000E+00
  -0.17500000E+01           0.00000000E+00
  -0.17400000E+01           0.00000000E+00
  -0.17300000E+01           0.00000000E+00
  -0.17200000E+01           0.00000000E+00
  -0.17100000E+01           0.00000000E+00
  -0.17000000E+01           0.00000000E+00
  -0.16900000E+01           0.00000000E+00
  -0.16800000E+01           0.00000000E+00
  -0.16700000E+01           0.00000000E+00
  -0.16600000E+01           0.00000000E+00
  -0.16500000E+01           0.00000000E+00
  -0.16400000E+01           0.00000000E+00
  -0.16300000E+01           0.00000000E+00
  -0.16200000E+01           0.00000000E+00
  -0.16100000E+01           0.00000000E+00
  -0.16000000E+01           0.00000000E+00
  -0.15900000E+01           0.00000000E+00
  -0.15800000E+01           0.00000000E+00
  -0.15700000E+01           0.00000000E+00
  -0.15600000E+01           0.00000000E+00
  -0.15500000E+01           0.00000000E+00
  -0.15400000E+01           0.00000000E+00
  -0.15300000E+01           0.00000000E+00
  -0.15200000E+01           0.00000000E+00
  -0.15100000E+01           0.00000000E+00
  -0.15000000E+01           0.00000000E+00
  -0.14900000E+01           0.00000000E+00
  -0.14800000E+01           0.00000000E+00
  -0.14700000E+01           0.00000000E+00
  -0.14600000E+01           0.00000000E+00
  -0.14500000E+01           0.00000000E+00
  -0.14400000E+01           0.00000000E+00
  -0.14300000E+01           0.00000000E+00
  -0.14200000E+01           0.00000000E+00
  -0.14100000E+01           0.00000000E+00
  -0.14000000E+01           0.00000000E+00
  -0.13900000E+01           0.00000000E+00
  -0.13800000E+01           0.00000000E+00
  -0.13700000E+01           0.00000000E+00
  -0.13600000E+01           0.00000000E+00
  -0.13500000E+01           0.00000000E+00
  -0.13400000E+01           0.00000000E+00
  -0.13300000E+01           0.00000000E+00
  -0.13200000E+01           0.00000000E+00
  -0.13100000E+01           0.00000000E+00
  -0.13000000E+01           0.00000000E+00
  -0.12900000E+01           0.00000000E+00
  -0.12800000E+01           0.00000000E+00
  -0.12700000E+01           0.00000000E+00
  -0.12600000E+01           0.00000000E+00
  -0.12500000E+01           0.00000000E+00
  -0.12400000E+01           0.00000000E+00
  -0.12300000E+01           0.00000000E+00
  -0.12200000E+01           0.00000000E+00
  -0.12100000E+01           0.00000000E+00
  -0.12000000E+01           0.00000000E+00
  -0.11900000E+01           0.00000000E+00
  -0.11800000E+01           0.00000000E+00
  -0.11700000E+01           0.00000000E+00
  -0.11600000E+01           0.00000000E+00
  -0.11500000E+01           0.00000000E+00
  -0.11400000E+01           0.00000000E+00
  -0.11300000E+01           0.00000000E+00
  -0.11200000E+01           0.00000000E+00
  -0.11100000E+01           0.00000000E+00
  -0.11000000E+01           0.00000000E+00
  -0.10900000E+01           0.00000000E+00
  -0.10800000E+01           0.00000000E+00
  -0.10700000E+01           0.00000000E+00
  -0.10600000E+01           0.00000000E+00
  -0.10500000E+01           0.00000000E+00
  -0.10400000E+01           0.00000000E+00
  -0.10300000E+01           0.00000000E+00
  -0.10200000E+01           0.00000000E+00
  -0.10100000E+01           0.00000000E+00
  -0.10000000E+01           0.00000000E+00
  -0.99000000E+00           0.00000000E+00
  -0.98000000E+00           0.00000000E+00
  -0.97000000E+00           0.00000000E+00
  -0.96000000E+00           0.00000000E+00
  -0.95000000E+00           0.00000000E+00
  -0.94000000E+00           0.00000000E+00
  -0.93000000E+00           0.00000000E+00
  -0.92000000E+00           0.00000000E+00
  -0.91000000E+00           0.00000000E+00
  -0.90000000E+00           0.00000000E+00
  -0.89000000E+00           0.00000000E+00
  -0.88000000E+00           0.00000000E+00
  -0.87000000E+00           0.00000000E+00
  -0.86000000E+00           0.00000000E+00
  -0.85000000E+00           0.00000000E+00
  -0.84000000E+00           0.00000000E+00
  -0.83000000E+00           0.00000000E+00
  -0.82000000E+00           0.00000000E+00
  -0.81000000E+00           0.00000000E+00
  -0.80000000E+00           0.00000000E+00
  -0.79000000E+00           0.00000000E+00
  -0.78000000E+00           0.00000000E+00
  -0.77000000E+00           0.00000000E+00
  -0.76000000E+00           0.00000000E+00
  -0.75000000E+00           0.00000000E+00
  -0.74000000E+00           0.00000000E+00
  -0.73000000E+00           0.00000000E+00
  -0.72000000E+00           0.00000000E+00
  -0.71000000E+00           0.00000000E+00
  -0.70000000E+00           0.00000000E+00
  -0.69000000E+00           0.00000000E+00
  -0.68000000E+00           0.00000000E+00
  -0.67000000E+00           0.00000000E+00
  -0.66000000E+00           0.00000000E+00
  -0.65000000E+00           0.00000000E+00
  -0.64000000E+00           0.00000000E+00
  -0.63000000E+00           0.00000000E+00
  -0.62000000E+00           0.00000000E+00
  -0.61000000E+00           0.00000000E+00
  -0.60000000E+00           0.00000000E+00
  -0.59000000E+00           0.00000000E+00
  -0.58000000E+00           0.00000000E+00
  -0.57000000E+00           0.00000000E+00
  -0.56000000E+00           0.00000000E+00
  -0.55000000E+00           0.00000000E+00
  -0.54000000E+00           0.00000000E+00
  -0.53000000E+00           0.00000000E+00
  -0.52000000E+00           0.00000000E+00
  -0.51000000E+00           0.00000000E+00
  -0.50000000E+00           0.00000000E+00
  -0.49000000E+00           0.00000000E+00
  -0.48000000E+00           0.00000000E+00
  -0.47000000E+00           0.00000000E+00
  -0.46000000E+00           0.00000000E+00
  -0.45000000E+00           0.00000000E+00
  -0.44000000E+00           0.00000000E+00
  -0.43000000E+00           0.00000000E+00
  -0.42000000E+00           0.00000000E+00
  -0.41000000E+00           0.00000000E+00
  -0.40000000E+00           0.00000000E+00
  -0.39000000E+00           0.00000000E+00
  -0.38000000E+00           0.00000000E+00
  -0.37000000E+00           0.00000000E+00
  -0.36000000E+00           0.00000000E+00
  -0.35000000E+00           0.00000000E+00
  -0.34000000E+00           0.00000000E+00
  -0.33000000E+00           0.00000000E+00
  -0.32000000E+00           0.00000000E+00
  -0.31000000E+00           0.00000000E+00
  -0.30000000E+00           0.00000000E+00
  -0.29000000E+00           0.00000000E+00
  -0.28000000E+00           0.00000000E+00
  -0.27000000E+00           0.00000000E+00
  -0.26000000E+00           0.00000000E+00
  -0.25000000E+00           0.00000000E+00
  -0.24000000E+00           0.00000000E+00
  -0.23000000E+00           0.00000000E+00
  -0.22000000E+00           0.00000000E+00
  -0.21000000E+00           0.00000000E+00
  -0.20000000E+00           0.00000000E+00
  -0.19000000E+00           0.00000000E+00
  -0.18000000E+00           0.00000000E+00
  -0.17000000E+00           0.00000000E+00
  -0.16000000E+00           0.00000000E+00
  -0.15000000E+00           0.00000000E+00
  -0.14000000E+00           0.00000000E+00
  -0.13000000E+00           0.00000000E+00
  -0.12000000E+00           0.00000000E+00
  -0.11000000E+00           0.00000000E+00
  -0.10000000E+00           0.00000000E+00
  -0.90000000E-01           0.00000000E+00
  -0.80000000E-01           0.00000000E+00
  -0.70000000E-01           0.00000000E+00
  -0.60000000E-01           0.00000000E+00
  -0.50000000E-01           0.00000000E+00
  -0.40000000E-01           0.00000000E+00
  -0.30000000E-01           0.00000000E+00
  -0.20000000E-01           0.00000000E+00
  -0.10000000E-01           0.00000000E+00
   0.00000000E+00           0.44984568E-04
   0.10000000E-01           0.37546296E-03
   0.20000000E-01           0.74290123E-03
   0.30000000E-01           0.11334105E-02
   0.40000000E-01           0.14739198E-02
   0.50000000E-01           0.18846451E-02
   0.60000000E-01           0.22661265E-02
   0.70000000E-01           0.26262346E-02
   0.80000000E-01           0.30255401E-02
   0.90000000E-01           0.33983025E-02
   0.10000000E+00           0.38099537E-02
   0.11000000E+00           0.41794753E-02
   0.12000000E+00           0.46327932E-02
   0.13000000E+00           0.50298611E-02
   0.14000000E+00           0.54517747E-02
   0.15000000E+00           0.58442130E-02
   0.16000000E+00           0.63671296E-02
   0.17000000E+00           0.67283951E-02
   0.18000000E+00           0.71908179E-02
   0.19000000E+00           0.76746914E-02
   0.20000000E+00           0.81497685E-02
   0.21000000E+00           0.86067901E-02
   0.22000000E+00           0.91502315E-02
   0.23000000E+00           0.96417438E-02
   0.24000000E+00           0.10126080E-01
   0.25000000E+00           0.10720062E-01
   0.26000000E+00           0.11242361E-01
   0.27000000E+00           0.11855015E-01
   0.28000000E+00           0.12395833E-01
   0.29000000E+00           0.12979707E-01
   0.30000000E+00           0.13619290E-01
   0.31000000E+00           0.14188503E-01
   0.32000000E+00           0.14821682E-01
   0.33000000E+00           0.15510494E-01
   0.34000000E+00           0.16215895E-01
   0.35000000E+00           0.16892670E-01
   0.36000000E+00           0.17663657E-01
   0.37000000E+00           0.18368750E-01
   0.38000000E+00           0.19233565E-01
   0.39000000E+00           0.20009336E-01
   0.40000000E+00           0.20842593E-01
   0.41000000E+00           0.21662500E-01
   0.42000000E+00           0.22509954E-01
   0.43000000E+00           0.23394522E-01
   0.44000000E+00           0.24397762E-01
   0.45000000E+00           0.25369059E-01
   0.46000000E+00           0.26299074E-01
   0.47000000E+00           0.27359799E-01
   0.48000000E+00           0.28420062E-01
   0.49000000E+00           0.29487809E-01
   0.50000000E+00           0.30681559E-01
   0.51000000E+00           0.31893056E-01
   0.52000000E+00           0.33059105E-01
   0.53000000E+00           0.34321373E-01
   0.54000000E+00           0.35659799E-01
   0.55000000E+00           0.36800694E-01
   0.56000000E+00           0.38301312E-01
   0.57000000E+00           0.39726003E-01
   0.58000000E+00           0.41130710E-01
   0.59000000E+00           0.42587654E-01
   0.60000000E+00           0.44313272E-01
   0.61000000E+00           0.45834336E-01
   0.62000000E+00           0.47492438E-01
   0.63000000E+00           0.49278241E-01
   0.64000000E+00           0.51037114E-01
   0.65000000E+00           0.52786960E-01
   0.66000000E+00           0.54693364E-01
   0.67000000E+00           0.56682253E-01
   0.68000000E+00           0.58696759E-01
   0.69000000E+00           0.60671914E-01
   0.70000000E+00           0.62825540E-01
   0.71000000E+00           0.65095370E-01
   0.72000000E+00           0.67375077E-01
   0.73000000E+00           0.69766127E-01
   0.74000000E+00           0.72191281E-01
   0.75000000E+00           0.74517052E-01
   0.76000000E+00           0.77163503E-01
   0.77000000E+00           0.79959414E-01
   0.78000000E+00           0.82682407E-01
   0.79000000E+00           0.85447762E-01
   0.80000000E+00           0.88357870E-01
   0.81000000E+00           0.91459568E-01
   0.82000000E+00           0.94455093E-01
   0.83000000E+00           0.97667130E-01
   0.84000000E+00           0.10098634E+00
   0.85000000E+00           0.10458642E+00
   0.86000000E+00           0.10776505E+00
   0.87000000E+00           0.11144429E+00
   0.88000000E+00           0.11509120E+00
   0.89000000E+00           0.11914136E+00
   0.90000000E+00           0.12305841E+00
   0.91000000E+00           0.12719059E+00
   0.92000000E+00           0.13139244E+00
   0.93000000E+00           0.13545008E+00
   0.94000000E+00           0.14020972E+00
   0.95000000E+00           0.14462122E+00
   0.96000000E+00           0.14941065E+00
   0.97000000E+00           0.15408449E+00
   0.98000000E+00           0.15909722E+00
   0.99000000E+00           0.16403696E+00
   0.10000000E+01           0.16960664E+00
   0.10100000E+01           0.17508349E+00
   0.10200000E+01           0.18060486E+00
   0.10300000E+01           0.18639529E+00
   0.10400000E+01           0.19250139E+00
   0.10500000E+01           0.19841790E+00
   0.10600000E+01           0.20480810E+00
   0.10700000E+01           0.21145363E+00
   0.10800000E+01           0.21794113E+00
   0.10900000E+01           0.22475926E+00
   0.11000000E+01           0.23169306E+00
   0.11100000E+01           0.23914205E+00
   0.11200000E+01           0.24645077E+00
   0.11300000E+01           0.25397076E+00
   0.11400000E+01           0.26212500E+00
   0.11500000E+01           0.26991968E+00
   0.11600000E+01           0.27839097E+00
   0.11700000E+01           0.28693079E+00
   0.11800000E+01           0.29587323E+00
   0.11900000E+01           0.30475725E+00
   0.12000000E+01           0.31395455E+00
   0.12100000E+01           0.32340031E+00
   0.12200000E+01           0.33325934E+00
   0.12300000E+01           0.34326528E+00
   0.12400000E+01           0.35370031E+00
   0.12500000E+01           0.36402639E+00
   0.12600000E+01           0.37488696E+00
   0.12700000E+01           0.38620023E+00
   0.12800000E+01           0.39797917E+00
   0.12900000E+01           0.40984722E+00
   0.13000000E+01           0.42178704E+00
   0.13100000E+01           0.43393650E+00
   0.13200000E+01           0.44693511E+00
   0.13300000E+01           0.45967492E+00
   0.13400000E+01           0.47321551E+00
   0.13500000E+01           0.48725718E+00
   0.13600000E+01           0.50102994E+00
   0.13700000E+01           0.51560764E+00
   0.13800000E+01           0.53067037E+00
   0.13900000E+01           0.54551651E+00
   0.14000000E+01           0.56108657E+00
   0.14100000E+01           0.57762160E+00
   0.14200000E+01           0.59404390E+00
   0.14300000E+01           0.61091250E+00
   0.14400000E+01           0.62823542E+00
   0.14500000E+01           0.64550062E+00
   0.14600000E+01           0.66388318E+00
   0.14700000E+01           0.68243171E+00
   0.14800000E+01           0.70185710E+00
   0.14900000E+01           0.72076019E+00
   0.15000000E+01           0.74076458E+00
   0.15100000E+01           0.76156265E+00
   0.15200000E+01           0.78282924E+00
   0.15300000E+01           0.80396443E+00
   0.15400000E+01           0.82588395E+00
   0.15500000E+01           0.84903465E+00
   0.15600000E+01           0.87186088E+00
   0.15700000E+01           0.89582631E+00
   0.15800000E+01           0.91991319E+00
   0.15900000E+01           0.94427469E+00
   0.16000000E+01           0.96948927E+00
   0.16100000E+01           0.99555293E+00
   0.16200000E+01           0.10215681E+01
   0.16300000E+01           0.10492529E+01
   0.16400000E+01           0.10771146E+01
   0.16500000E+01           0.11057918E+01
   0.16600000E+01           0.11346839E+01
   0.16700000E+01           0.11643402E+01
   0.16800000E+01           0.11954049E+01
   0.16900000E+01           0.12263932E+01
   0.17000000E+01           0.12581292E+01
   0.17100000E+01           0.12898486E+01
   0.17200000E+01           0.13246880E+01
   0.17300000E+01           0.13578734E+01
   0.17400000E+01           0.13932490E+01
   0.17500000E+01           0.14285548E+01
   0.17600000E+01           0.14646103E+01
   0.17700000E+01           0.15021269E+01
   0.17800000E+01           0.15395173E+01
   0.17900000E+01           0.15789708E+01
   0.18000000E+01           0.16180446E+01
   0.18100000E+01           0.16587167E+01
   0.18200000E+01           0.16996151E+01
   0.18300000E+01           0.17426593E+01
   0.18400000E+01           0.17852556E+01
   0.18500000E+01           0.18290403E+01
   0.18600000E+01           0.18740160E+01
   0.18700000E+01           0.19204437E+01
   0.18800000E+01           0.19672292E+01
   0.18900000E+01           0.20142316E+01
   0.19000000E+01           0.20636769E+01
   0.19100000E+01           0.21148748E+01
   0.19200000E+01           0.21643636E+01
   0.19300000E+01           0.22163177E+01
   0.19400000E+01           0.22695162E+01
   0.19500000E+01           0.23244036E+01
   0.19600000E+01           0.23791305E+01
   0.19700000E+01           0.24349691E+01
   0.19800000E+01           0.24914171E+01
   0.19900000E+01           0.25511769E+01
   0.20000000E+01           0.12973256E+01
 #T=   278.0000
  -0.20000000E+01           0.00000000E+00
  -0.19900000E+01           0.00000000E+00
  -0.19800000E+01           0.00000000E+00
  -0.19700000E+01           0.00000000E+00
  -0.19600000E+01           0.00000000E+00
  -0.19500000E+01           0.00000000E+00
  -0.19400000E+01           0.00000000E+00
  -0.19300000E+01           0.00000000E+00
  -0.19200000E+01           0.00000000E+00
  -0.19100000E+01           0.00000000E+00
  -0.19000000E+01           0.00000000E+00
  -0.18900000E+01           0.00000000E+00
  -0.18800000E+01           0.00000000E+00
  -0.18700000E+01           0.00000000E+00
  -0.18600000E+01           0.00000000E+00
  -0.18500000E+01           0.00000000E+00
  -0.18400000E+01           0.00000000E+00
  -0.18300000E+01           0.00000000E+00
  -0.18200000E+01           0.00000000E+00
  -0.18100000E+01           0.00000000E+00
  -0.18000000E+01           0.00000000E+00
  -0.17900000E+01           0.00000000E+00
  -0.17800000E+01           0.00000000E+00
  -0.17700000E+01           0.00000000E+00
  -0.17600000E+01           0.00000000E+00
  -0.17500000E+01           0.00000000E+00
  -0.17400000E+01           0.00000000E+00
  -0.17300000E+01           0.00000000E+00
  -0.17200000E+01           0.00000000E+00
  -0.17100000E+01           0.00000000E+00
  -0.17000000E+01           0.00000000E+00
  -0.16900000E+01           0.00000000E+00
  -0.16800000E+01           0.00000000E+00
  -0.16700000E+01           0.00000000E+00
  -0.16600000E+01           0.00000000E+00
  -0.16500000E+01           0.00000000E+00
  -0.16400000E+01           0.00000000E+00
  -0.16300000E+01           0.00000000E+00
  -0.16200000E+01           0.00000000E+00
  -0.16100000E+01           0.00000000E+00
  -0.16000000E+01           0.00000000E+00
  -0.15900000E+01           0.00000000E+00
  -0.15800000E+01           0.00000000E+00
  -0.15700000E+01           0.00000000E+00
  -0.15600000E+01           0.00000000E+00
  -0.15500000E+01           0.00000000E+00
  -0.15400000E+01           0.00000000E+00
  -0.15300000E+01           0.00000000E+00
  -0.15200000E+01           0.00000000E+00
  -0.15100000E+01           0.00000000E+00
  -0.15000000E+01           0.00000000E+00
  -0.14900000E+01           0.00000000E+00
  -0.14800000E+01           0.00000000E+00
  -0.14700000E+01           0.00000000E+00
  -0.14600000E+01           0.00000000E+00
  -0.14500000E+01           0.00000000E+00
  -0.14400000E+01           0.00000000E+00
  -0.14300000E+01           0.00000000E+00
  -0.14200000E+01           0.00000000E+00
  -0.14100000E+01           0.00000000E+00
  -0.14000000E+01           0.00000000E+00
  -0.13900000E+01           0.00000000E+00
  -0.13800000E+01           0.00000000E+00
  -0.13700000E+01           0.00000000E+00
  -0.13600000E+01           0.00000000E+00
  -0.13500000E+01           0.00000000E+00
  -0.13400000E+01           0.00000000E+00
  -0.13300000E+01           0.00000000E+00
  -0.13200000E+01           0.00000000E+00
  -0.13100000E+01           0.00000000E+00
  -0.13000000E+01           0.00000000E+00
  -0.12900000E+01           0.00000000E+00
  -0.12800000E+01           0.00000000E+00
  -0.12700000E+01           0.00000000E+00
  -0.12600000E+01           0.00000000E+00
  -0.12500000E+01           0.00000000E+00
  -0.12400000E+01           0.00000000E+00
  -0.12300000E+01           0.00000000E+00
  -0.12200000E+01           0.00000000E+00
  -0.12100000E+01           0.00000000E+00
  -0.12000000E+01           0.00000000E+00
  -0.11900000E+01           0.00000000E+00
  -0.11800000E+01           0.00000000E+00
  -0.11700000E+01           0.00000000E+00
  -0.11600000E+01           0.00000000E+00
  -0.11500000E+01           0.00000000E+00
  -0.11400000E+01           0.00000000E+00
  -0.11300000E+01           0.00000000E+00
  -0.11200000E+01           0.00000000E+00
  -0.11100000E+01           0.00000000E+00
  -0.11000000E+01           0.00000000E+00
  -0.10900000E+01           0.00000000E+00
  -0.10800000E+01           0.00000000E+00
  -0.10700000E+01           0.00000000E+00
  -0.10600000E+01           0.00000000E+00
  -0.10500000E+01           0.00000000E+00
  -0.10400000E+01           0.00000000E+00
  -0.10300000E+01           0.00000000E+00
  -0.10200000E+01           0.00000000E+00
  -0.10100000E+01           0.00000000E+00
  -0.10000000E+01           0.00000000E+00
  -0.99000000E+00           0.00000000E+00
  -0.98000000E+00           0.00000000E+00
  -0.97000000E+00           0.00000000E+00
  -0.96000000E+00           0.00000000E+00
  -0.95000000E+00           0.00000000E+00
  -0.94000000E+00           0.00000000E+00
  -0.93000000E+00           0.00000000E+00
  -0.92000000E+00           0.00000000E+00
  -0.91000000E+00           0.00000000E+00
  -0.90000000E+00           0.00000000E+00
  -0.89000000E+00           0.00000000E+00
  -0.88000000E+00           0.00000000E+00
  -0.87000000E+00           0.00000000E+00
  -0.86000000E+00           0.00000000E+00
  -0.85000000E+00           0.00000000E+00
  -0.84000000E+00           0.00000000E+00
  -0.83000000E+00           0.00000000E+00
  -0.82000000E+00           0.00000000E+00
  -0.81000000E+00           0.00000000E+00
  -0.80000000E+00           0.00000000E+00
  -0.79000000E+00           0.00000000E+00
  -0.78000000E+00           0.00000000E+00
  -0.77000000E+00           0.00000000E+00
  -0.76000000E+00           0.00000000E+00
  -0.75000000E+00           0.00000000E+00
  -0.74000000E+00           0.00000000E+00
  -0.73000000E+00           0.00000000E+00
  -0.72000000E+00           0.00000000E+00
  -0.71000000E+00           0.00000000E+00
  -0.70000000E+00           0.00000000E+00
  -0.69000000E+00           0.00000000E+00
  -0.68000000E+00           0.00000000E+00
  -0.67000000E+00           0.00000000E+00
  -0.66000000E+00           0.00000000E+00
  -0.65000000E+00           0.00000000E+00
  -0.64000000E+00           0.00000000E+00
  -0.63000000E+00           0.00000000E+00
  -0.62000000E+00           0.00000000E+00
  -0.61000000E+00           0.00000000E+00
  -0.60000000E+00           0.00000000E+00
  -0.59000000E+00           0.00000000E+00
  -0.58000000E+00           0.00000000E+00
  -0.57000000E+00           0.00000000E+00
  -0.56000000E+00           0.00000000E+00
  -0.55000000E+00           0.00000000E+00
  -0.54000000E+00           0.00000000E+00
  -0.53000000E+00           0.00000000E+00
  -0.52000000E+00           0.00000000E+00
  -0.51000000E+00           0.00000000E+00
  -0.50000000E+00           0.00000000E+00
  -0.49000000E+00           0.00000000E+00
  -0.48000000E+00           0.00000000E+00
  -0.47000000E+00           0.00000000E+00
  -0.46000000E+00           0.00000000E+00
  -0.45000000E+00           0.00000000E+00
  -0.44000000E+00           0.00000000E+00
  -0.43000000E+00           0.00000000E+00
  -0.42000000E+00           0.00000000E+00
  -0.41000000E+00           0.00000000E+00
  -0.40000000E+00           0.00000000E+00
  -0.39000000E+00           0.00000000E+00
  -0.38000000E+00           0.00000000E+00
  -0.37000000E+00           0.00000000E+00
  -0.36000000E+00           0.00000000E+00
  -0.35000000E+00           0.00000000E+00
  -0.34000000E+00           0.00000000E+00
  -0.33000000E+00           0.00000000E+00
  -0.32000000E+00           0.00000000E+00
  -0.31000000E+00           0.00000000E+00
  -0.30000000E+00           0.00000000E+00
  -0.29000000E+00           0.00000000E+00
  -0.28000000E+00           0.00000000E+00
  -0.27000000E+00           0.00000000E+00
  -0.26000000E+00           0.00000000E+00
  -0.25000000E+00           0.00000000E+00
  -0.24000000E+00           0.00000000E+00
  -0.23000000E+00           0.00000000E+00
  -0.22000000E+00           0.00000000E+00
  -0.21000000E+00           0.00000000E+00
  -0.20000000E+00           0.00000000E+00
  -0.19000000E+00           0.00000000E+00
  -0.18000000E+00           0.00000000E+00
  -0.17000000E+00           0.00000000E+00
  -0.16000000E+00           0.00000000E+00
  -0.15000000E+00           0.00000000E+00
  -0.14000000E+00           0.00000000E+00
  -0.13000000E+00           0.00000000E+00
  -0.12000000E+00           0.00000000E+00
  -0.11000000E+00           0.00000000E+00
  -0.10000000E+00           0.00000000E+00
  -0.90000000E-01           0.00000000E+00
  -0.80000000E-01           0.00000000E+00
  -0.70000000E-01           0.00000000E+00
  -0.60000000E-01           0.00000000E+00
  -0.50000000E-01           0.00000000E+00
  -0.40000000E-01           0.00000000E+00
  -0.30000000E-01           0.00000000E+00
  -0.20000000E-01           0.00000000E+00
  -0.10000000E-01           0.00000000E+00
   0.00000000E+00           0.48379630E-04
   0.10000000E-01           0.37924383E-03
   0.20000000E-01           0.77276235E-03
   0.30000000E-01           0.11533179E-02
   0.40000000E-01           0.15350309E-02
   0.50000000E-01           0.19449074E-02
   0.60000000E-01           0.23277006E-02
   0.70000000E-01           0.27497685E-02
   0.80000000E-01           0.30930556E-02
   0.90000000E-01           0.35356481E-02
   0.10000000E+00           0.39129630E-02
   0.11000000E+00           0.43503086E-02
   0.12000000E+00           0.47584877E-02
   0.13000000E+00           0.51588735E-02
   0.14000000E+00           0.55979938E-02
   0.15000000E+00           0.60647377E-02
   0.16000000E+00           0.64673611E-02
   0.17000000E+00           0.69544753E-02
   0.18000000E+00           0.74151235E-02
   0.19000000E+00           0.78811728E-02
   0.20000000E+00           0.84054012E-02
   0.21000000E+00           0.88499228E-02
   0.22000000E+00           0.93415123E-02
   0.23000000E+00           0.99682099E-02
   0.24000000E+00           0.10442515E-01
   0.25000000E+00           0.10954552E-01
   0.26000000E+00           0.11568133E-01
   0.27000000E+00           0.12128164E-01
   0.28000000E+00           0.12716821E-01
   0.29000000E+00           0.13358951E-01
   0.30000000E+00           0.13982793E-01
   0.31000000E+00           0.14690664E-01
   0.32000000E+00           0.15296296E-01
   0.33000000E+00           0.15935108E-01
   0.34000000E+00           0.16678627E-01
   0.35000000E+00           0.17374228E-01
   0.36000000E+00           0.18114583E-01
   0.37000000E+00           0.18977701E-01
   0.38000000E+00           0.19673148E-01
   0.39000000E+00           0.20441744E-01
   0.40000000E+00           0.21359877E-01
   0.41000000E+00           0.22233642E-01
   0.42000000E+00           0.23109336E-01
   0.43000000E+00           0.24007793E-01
   0.44000000E+00           0.24946219E-01
   0.45000000E+00           0.26104167E-01
   0.46000000E+00           0.26988040E-01
   0.47000000E+00           0.28076003E-01
   0.48000000E+00           0.29109954E-01
   0.49000000E+00           0.30394599E-01
   0.50000000E+00           0.31450000E-01
   0.51000000E+00           0.32563966E-01
   0.52000000E+00           0.33918673E-01
   0.53000000E+00           0.35201775E-01
   0.54000000E+00           0.36444059E-01
   0.55000000E+00           0.37739815E-01
   0.56000000E+00           0.39086034E-01
   0.57000000E+00           0.40656636E-01
   0.58000000E+00           0.41958333E-01
   0.59000000E+00           0.43621914E-01
   0.60000000E+00           0.45234105E-01
   0.61000000E+00           0.46857176E-01
   0.62000000E+00           0.48580710E-01
   0.63000000E+00           0.50300540E-01
   0.64000000E+00           0.52049306E-01
   0.65000000E+00           0.53911034E-01
   0.66000000E+00           0.55921219E-01
   0.67000000E+00           0.57775154E-01
   0.68000000E+00           0.59822145E-01
   0.69000000E+00           0.61904630E-01
   0.70000000E+00           0.64161111E-01
   0.71000000E+00           0.66428241E-01
   0.72000000E+00           0.68776620E-01
   0.73000000E+00           0.71206790E-01
   0.74000000E+00           0.73575849E-01
   0.75000000E+00           0.76007253E-01
   0.76000000E+00           0.78507407E-01
   0.77000000E+00           0.81319599E-01
   0.78000000E+00           0.84200540E-01
   0.79000000E+00           0.86888040E-01
   0.80000000E+00           0.89921914E-01
   0.81000000E+00           0.92947685E-01
   0.82000000E+00           0.96069444E-01
   0.83000000E+00           0.99473688E-01
   0.84000000E+00           0.10272562E+00
   0.85000000E+00           0.10609923E+00
   0.86000000E+00           0.10959360E+00
   0.87000000E+00           0.11335903E+00
   0.88000000E+00           0.11710147E+00
   0.89000000E+00           0.12076906E+00
   0.90000000E+00           0.12477940E+00
   0.91000000E+00           0.12884483E+00
   0.92000000E+00           0.13337330E+00
   0.93000000E+00           0.13739136E+00
   0.94000000E+00           0.14187431E+00
   0.95000000E+00           0.14671281E+00
   0.96000000E+00           0.15148356E+00
   0.97000000E+00           0.15612932E+00
   0.98000000E+00           0.16122199E+00
   0.99000000E+00           0.16641343E+00
   0.10000000E+01           0.17190340E+00
   0.10100000E+01           0.17712816E+00
   0.10200000E+01           0.18305054E+00
   0.10300000E+01           0.18865540E+00
   0.10400000E+01           0.19457114E+00
   0.10500000E+01           0.20097647E+00
   0.10600000E+01           0.20712901E+00
   0.10700000E+01           0.21388133E+00
   0.10800000E+01           0.22027855E+00
   0.10900000E+01           0.22726042E+00
   0.11000000E+01           0.23413488E+00
   0.11100000E+01           0.24156173E+00
   0.11200000E+01           0.24896273E+00
   0.11300000E+01           0.25660764E+00
   0.11400000E+01           0.26466196E+00
   0.11500000E+01           0.27297307E+00
   0.11600000E+01           0.28126659E+00
   0.11700000E+01           0.28955069E+00
   0.11800000E+01           0.29866782E+00
   0.11900000E+01           0.30749761E+00
   0.12000000E+01           0.31678812E+00
   0.12100000E+01           0.32611921E+00
   0.12200000E+01           0.33606590E+00
   0.12300000E+01           0.34620100E+00
   0.12400000E+01           0.35689753E+00
   0.12500000E+01           0.36686435E+00
   0.12600000E+01           0.37811211E+00
   0.12700000E+01           0.38893519E+00
   0.12800000E+01           0.40081975E+00
   0.12900000E+01           0.41243873E+00
   0.13000000E+01           0.42435556E+00
   0.13100000E+01           0.43700370E+00
   0.13200000E+01           0.44977731E+00
   0.13300000E+01           0.46284066E+00
   0.13400000E+01           0.47616088E+00
   0.13500000E+01           0.48996242E+00
   0.13600000E+01           0.50378094E+00
   0.13700000E+01           0.51850162E+00
   0.13800000E+01           0.53348248E+00
   0.13900000E+01           0.54860270E+00
   0.14000000E+01           0.56380355E+00
   0.14100000E+01           0.57974938E+00
   0.14200000E+01           0.59653102E+00
   0.14300000E+01           0.61323912E+00
   0.14400000E+01           0.63053534E+00
   0.14500000E+01           0.64794236E+00
   0.14600000E+01           0.66631960E+00
   0.14700000E+01           0.68454390E+00
   0.14800000E+01           0.70368819E+00
   0.14900000E+01           0.72299668E+00
   0.15000000E+01           0.74309213E+00
   0.15100000E+01           0.76342269E+00
   0.15200000E+01           0.78465887E+00
   0.15300000E+01           0.80574452E+00
   0.15400000E+01           0.82754961E+00
   0.15500000E+01           0.85017963E+00
   0.15600000E+01           0.87255062E+00
   0.15700000E+01           0.89644290E+00
   0.15800000E+01           0.92062840E+00
   0.15900000E+01           0.94478318E+00
   0.16000000E+01           0.97027515E+00
   0.16100000E+01           0.99665401E+00
   0.16200000E+01           0.10227067E+01
   0.16300000E+01           0.10492468E+01
   0.16400000E+01           0.10773138E+01
   0.16500000E+01           0.11051455E+01
   0.16600000E+01           0.11337912E+01
   0.16700000E+01           0.11640505E+01
   0.16800000E+01           0.11944636E+01
   0.16900000E+01           0.12249002E+01
   0.17000000E+01           0.12568249E+01
   0.17100000E+01           0.12892234E+01
   0.17200000E+01           0.13224051E+01
   0.17300000E+01           0.13555022E+01
   0.17400000E+01           0.13906093E+01
   0.17500000E+01           0.14259299E+01
   0.17600000E+01           0.14620680E+01
   0.17700000E+01           0.14989433E+01
   0.17800000E+01           0.15363975E+01
   0.17900000E+01           0.15740645E+01
   0.18000000E+01           0.16129810E+01
   0.18100000E+01           0.16527900E+01
   0.18200000E+01           0.16949285E+01
   0.18300000E+01           0.17359410E+01
   0.18400000E+01           0.17797620E+01
   0.18500000E+01           0.18220812E+01
   0.18600000E+01           0.18676912E+01
   0.18700000E+01           0.19124028E+01
   0.18800000E+01           0.19583061E+01
   0.18900000E+01           0.20068889E+01
   0.19000000E+01           0.20544132E+01
   0.19100000E+01           0.21029721E+01
   0.19200000E+01           0.21538331E+01
   0.19300000E+01           0.22058595E+01
   0.19400000E+01           0.22564653E+01
   0.19500000E+01           0.23107402E+01
   0.19600000E+01           0.23646102E+01
   0.19700000E+01           0.24199511E+01
   0.19800000E+01           0.24771916E+01
   0.19900000E+01           0.25346530E+01
   0.20000000E+01           0.12885077E+01
 #T=   279.0000
  -0.20000000E+01           0.00000000E+00
  -0.19900000E+01           0.00000000E+00
  -0.19800000E+01           0.00000000E+00
  -0.19700000E+01           0.00000000E+00
  -0.19600000E+01           0.00000000E+00
  -0.19500000E+01           0.00000000E+00
  -0.19400000E+01           0.00000000E+00
  -0.19300000E+01           0.00000000E+00
  -0.19200000E+01           0.00000000E+00
  -0.19100000E+01           0.00000000E+00
  -0.19000000E+01           0.00000000E+00
  -0.18900000E+01           0.00000000E+00
  -0.18800000E+01           0.00000000E+00
  -0.18700000E+01           0.00000000E+00
  -0.18600000E+01           0.00000000E+00
  -0.18500000E+01           0.00000000E+00
  -0.18400000E+01           0.00000000E+00
  -0.18300000E+01           0.00000000E+00
  -0.18200000E+01           0.00000000E+00
  -0.18100000E+01           0.00000000E+00
  -0.18000000E+01           0.00000000E+00
  -0.17900000E+01           0.00000000E+00
  -0.17800000E+01           0.00000000E+00
  -0.17700000E+01           0.00000000E+00
  -0.17600000E+01           0.00000000E+00
  -0.17500000E+01           0.00000000E+00
  -0.17400000E+01           0.00000000E+00
  -0.17300000E+01           0.00000000E+00
  -0.17200000E+01           0.00000000E+00
  -0.17100000E+01           0.00000000E+00
  -0.17000000E+01           0.00000000E+00
  -0.16900000E+01           0.00000000E+00
  -0.16800000E+01           0.00000000E+00
  -0.16700000E+01           0.00000000E+00
  -0.16600000E+01           0.00000000E+00
  -0.16500000E+01           0.00000000E+00
  -0.16400000E+01           0.00000000E+00
  -0.16300000E+01           0.00000000E+00
  -0.16200000E+01           0.00000000E+00
  -0.16100000E+01           0.00000000E+00
  -0.16000000E+01           0.00000000E+00
  -0.15900000E+01           0.00000000E+00
  -0.15800000E+01           0.00000000E+00
  -0.15700000E+01           0.00000000E+00
  -0.15600000E+01           0.00000000E+00
  -0.15500000E+01           0.00000000E+00
  -0.15400000E+01           0.00000000E+00
  -0.15300000E+01           0.00000000E+00
  -0.15200000E+01           0.00000000E+00
  -0.15100000E+01           0.00000000E+00
  -0.15000000E+01           0.00000000E+00
  -0.14900000E+01           0.00000000E+00
  -0.14800000E+01           0.00000000E+00
  -0.14700000E+01           0.00000000E+00
  -0.14600000E+01           0.00000000E+00
  -0.14500000E+01           0.00000000E+00
  -0.14400000E+01           0.00000000E+00
  -0.14300000E+01           0.00000000E+00
  -0.14200000E+01           0.00000000E+00
  -0.14100000E+01           0.00000000E+00
  -0.14000000E+01           0.00000000E+00
  -0.13900000E+01           0.00000000E+00
  -0.13800000E+01           0.00000000E+00
  -0.13700000E+01           0.00000000E+00
  -0.13600000E+01           0.00000000E+00
  -0.13500000E+01           0.00000000E+00
  -0.13400000E+01           0.00000000E+00
  -0.13300000E+01           0.00000000E+00
  -0.13200000E+01           0.00000000E+00
  -0.13100000E+01           0.00000000E+00
  -0.13000000E+01           0.00000000E+00
  -0.12900000E+01           0.00000000E+00
  -0.12800000E+01           0.00000000E+00
  -0.12700000E+01           0.00000000E+00
  -0.12600000E+01           0.00000000E+00
  -0.12500000E+01           0.00000000E+00
  -0.12400000E+01           0.00000000E+00
  -0.12300000E+01           0.00000000E+00
  -0.12200000E+01           0.00000000E+00
  -0.12100000E+01           0.00000000E+00
  -0.12000000E+01           0.00000000E+00
  -0.11900000E+01           0.00000000E+00
  -0.11800000E+01           0.00000000E+00
  -0.11700000E+01           0.00000000E+00
  -0.11600000E+01           0.00000000E+00
  -0.11500000E+01           0.00000000E+00
  -0.11400000E+01           0.00000000E+00
  -0.11300000E+01           0.00000000E+00
  -0.11200000E+01           0.00000000E+00
  -0.11100000E+01           0.00000000E+00
  -0.11000000E+01           0.00000000E+00
  -0.10900000E+01           0.00000000E+00
  -0.10800000E+01           0.00000000E+00
  -0.10700000E+01           0.00000000E+00
  -0.10600000E+01           0.00000000E+00
  -0.10500000E+01           0.00000000E+00
  -0.10400000E+01           0.00000000E+00
  -0.10300000E+01           0.00000000E+00
  -0.10200000E+01           0.00000000E+00
  -0.10100000E+01           0.00000000E+00
  -0.10000000E+01           0.00000000E+00
  -0.99000000E+00           0.00000000E+00
  -0.98000000E+00           0.00000000E+00
  -0.97000000E+00           0.00000000E+00
  -0.96000000E+00           0.00000000E+00
  -0.95000000E+00           0.00000000E+00
  -0.94000000E+00           0.00000000E+00
  -0.93000000E+00           0.00000000E+00
  -0.92000000E+00           0.00000000E+00
  -0.91000000E+00           0.00000000E+00
  -0.90000000E+00           0.00000000E+00
  -0.89000000E+00           0.00000000E+00
  -0.88000000E+00           0.00000000E+00
  -0.87000000E+00           0.00000000E+00
  -0.86000000E+00           0.00000000E+00
  -0.85000000E+00           0.00000000E+00
  -0.84000000E+00           0.00000000E+00
  -0.83000000E+00           0.00000000E+00
  -0.82000000E+00           0.00000000E+00
  -0.81000000E+00           0.00000000E+00
  -0.80000000E+00           0.00000000E+00
  -0.79000000E+00           0.00000000E+00
  -0.78000000E+00           0.00000000E+00
  -0.77000000E+00           0.00000000E+00
  -0.76000000E+00           0.00000000E+00
  -0.75000000E+00           0.00000000E+00
  -0.74000000E+00           0.00000000E+00
  -0.73000000E+00           0.00000000E+00
  -0.72000000E+00           0.00000000E+00
  -0.71000000E+00           0.00000000E+00
  -0.70000000E+00           0.00000000E+00
  -0.69000000E+00           0.00000000E+00
  -0.68000000E+00           0.00000000E+00
  -0.67000000E+00           0.00000000E+00
  -0.66000000E+00           0.00000000E+00
  -0.65000000E+00           0.00000000E+00
  -0.64000000E+00           0.00000000E+00
  -0.63000000E+00           0.00000000E+00
  -0.62000000E+00           0.00000000E+00
  -0.61000000E+00           0.00000000E+00
  -0.60000000E+00           0.00000000E+00
  -0.59000000E+00           0.00000000E+00
  -0.58000000E+00           0.00000000E+00
  -0.57000000E+00           0.00000000E+00
  -0.56000000E+00           0.00000000E+00
  -0.55000000E+00           0.00000000E+00
  -0.54000000E+00           0.00000000E+00
  -0.53000000E+00           0.00000000E+00
  -0.52000000E+00           0.00000000E+00
  -0.51000000E+00           0.00000000E+00
  -0.50000000E+00           0.00000000E+00
  -0.49000000E+00           0.00000000E+00
  -0.48000000E+00           0.00000000E+00
  -0.47000000E+00           0.00000000E+00
  -0.46000000E+00           0.00000000E+00
  -0.45000000E+00           0.00000000E+00
  -0.44000000E+00           0.00000000E+00
  -0.43000000E+00           0.00000000E+00
  -0.42000000E+00           0.00000000E+00
  -0.41000000E+00           0.00000000E+00
  -0.40000000E+00           0.00000000E+00
  -0.39000000E+00           0.00000000E+00
  -0.38000000E+00           0.00000000E+00
  -0.37000000E+00           0.00000000E+00
  -0.36000000E+00           0.00000000E+00
  -0.35000000E+00           0.00000000E+00
  -0.34000000E+00           0.00000000E+00
  -0.33000000E+00           0.00000000E+00
  -0.32000000E+00           0.00000000E+00
  -0.31000000E+00           0.00000000E+00
  -0.30000000E+00           0.00000000E+00
  -0.29000000E+00           0.00000000E+00
  -0.28000000E+00           0.00000000E+00
  -0.27000000E+00           0.00000000E+00
  -0.26000000E+00           0.00000000E+00
  -0.25000000E+00           0.00000000E+00
  -0.24000000E+00           0.00000000E+00
  -0.23000000E+00           0.00000000E+00
  -0.22000000E+00           0.00000000E+00
  -0.21000000E+00           0.00000000E+00
  -0.20000000E+00           0.00000000E+00
  -0.19000000E+00           0.00000000E+00
  -0.18000000E+00           0.00000000E+00
  -0.17000000E+00           0.00000000E+00
  -0.16000000E+00           0.00000000E+00
  -0.15000000E+00           0.00000000E+00
  -0.14000000E+00           0.00000000E+00
  -0.13000000E+00           0.00000000E+00
  -0.12000000E+00           0.00000000E+00
  -0.11000000E+00           0.00000000E+00
  -0.10000000E+00           0.00000000E+00
  -0.90000000E-01           0.00000000E+00
  -0.80000000E-01           0.00000000E+00
  -0.70000000E-01           0.00000000E+00
  -0.60000000E-01           0.00000000E+00
  -0.50000000E-01           0.00000000E+00
  -0.40000000E-01           0.00000000E+00
  -0.30000000E-01           0.00000000E+00
  -0.20000000E-01           0.00000000E+00
  -0.10000000E-01           0.00000000E+00
   0.00000000E+00           0.49614198E-04
   0.10000000E-01           0.40625000E-03
   0.20000000E-01           0.80393519E-03
   0.30000000E-01           0.11834105E-02
   0.40000000E-01           0.15908179E-02
   0.50000000E-01           0.19926698E-02
   0.60000000E-01           0.23804012E-02
   0.70000000E-01           0.27875772E-02
   0.80000000E-01           0.32191358E-02
   0.90000000E-01           0.36291667E-02
   0.10000000E+00           0.40693673E-02
   0.11000000E+00           0.44999228E-02
   0.12000000E+00           0.48531636E-02
   0.13000000E+00           0.53334877E-02
   0.14000000E+00           0.58246914E-02
   0.15000000E+00           0.62628086E-02
   0.16000000E+00           0.67053241E-02
   0.17000000E+00           0.71834877E-02
   0.18000000E+00           0.76795525E-02
   0.19000000E+00           0.81469136E-02
   0.20000000E+00           0.86573302E-02
   0.21000000E+00           0.91641975E-02
   0.22000000E+00           0.96643519E-02
   0.23000000E+00           0.10241049E-01
   0.24000000E+00           0.10715664E-01
   0.25000000E+00           0.11315201E-01
   0.26000000E+00           0.11889660E-01
   0.27000000E+00           0.12510031E-01
   0.28000000E+00           0.13045062E-01
   0.29000000E+00           0.13754167E-01
   0.30000000E+00           0.14402238E-01
   0.31000000E+00           0.15041744E-01
   0.32000000E+00           0.15759491E-01
   0.33000000E+00           0.16404090E-01
   0.34000000E+00           0.17126852E-01
   0.35000000E+00           0.17887500E-01
   0.36000000E+00           0.18658951E-01
   0.37000000E+00           0.19505556E-01
   0.38000000E+00           0.20238966E-01
   0.39000000E+00           0.21064969E-01
   0.40000000E+00           0.21890509E-01
   0.41000000E+00           0.22855093E-01
   0.42000000E+00           0.23686883E-01
   0.43000000E+00           0.24701466E-01
   0.44000000E+00           0.25591127E-01
   0.45000000E+00           0.26715046E-01
   0.46000000E+00           0.27683488E-01
   0.47000000E+00           0.28778241E-01
   0.48000000E+00           0.29825000E-01
   0.49000000E+00           0.31022377E-01
   0.50000000E+00           0.32123380E-01
   0.51000000E+00           0.33369213E-01
   0.52000000E+00           0.34541127E-01
   0.53000000E+00           0.35893364E-01
   0.54000000E+00           0.37252932E-01
   0.55000000E+00           0.38698457E-01
   0.56000000E+00           0.40072608E-01
   0.57000000E+00           0.41520293E-01
   0.58000000E+00           0.43077778E-01
   0.59000000E+00           0.44664815E-01
   0.60000000E+00           0.46292978E-01
   0.61000000E+00           0.47838272E-01
   0.62000000E+00           0.49565972E-01
   0.63000000E+00           0.51362191E-01
   0.64000000E+00           0.53169830E-01
   0.65000000E+00           0.55028627E-01
   0.66000000E+00           0.56913966E-01
   0.67000000E+00           0.58856481E-01
   0.68000000E+00           0.61150617E-01
   0.69000000E+00           0.63152701E-01
   0.70000000E+00           0.65410108E-01
   0.71000000E+00           0.67701775E-01
   0.72000000E+00           0.70065432E-01
   0.73000000E+00           0.72512500E-01
   0.74000000E+00           0.74816590E-01
   0.75000000E+00           0.77342052E-01
   0.76000000E+00           0.80070216E-01
   0.77000000E+00           0.82983642E-01
   0.78000000E+00           0.85654012E-01
   0.79000000E+00           0.88411111E-01
   0.80000000E+00           0.91557948E-01
   0.81000000E+00           0.94498997E-01
   0.82000000E+00           0.97887963E-01
   0.83000000E+00           0.10085231E+00
   0.84000000E+00           0.10429815E+00
   0.85000000E+00           0.10779259E+00
   0.86000000E+00           0.11125540E+00
   0.87000000E+00           0.11493657E+00
   0.88000000E+00           0.11886844E+00
   0.89000000E+00           0.12287477E+00
   0.90000000E+00           0.12679414E+00
   0.91000000E+00           0.13091535E+00
   0.92000000E+00           0.13508580E+00
   0.93000000E+00           0.13945046E+00
   0.94000000E+00           0.14404853E+00
   0.95000000E+00           0.14893372E+00
   0.96000000E+00           0.15346181E+00
   0.97000000E+00           0.15847292E+00
   0.98000000E+00           0.16341497E+00
   0.99000000E+00           0.16870185E+00
   0.10000000E+01           0.17429884E+00
   0.10100000E+01           0.17954730E+00
   0.10200000E+01           0.18525617E+00
   0.10300000E+01           0.19114383E+00
   0.10400000E+01           0.19695594E+00
   0.10500000E+01           0.20333858E+00
   0.10600000E+01           0.20950779E+00
   0.10700000E+01           0.21610926E+00
   0.10800000E+01           0.22272014E+00
   0.10900000E+01           0.22973110E+00
   0.11000000E+01           0.23652361E+00
   0.11100000E+01           0.24427238E+00
   0.11200000E+01           0.25168387E+00
   0.11300000E+01           0.25953472E+00
   0.11400000E+01           0.26720116E+00
   0.11500000E+01           0.27538457E+00
   0.11600000E+01           0.28366327E+00
   0.11700000E+01           0.29233681E+00
   0.11800000E+01           0.30139236E+00
   0.11900000E+01           0.31012600E+00
   0.12000000E+01           0.31958858E+00
   0.12100000E+01           0.32934198E+00
   0.12200000E+01           0.33860139E+00
   0.12300000E+01           0.34879599E+00
   0.12400000E+01           0.35916628E+00
   0.12500000E+01           0.37021682E+00
   0.12600000E+01           0.38108503E+00
   0.12700000E+01           0.39204853E+00
   0.12800000E+01           0.40364915E+00
   0.12900000E+01           0.41547114E+00
   0.13000000E+01           0.42754414E+00
   0.13100000E+01           0.43961474E+00
   0.13200000E+01           0.45246836E+00
   0.13300000E+01           0.46538349E+00
   0.13400000E+01           0.47856752E+00
   0.13500000E+01           0.49265316E+00
   0.13600000E+01           0.50716705E+00
   0.13700000E+01           0.52142863E+00
   0.13800000E+01           0.53579097E+00
   0.13900000E+01           0.55137106E+00
   0.14000000E+01           0.56678372E+00
   0.14100000E+01           0.58268387E+00
   0.14200000E+01           0.59912315E+00
   0.14300000E+01           0.61581914E+00
   0.14400000E+01           0.63265440E+00
   0.14500000E+01           0.65044174E+00
   0.14600000E+01           0.66823032E+00
   0.14700000E+01           0.68692415E+00
   0.14800000E+01           0.70603526E+00
   0.14900000E+01           0.72525231E+00
   0.15000000E+01           0.74545147E+00
   0.15100000E+01           0.76521636E+00
   0.15200000E+01           0.78620285E+00
   0.15300000E+01           0.80761265E+00
   0.15400000E+01           0.82883418E+00
   0.15500000E+01           0.85162423E+00
   0.15600000E+01           0.87409367E+00
   0.15700000E+01           0.89766157E+00
   0.15800000E+01           0.92221296E+00
   0.15900000E+01           0.94587901E+00
   0.16000000E+01           0.97117608E+00
   0.16100000E+01           0.99676057E+00
   0.16200000E+01           0.10230715E+01
   0.16300000E+01           0.10505669E+01
   0.16400000E+01           0.10766459E+01
   0.16500000E+01           0.11048934E+01
   0.16600000E+01           0.11334424E+01
   0.16700000E+01           0.11634360E+01
   0.16800000E+01           0.11933763E+01
   0.16900000E+01           0.12240647E+01
   0.17000000E+01           0.12549792E+01
   0.17100000E+01           0.12876507E+01
   0.17200000E+01           0.13204910E+01
   0.17300000E+01           0.13534439E+01
   0.17400000E+01           0.13874498E+01
   0.17500000E+01           0.14221319E+01
   0.17600000E+01           0.14583343E+01
   0.17700000E+01           0.14947446E+01
   0.17800000E+01           0.15326510E+01
   0.17900000E+01           0.15696823E+01
   0.18000000E+01           0.16084497E+01
   0.18100000E+01           0.16485100E+01
   0.18200000E+01           0.16884171E+01
   0.18300000E+01           0.17304842E+01
   0.18400000E+01           0.17720856E+01
   0.18500000E+01           0.18158428E+01
   0.18600000E+01           0.18599308E+01
   0.18700000E+01           0.19038864E+01
   0.18800000E+01           0.19506955E+01
   0.18900000E+01           0.19962813E+01
   0.19000000E+01           0.20442250E+01
   0.19100000E+01           0.20929108E+01
   0.19200000E+01           0.21427571E+01
   0.19300000E+01           0.21940528E+01
   0.19400000E+01           0.22453279E+01
   0.19500000E+01           0.22985566E+01
   0.19600000E+01           0.23507749E+01
   0.19700000E+01           0.24051394E+01
   0.19800000E+01           0.24619706E+01
   0.19900000E+01           0.25186007E+01
   0.20000000E+01           0.12806758E+01
 #T=   280.0000
  -0.20000000E+01           0.00000000E+00
  -0.19900000E+01           0.00000000E+00
  -0.19800000E+01           0.00000000E+00
  -0.19700000E+01           0.00000000E+00
  -0.19600000E+01           0.00000000E+00
  -0.19500000E+01           0.00000000E+00
  -0.19400000E+01           0.00000000E+00
  -0.19300000E+01           0.00000000E+00
  -0.19200000E+01           0.00000000E+00
  -0.19100000E+01           0.00000000E+00
  -0.19000000E+01           0.00000000E+00
  -0.18900000E+01           0.00000000E+00
  -0.18800000E+01           0.00000000E+00
  -0.18700000E+01           0.00000000E+00
  -0.18600000E+01           0.00000000E+00
  -0.18500000E+01           0.00000000E+00
  -0.18400000E+01           0.00000000E+00
  -0.18300000E+01           0.00000000E+00
  -0.18200000E+01           0.00000000E+00
  -0.18100000E+01           0.00000000E+00
  -0.18000000E+01           0.00000000E+00
  -0.17900000E+01           0.00000000E+00
  -0.17800000E+01           0.00000000E+00
  -0.17700000E+01           0.00000000E+00
  -0.17600000E+01           0.00000000E+00
  -0.17500000E+01           0.00000000E+00
  -0.17400000E+01           0.00000000E+00
  -0.17300000E+01           0.00000000E+00
  -0.17200000E+01           0.00000000E+00
  -0.17100000E+01           0.00000000E+00
  -0.17000000E+01           0.00000000E+00
  -0.16900000E+01           0.00000000E+00
  -0.16800000E+01           0.00000000E+00
  -0.16700000E+01           0.00000000E+00
  -0.16600000E+01           0.00000000E+00
  -0.16500000E+01           0.00000000E+00
  -0.16400000E+01           0.00000000E+00
  -0.16300000E+01           0.00000000E+00
  -0.16200000E+01           0.00000000E+00
  -0.16100000E+01           0.00000000E+00
  -0.16000000E+01           0.00000000E+00
  -0.15900000E+01           0.00000000E+00
  -0.15800000E+01           0.00000000E+00
  -0.15700000E+01           0.00000000E+00
  -0.15600000E+01           0.00000000E+00
  -0.15500000E+01           0.00000000E+00
  -0.15400000E+01           0.00000000E+00
  -0.15300000E+01           0.00000000E+00
  -0.15200000E+01           0.00000000E+00
  -0.15100000E+01           0.00000000E+00
  -0.15000000E+01           0.00000000E+00
  -0.14900000E+01           0.00000000E+00
  -0.14800000E+01           0.00000000E+00
  -0.14700000E+01           0.00000000E+00
  -0.14600000E+01           0.00000000E+00
  -0.14500000E+01           0.00000000E+00
  -0.14400000E+01           0.00000000E+00
  -0.14300000E+01           0.00000000E+00
  -0.14200000E+01           0.00000000E+00
  -0.14100000E+01           0.00000000E+00
  -0.14000000E+01           0.00000000E+00
  -0.13900000E+01           0.00000000E+00
  -0.13800000E+01           0.00000000E+00
  -0.13700000E+01           0.00000000E+00
  -0.13600000E+01           0.00000000E+00
  -0.13500000E+01           0.00000000E+00
  -0.13400000E+01           0.00000000E+00
  -0.13300000E+01           0.00000000E+00
  -0.13200000E+01           0.00000000E+00
  -0.13100000E+01           0.00000000E+00
  -0.13000000E+01           0.00000000E+00
  -0.12900000E+01           0.00000000E+00
  -0.12800000E+01           0.00000000E+00
  -0.12700000E+01           0.00000000E+00
  -0.12600000E+01           0.00000000E+00
  -0.12500000E+01           0.00000000E+00
  -0.12400000E+01           0.00000000E+00
  -0.12300000E+01           0.00000000E+00
  -0.12200000E+01           0.00000000E+00
  -0.12100000E+01           0.00000000E+00
  -0.12000000E+01           0.00000000E+00
  -0.11900000E+01           0.00000000E+00
  -0.11800000E+01           0.00000000E+00
  -0.11700000E+01           0.00000000E+00
  -0.11600000E+01           0.00000000E+00
  -0.11500000E+01           0.00000000E+00
  -0.11400000E+01           0.00000000E+00
  -0.11300000E+01           0.00000000E+00
  -0.11200000E+01           0.00000000E+00
  -0.11100000E+01           0.00000000E+00
  -0.11000000E+01           0.00000000E+00
  -0.10900000E+01           0.00000000E+00
  -0.10800000E+01           0.00000000E+00
  -0.10700000E+01           0.00000000E+00
  -0.10600000E+01           0.00000000E+00
  -0.10500000E+01           0.00000000E+00
  -0.10400000E+01           0.00000000E+00
  -0.10300000E+01           0.00000000E+00
  -0.10200000E+01           0.00000000E+00
  -0.10100000E+01           0.00000000E+00
  -0.10000000E+01           0.00000000E+00
  -0.99000000E+00           0.00000000E+00
  -0.98000000E+00           0.00000000E+00
  -0.97000000E+00           0.00000000E+00
  -0.96000000E+00           0.00000000E+00
  -0.95000000E+00           0.00000000E+00
  -0.94000000E+00           0.00000000E+00
  -0.93000000E+00           0.00000000E+00
  -0.92000000E+00           0.00000000E+00
  -0.91000000E+00           0.00000000E+00
  -0.90000000E+00           0.00000000E+00
  -0.89000000E+00           0.00000000E+00
  -0.88000000E+00           0.00000000E+00
  -0.87000000E+00           0.00000000E+00
  -0.86000000E+00           0.00000000E+00
  -0.85000000E+00           0.00000000E+00
  -0.84000000E+00           0.00000000E+00
  -0.83000000E+00           0.00000000E+00
  -0.82000000E+00           0.00000000E+00
  -0.81000000E+00           0.00000000E+00
  -0.80000000E+00           0.00000000E+00
  -0.79000000E+00           0.00000000E+00
  -0.78000000E+00           0.00000000E+00
  -0.77000000E+00           0.00000000E+00
  -0.76000000E+00           0.00000000E+00
  -0.75000000E+00           0.00000000E+00
  -0.74000000E+00           0.00000000E+00
  -0.73000000E+00           0.00000000E+00
  -0.72000000E+00           0.00000000E+00
  -0.71000000E+00           0.00000000E+00
  -0.70000000E+00           0.00000000E+00
  -0.69000000E+00           0.00000000E+00
  -0.68000000E+00           0.00000000E+00
  -0.67000000E+00           0.00000000E+00
  -0.66000000E+00           0.00000000E+00
  -0.65000000E+00           0.00000000E+00
  -0.64000000E+00           0.00000000E+00
  -0.63000000E+00           0.00000000E+00
  -0.62000000E+00           0.00000000E+00
  -0.61000000E+00           0.00000000E+00
  -0.60000000E+00           0.00000000E+00
  -0.59000000E+00           0.00000000E+00
  -0.58000000E+00           0.00000000E+00
  -0.57000000E+00           0.00000000E+00
  -0.56000000E+00           0.00000000E+00
  -0.55000000E+00           0.00000000E+00
  -0.54000000E+00           0.00000000E+00
  -0.53000000E+00           0.00000000E+00
  -0.52000000E+00           0.00000000E+00
  -0.51000000E+00           0.00000000E+00
  -0.50000000E+00           0.00000000E+00
  -0.49000000E+00           0.00000000E+00
  -0.48000000E+00           0.00000000E+00
  -0.47000000E+00           0.00000000E+00
  -0.46000000E+00           0.00000000E+00
  -0.45000000E+00           0.00000000E+00
  -0.44000000E+00           0.00000000E+00
  -0.43000000E+00           0.00000000E+00
  -0.42000000E+00           0.00000000E+00
  -0.41000000E+00           0.00000000E+00
  -0.40000000E+00           0.00000000E+00
  -0.39000000E+00           0.00000000E+00
  -0.38000000E+00           0.00000000E+00
  -0.37000000E+00           0.00000000E+00
  -0.36000000E+00           0.00000000E+00
  -0.35000000E+00           0.00000000E+00
  -0.34000000E+00           0.00000000E+00
  -0.33000000E+00           0.00000000E+00
  -0.32000000E+00           0.00000000E+00
  -0.31000000E+00           0.00000000E+00
  -0.30000000E+00           0.00000000E+00
  -0.29000000E+00           0.00000000E+00
  -0.28000000E+00           0.00000000E+00
  -0.27000000E+00           0.00000000E+00
  -0.26000000E+00           0.00000000E+00
  -0.25000000E+00           0.00000000E+00
  -0.24000000E+00           0.00000000E+00
  -0.23000000E+00           0.00000000E+00
  -0.22000000E+00           0.00000000E+00
  -0.21000000E+00           0.00000000E+00
  -0.20000000E+00           0.00000000E+00
  -0.19000000E+00           0.00000000E+00
  -0.18000000E+00           0.00000000E+00
  -0.17000000E+00           0.00000000E+00
  -0.16000000E+00           0.00000000E+00
  -0.15000000E+00           0.00000000E+00
  -0.14000000E+00           0.00000000E+00
  -0.13000000E+00           0.00000000E+00
  -0.12000000E+00           0.00000000E+00
  -0.11000000E+00           0.00000000E+00
  -0.10000000E+00           0.00000000E+00
  -0.90000000E-01           0.00000000E+00
  -0.80000000E-01           0.00000000E+00
  -0.70000000E-01           0.00000000E+00
  -0.60000000E-01           0.00000000E+00
  -0.50000000E-01           0.00000000E+00
  -0.40000000E-01           0.00000000E+00
  -0.30000000E-01           0.00000000E+00
  -0.20000000E-01           0.00000000E+00
  -0.10000000E-01           0.00000000E+00
   0.00000000E+00           0.50617284E-04
   0.10000000E-01           0.40509259E-03
   0.20000000E-01           0.81118827E-03
   0.30000000E-01           0.12345679E-02
   0.40000000E-01           0.16592593E-02
   0.50000000E-01           0.20412809E-02
   0.60000000E-01           0.24535494E-02
   0.70000000E-01           0.28974537E-02
   0.80000000E-01           0.33285494E-02
   0.90000000E-01           0.37375772E-02
   0.10000000E+00           0.42018519E-02
   0.11000000E+00           0.46376543E-02
   0.12000000E+00           0.50548611E-02
   0.13000000E+00           0.55368827E-02
   0.14000000E+00           0.60130401E-02
   0.15000000E+00           0.64261574E-02
   0.16000000E+00           0.69027778E-02
   0.17000000E+00           0.73667438E-02
   0.18000000E+00           0.79112654E-02
   0.19000000E+00           0.83873457E-02
   0.20000000E+00           0.88140432E-02
   0.21000000E+00           0.94287809E-02
   0.22000000E+00           0.99933642E-02
   0.23000000E+00           0.10529938E-01
   0.24000000E+00           0.11055093E-01
   0.25000000E+00           0.11657948E-01
   0.26000000E+00           0.12290741E-01
   0.27000000E+00           0.12836265E-01
   0.28000000E+00           0.13495756E-01
   0.29000000E+00           0.14134336E-01
   0.30000000E+00           0.14767670E-01
   0.31000000E+00           0.15477469E-01
   0.32000000E+00           0.16146605E-01
   0.33000000E+00           0.16911651E-01
   0.34000000E+00           0.17685802E-01
   0.35000000E+00           0.18310648E-01
   0.36000000E+00           0.19131019E-01
   0.37000000E+00           0.19935108E-01
   0.38000000E+00           0.20770602E-01
   0.39000000E+00           0.21640664E-01
   0.40000000E+00           0.22502083E-01
   0.41000000E+00           0.23354938E-01
   0.42000000E+00           0.24283565E-01
   0.43000000E+00           0.25362500E-01
   0.44000000E+00           0.26400231E-01
   0.45000000E+00           0.27326543E-01
   0.46000000E+00           0.28333488E-01
   0.47000000E+00           0.29523071E-01
   0.48000000E+00           0.30738040E-01
   0.49000000E+00           0.31768904E-01
[...]
   0.13800000E+01           0.69625193E+00
   0.13900000E+01           0.70332616E+00
   0.14000000E+01           0.71037662E+00
   0.14100000E+01           0.71810849E+00
   0.14200000E+01           0.72522091E+00
   0.14300000E+01           0.73277492E+00
   0.14400000E+01           0.74045563E+00
   0.14500000E+01           0.74755301E+00
   0.14600000E+01           0.75488519E+00
   0.14700000E+01           0.76256682E+00
   0.14800000E+01           0.77024707E+00
   0.14900000E+01           0.77775934E+00
   0.15000000E+01           0.78550617E+00
   0.15100000E+01           0.79254475E+00
   0.15200000E+01           0.80039761E+00
   0.15300000E+01           0.80798827E+00
   0.15400000E+01           0.81599699E+00
   0.15500000E+01           0.82361690E+00
   0.15600000E+01           0.83151489E+00
   0.15700000E+01           0.83884390E+00
   0.15800000E+01           0.84701759E+00
   0.15900000E+01           0.85431049E+00
   0.16000000E+01           0.86254282E+00
   0.16100000E+01           0.87073472E+00
   0.16200000E+01           0.87849707E+00
   0.16300000E+01           0.88571597E+00
   0.16400000E+01           0.89406443E+00
   0.16500000E+01           0.90194537E+00
   0.16600000E+01           0.90981512E+00
   0.16700000E+01           0.91838032E+00
   0.16800000E+01           0.92576350E+00
   0.16900000E+01           0.93371628E+00
   0.17000000E+01           0.94168827E+00
   0.17100000E+01           0.95031373E+00
   0.17200000E+01           0.95869622E+00
   0.17300000E+01           0.96657122E+00
   0.17400000E+01           0.97463711E+00
   0.17500000E+01           0.98249946E+00
   0.17600000E+01           0.99077778E+00
   0.17700000E+01           0.99892523E+00
   0.17800000E+01           0.10065642E+01
   0.17900000E+01           0.10150708E+01
   0.18000000E+01           0.10231701E+01
   0.18100000E+01           0.10314204E+01
   0.18200000E+01           0.10391827E+01
   0.18300000E+01           0.10482164E+01
   0.18400000E+01           0.10562944E+01
   0.18500000E+01           0.10644822E+01
   0.18600000E+01           0.10721366E+01
   0.18700000E+01           0.10807142E+01
   0.18800000E+01           0.10890275E+01
   0.18900000E+01           0.10971486E+01
   0.19000000E+01           0.11054210E+01
   0.19100000E+01           0.11138078E+01
   0.19200000E+01           0.11216172E+01
   0.19300000E+01           0.11300665E+01
   0.19400000E+01           0.11383144E+01
   0.19500000E+01           0.11471295E+01
   0.19600000E+01           0.11549850E+01
   0.19700000E+01           0.11631502E+01
   0.19800000E+01           0.11713952E+01
   0.19900000E+01           0.11793156E+01
   0.20000000E+01           0.59277338E+00
 #T=   375.0000
  -0.20000000E+01           0.00000000E+00
  -0.19900000E+01           0.00000000E+00
  -0.19800000E+01           0.00000000E+00
  -0.19700000E+01           0.00000000E+00
  -0.19600000E+01           0.00000000E+00
  -0.19500000E+01           0.00000000E+00
  -0.19400000E+01           0.00000000E+00
  -0.19300000E+01           0.00000000E+00
  -0.19200000E+01           0.00000000E+00
  -0.19100000E+01           0.00000000E+00
  -0.19000000E+01           0.00000000E+00
  -0.18900000E+01           0.00000000E+00
  -0.18800000E+01           0.00000000E+00
  -0.18700000E+01           0.00000000E+00
  -0.18600000E+01           0.00000000E+00
  -0.18500000E+01           0.00000000E+00
  -0.18400000E+01           0.00000000E+00
  -0.18300000E+01           0.00000000E+00
  -0.18200000E+01           0.00000000E+00
  -0.18100000E+01           0.00000000E+00
  -0.18000000E+01           0.00000000E+00
  -0.17900000E+01           0.00000000E+00
  -0.17800000E+01           0.00000000E+00
  -0.17700000E+01           0.00000000E+00
  -0.17600000E+01           0.00000000E+00
  -0.17500000E+01           0.00000000E+00
  -0.17400000E+01           0.00000000E+00
  -0.17300000E+01           0.00000000E+00
  -0.17200000E+01           0.00000000E+00
  -0.17100000E+01           0.00000000E+00
  -0.17000000E+01           0.00000000E+00
  -0.16900000E+01           0.00000000E+00
  -0.16800000E+01           0.00000000E+00
  -0.16700000E+01           0.00000000E+00
  -0.16600000E+01           0.00000000E+00
  -0.16500000E+01           0.00000000E+00
  -0.16400000E+01           0.00000000E+00
  -0.16300000E+01           0.00000000E+00
  -0.16200000E+01           0.00000000E+00
  -0.16100000E+01           0.00000000E+00
  -0.16000000E+01           0.00000000E+00
  -0.15900000E+01           0.00000000E+00
  -0.15800000E+01           0.00000000E+00
  -0.15700000E+01           0.00000000E+00
  -0.15600000E+01           0.00000000E+00
  -0.15500000E+01           0.00000000E+00
  -0.15400000E+01           0.00000000E+00
  -0.15300000E+01           0.00000000E+00
  -0.15200000E+01           0.00000000E+00
  -0.15100000E+01           0.00000000E+00
  -0.15000000E+01           0.00000000E+00
  -0.14900000E+01           0.00000000E+00
  -0.14800000E+01           0.00000000E+00
  -0.14700000E+01           0.00000000E+00
  -0.14600000E+01           0.00000000E+00
  -0.14500000E+01           0.00000000E+00
  -0.14400000E+01           0.00000000E+00
  -0.14300000E+01           0.00000000E+00
  -0.14200000E+01           0.00000000E+00
  -0.14100000E+01           0.00000000E+00
  -0.14000000E+01           0.00000000E+00
  -0.13900000E+01           0.00000000E+00
  -0.13800000E+01           0.00000000E+00
  -0.13700000E+01           0.00000000E+00
  -0.13600000E+01           0.00000000E+00
  -0.13500000E+01           0.00000000E+00
  -0.13400000E+01           0.00000000E+00
  -0.13300000E+01           0.00000000E+00
  -0.13200000E+01           0.00000000E+00
  -0.13100000E+01           0.00000000E+00
  -0.13000000E+01           0.00000000E+00
  -0.12900000E+01           0.00000000E+00
  -0.12800000E+01           0.00000000E+00
  -0.12700000E+01           0.00000000E+00
  -0.12600000E+01           0.00000000E+00
  -0.12500000E+01           0.00000000E+00
  -0.12400000E+01           0.00000000E+00
  -0.12300000E+01           0.00000000E+00
  -0.12200000E+01           0.00000000E+00
  -0.12100000E+01           0.00000000E+00
  -0.12000000E+01           0.00000000E+00
  -0.11900000E+01           0.00000000E+00
  -0.11800000E+01           0.00000000E+00
  -0.11700000E+01           0.00000000E+00
  -0.11600000E+01           0.00000000E+00
  -0.11500000E+01           0.00000000E+00
  -0.11400000E+01           0.00000000E+00
  -0.11300000E+01           0.00000000E+00
  -0.11200000E+01           0.00000000E+00
  -0.11100000E+01           0.00000000E+00
  -0.11000000E+01           0.00000000E+00
  -0.10900000E+01           0.00000000E+00
  -0.10800000E+01           0.00000000E+00
  -0.10700000E+01           0.00000000E+00
  -0.10600000E+01           0.00000000E+00
  -0.10500000E+01           0.00000000E+00
  -0.10400000E+01           0.00000000E+00
  -0.10300000E+01           0.00000000E+00
  -0.10200000E+01           0.00000000E+00
  -0.10100000E+01           0.00000000E+00
  -0.10000000E+01           0.00000000E+00
  -0.99000000E+00           0.00000000E+00
  -0.98000000E+00           0.00000000E+00
  -0.97000000E+00           0.00000000E+00
  -0.96000000E+00           0.00000000E+00
  -0.95000000E+00           0.00000000E+00
  -0.94000000E+00           0.00000000E+00
  -0.93000000E+00           0.00000000E+00
  -0.92000000E+00           0.00000000E+00
  -0.91000000E+00           0.00000000E+00
  -0.90000000E+00           0.00000000E+00
  -0.89000000E+00           0.00000000E+00
  -0.88000000E+00           0.00000000E+00
  -0.87000000E+00           0.00000000E+00
  -0.86000000E+00           0.00000000E+00
  -0.85000000E+00           0.00000000E+00
  -0.84000000E+00           0.00000000E+00
  -0.83000000E+00           0.00000000E+00
  -0.82000000E+00           0.00000000E+00
  -0.81000000E+00           0.00000000E+00
  -0.80000000E+00           0.00000000E+00
  -0.79000000E+00           0.00000000E+00
  -0.78000000E+00           0.00000000E+00
  -0.77000000E+00           0.00000000E+00
  -0.76000000E+00           0.00000000E+00
  -0.75000000E+00           0.00000000E+00
  -0.74000000E+00           0.00000000E+00
  -0.73000000E+00           0.00000000E+00
  -0.72000000E+00           0.00000000E+00
  -0.71000000E+00           0.00000000E+00
  -0.70000000E+00           0.00000000E+00
  -0.69000000E+00           0.00000000E+00
  -0.68000000E+00           0.00000000E+00
  -0.67000000E+00           0.00000000E+00
  -0.66000000E+00           0.00000000E+00
  -0.65000000E+00           0.00000000E+00
  -0.64000000E+00           0.00000000E+00
  -0.63000000E+00           0.00000000E+00
  -0.62000000E+00           0.00000000E+00
  -0.61000000E+00           0.00000000E+00
  -0.60000000E+00           0.00000000E+00
  -0.59000000E+00           0.00000000E+00
  -0.58000000E+00           0.00000000E+00
  -0.57000000E+00           0.00000000E+00
  -0.56000000E+00           0.00000000E+00
  -0.55000000E+00           0.00000000E+00
  -0.54000000E+00           0.00000000E+00
  -0.53000000E+00           0.00000000E+00
  -0.52000000E+00           0.00000000E+00
  -0.51000000E+00           0.00000000E+00
  -0.50000000E+00           0.00000000E+00
  -0.49000000E+00           0.00000000E+00
  -0.48000000E+00           0.00000000E+00
  -0.47000000E+00           0.00000000E+00
  -0.46000000E+00           0.00000000E+00
  -0.45000000E+00           0.00000000E+00
  -0.44000000E+00           0.00000000E+00
  -0.43000000E+00           0.00000000E+00
  -0.42000000E+00           0.00000000E+00
  -0.41000000E+00           0.00000000E+00
  -0.40000000E+00           0.00000000E+00
  -0.39000000E+00           0.00000000E+00
  -0.38000000E+00           0.00000000E+00
  -0.37000000E+00           0.00000000E+00
  -0.36000000E+00           0.00000000E+00
  -0.35000000E+00           0.00000000E+00
  -0.34000000E+00           0.00000000E+00
  -0.33000000E+00           0.00000000E+00
  -0.32000000E+00           0.00000000E+00
  -0.31000000E+00           0.00000000E+00
  -0.30000000E+00           0.00000000E+00
  -0.29000000E+00           0.00000000E+00
  -0.28000000E+00           0.00000000E+00
  -0.27000000E+00           0.00000000E+00
  -0.26000000E+00           0.00000000E+00
  -0.25000000E+00           0.00000000E+00
  -0.24000000E+00           0.00000000E+00
  -0.23000000E+00           0.00000000E+00
  -0.22000000E+00           0.00000000E+00
  -0.21000000E+00           0.00000000E+00
  -0.20000000E+00           0.00000000E+00
  -0.19000000E+00           0.00000000E+00
  -0.18000000E+00           0.00000000E+00
  -0.17000000E+00           0.00000000E+00
  -0.16000000E+00           0.00000000E+00
  -0.15000000E+00           0.00000000E+00
  -0.14000000E+00           0.00000000E+00
  -0.13000000E+00           0.00000000E+00
  -0.12000000E+00           0.00000000E+00
  -0.11000000E+00           0.00000000E+00
  -0.10000000E+00           0.00000000E+00
  -0.90000000E-01           0.00000000E+00
  -0.80000000E-01           0.00000000E+00
  -0.70000000E-01           0.00000000E+00
  -0.60000000E-01           0.00000000E+00
  -0.50000000E-01           0.00000000E+00
  -0.40000000E-01           0.00000000E+00
  -0.30000000E-01           0.00000000E+00
  -0.20000000E-01           0.00000000E+00
  -0.10000000E-01           0.00000000E+00
   0.00000000E+00           0.47337963E-03
   0.10000000E-01           0.37275463E-02
   0.20000000E-01           0.75055556E-02
   0.30000000E-01           0.11177160E-01
   0.40000000E-01           0.14926312E-01
   0.50000000E-01           0.18727160E-01
   0.60000000E-01           0.22479090E-01
   0.70000000E-01           0.26185031E-01
   0.80000000E-01           0.29990201E-01
   0.90000000E-01           0.33711343E-01
   0.10000000E+00           0.37516127E-01
   0.11000000E+00           0.41246759E-01
   0.12000000E+00           0.45003164E-01
   0.13000000E+00           0.48846065E-01
   0.14000000E+00           0.52616127E-01
   0.15000000E+00           0.56376698E-01
   0.16000000E+00           0.60236188E-01
   0.17000000E+00           0.64029707E-01
   0.18000000E+00           0.67777469E-01
   0.19000000E+00           0.71549846E-01
   0.20000000E+00           0.75408565E-01
   0.21000000E+00           0.79353858E-01
   0.22000000E+00           0.83074151E-01
   0.23000000E+00           0.86945833E-01
   0.24000000E+00           0.90942438E-01
   0.25000000E+00           0.94758256E-01
   0.26000000E+00           0.98636728E-01
   0.27000000E+00           0.10248596E+00
   0.28000000E+00           0.10658557E+00
   0.29000000E+00           0.11039915E+00
   0.30000000E+00           0.11434738E+00
   0.31000000E+00           0.11837168E+00
   0.32000000E+00           0.12228465E+00
   0.33000000E+00           0.12634352E+00
   0.34000000E+00           0.13041389E+00
   0.35000000E+00           0.13454336E+00
   0.36000000E+00           0.13854252E+00
   0.37000000E+00           0.14250324E+00
   0.38000000E+00           0.14655486E+00
   0.39000000E+00           0.15062924E+00
   0.40000000E+00           0.15490023E+00
   0.41000000E+00           0.15893735E+00
   0.42000000E+00           0.16298488E+00
   0.43000000E+00           0.16722546E+00
   0.44000000E+00           0.17135478E+00
   0.45000000E+00           0.17569390E+00
   0.46000000E+00           0.18010340E+00
   0.47000000E+00           0.18417539E+00
   0.48000000E+00           0.18851998E+00
   0.49000000E+00           0.19279491E+00
   0.50000000E+00           0.19720880E+00
   0.51000000E+00           0.20143125E+00
   0.52000000E+00           0.20601705E+00
   0.53000000E+00           0.21026767E+00
   0.54000000E+00           0.21460015E+00
   0.55000000E+00           0.21948248E+00
   0.56000000E+00           0.22352284E+00
   0.57000000E+00           0.22833372E+00
   0.58000000E+00           0.23258380E+00
   0.59000000E+00           0.23729576E+00
   0.60000000E+00           0.24188781E+00
   0.61000000E+00           0.24631019E+00
   0.62000000E+00           0.25098071E+00
   0.63000000E+00           0.25571713E+00
   0.64000000E+00           0.26045733E+00
   0.65000000E+00           0.26493796E+00
   0.66000000E+00           0.26993187E+00
   0.67000000E+00           0.27444861E+00
   0.68000000E+00           0.27928927E+00
   0.69000000E+00           0.28403866E+00
   0.70000000E+00           0.28911358E+00
   0.71000000E+00           0.29411698E+00
   0.72000000E+00           0.29883380E+00
   0.73000000E+00           0.30374383E+00
   0.74000000E+00           0.30894583E+00
   0.75000000E+00           0.31359360E+00
   0.76000000E+00           0.31873665E+00
   0.77000000E+00           0.32385332E+00
   0.78000000E+00           0.32883102E+00
   0.79000000E+00           0.33406343E+00
   0.80000000E+00           0.33901906E+00
   0.81000000E+00           0.34458912E+00
   0.82000000E+00           0.34990023E+00
   0.83000000E+00           0.35498233E+00
   0.84000000E+00           0.36026273E+00
   0.85000000E+00           0.36574869E+00
   0.86000000E+00           0.37107778E+00
   0.87000000E+00           0.37645440E+00
   0.88000000E+00           0.38159977E+00
   0.89000000E+00           0.38678573E+00
   0.90000000E+00           0.39278611E+00
   0.91000000E+00           0.39825841E+00
   0.92000000E+00           0.40384051E+00
   0.93000000E+00           0.40953086E+00
   0.94000000E+00           0.41512500E+00
   0.95000000E+00           0.42098488E+00
   0.96000000E+00           0.42647986E+00
   0.97000000E+00           0.43203665E+00
   0.98000000E+00           0.43835640E+00
   0.99000000E+00           0.44394259E+00
   0.10000000E+01           0.44959105E+00
   0.10100000E+01           0.45599606E+00
   0.10200000E+01           0.46139691E+00
   0.10300000E+01           0.46720818E+00
   0.10400000E+01           0.47331512E+00
   0.10500000E+01           0.47925432E+00
   0.10600000E+01           0.48535201E+00
   0.10700000E+01           0.49098657E+00
   0.10800000E+01           0.49779483E+00
   0.10900000E+01           0.50339082E+00
   0.11000000E+01           0.51008796E+00
   0.11100000E+01           0.51593835E+00
   0.11200000E+01           0.52226119E+00
   0.11300000E+01           0.52876343E+00
   0.11400000E+01           0.53480602E+00
   0.11500000E+01           0.54144244E+00
   0.11600000E+01           0.54767361E+00
   0.11700000E+01           0.55376296E+00
   0.11800000E+01           0.56116003E+00
   0.11900000E+01           0.56698495E+00
   0.12000000E+01           0.57325409E+00
   0.12100000E+01           0.58040633E+00
   0.12200000E+01           0.58662037E+00
   0.12300000E+01           0.59335988E+00
   0.12400000E+01           0.60008758E+00
   0.12500000E+01           0.60647130E+00
   0.12600000E+01           0.61337292E+00
   0.12700000E+01           0.62024977E+00
   0.12800000E+01           0.62687654E+00
   0.12900000E+01           0.63385185E+00
   0.13000000E+01           0.64043873E+00
   0.13100000E+01           0.64720239E+00
   0.13200000E+01           0.65447392E+00
   0.13300000E+01           0.66151535E+00
   0.13400000E+01           0.66806211E+00
   0.13500000E+01           0.67544244E+00
   0.13600000E+01           0.68237454E+00
   0.13700000E+01           0.69016944E+00
   0.13800000E+01           0.69652647E+00
   0.13900000E+01           0.70395347E+00
   0.14000000E+01           0.71079853E+00
   0.14100000E+01           0.71818048E+00
   0.14200000E+01           0.72542338E+00
   0.14300000E+01           0.73295355E+00
   0.14400000E+01           0.73945795E+00
   0.14500000E+01           0.74762778E+00
   0.14600000E+01           0.75431181E+00
   0.14700000E+01           0.76131034E+00
   0.14800000E+01           0.76899715E+00
   0.14900000E+01           0.77675401E+00
   0.15000000E+01           0.78383295E+00
   0.15100000E+01           0.79091312E+00
   0.15200000E+01           0.79897724E+00
   0.15300000E+01           0.80649105E+00
   0.15400000E+01           0.81337253E+00
   0.15500000E+01           0.82123904E+00
   0.15600000E+01           0.82923156E+00
   0.15700000E+01           0.83670941E+00
   0.15800000E+01           0.84406057E+00
   0.15900000E+01           0.85216011E+00
   0.16000000E+01           0.85904707E+00
   0.16100000E+01           0.86695818E+00
   0.16200000E+01           0.87493164E+00
   0.16300000E+01           0.88224313E+00
   0.16400000E+01           0.88972948E+00
   0.16500000E+01           0.89802716E+00
   0.16600000E+01           0.90500965E+00
   0.16700000E+01           0.91323897E+00
   0.16800000E+01           0.92065926E+00
   0.16900000E+01           0.92881474E+00
   0.17000000E+01           0.93665100E+00
   0.17100000E+01           0.94423989E+00
   0.17200000E+01           0.95207014E+00
   0.17300000E+01           0.96038781E+00
   0.17400000E+01           0.96817840E+00
   0.17500000E+01           0.97589182E+00
   0.17600000E+01           0.98416566E+00
   0.17700000E+01           0.99207801E+00
   0.17800000E+01           0.99935216E+00
   0.17900000E+01           0.10068324E+01
   0.18000000E+01           0.10157573E+01
   0.18100000E+01           0.10227724E+01
   0.18200000E+01           0.10318662E+01
   0.18300000E+01           0.10397400E+01
   0.18400000E+01           0.10475400E+01
   0.18500000E+01           0.10552015E+01
   0.18600000E+01           0.10628478E+01
   0.18700000E+01           0.10710838E+01
   0.18800000E+01           0.10787758E+01
   0.18900000E+01           0.10863228E+01
   0.19000000E+01           0.10945164E+01
   0.19100000E+01           0.11019453E+01
   0.19200000E+01           0.11102786E+01
   0.19300000E+01           0.11185956E+01
   0.19400000E+01           0.11262699E+01
   0.19500000E+01           0.11338405E+01
   0.19600000E+01           0.11421244E+01
   0.19700000E+01           0.11494852E+01
   0.19800000E+01           0.11575232E+01
   0.19900000E+01           0.11660410E+01
   0.20000000E+01           0.58603465E+00
