 #written on 27Nov2024 at 16:55:01 
 #----------------- MONTECARLO -------------------#
 #        M                      P(M)             #
 #------------------------------------------------#
 #T=    25.0000
  -0.40000000E+01           0.00000000E+00
  -0.39900000E+01           0.00000000E+00
  -0.39800000E+01           0.00000000E+00
  -0.39700000E+01           0.00000000E+00
  -0.39600000E+01           0.00000000E+00
  -0.39500000E+01           0.00000000E+00
  -0.39400000E+01           0.00000000E+00
  -0.39300000E+01           0.00000000E+00
  -0.39200000E+01           0.00000000E+00
  -0.39100000E+01           0.00000000E+00
  -0.39000000E+01           0.00000000E+00
  -0.38900000E+01           0.00000000E+00
  -0.38800000E+01           0.00000000E+00
  -0.38700000E+01           0.00000000E+00
  -0.38600000E+01           0.00000000E+00
  -0.38500000E+01           0.00000000E+00
  -0.38400000E+01           0.00000000E+00
  -0.38300000E+01           0.00000000E+00
  -0.38200000E+01           0.00000000E+00
  -0.38100000E+01           0.00000000E+00
  -0.38000000E+01           0.00000000E+00
  -0.37900000E+01           0.00000000E+00
  -0.37800000E+01           0.00000000E+00
  -0.37700000E+01           0.00000000E+00
  -0.37600000E+01           0.00000000E+00
  -0.37500000E+01           0.00000000E+00
  -0.37400000E+01           0.00000000E+00
  -0.37300000E+01           0.00000000E+00
  -0.37200000E+01           0.00000000E+00
  -0.37100000E+01           0.00000000E+00
  -0.37000000E+01           0.00000000E+00
  -0.36900000E+01           0.00000000E+00
  -0.36800000E+01           0.00000000E+00
  -0.36700000E+01           0.00000000E+00
  -0.36600000E+01           0.00000000E+00
  -0.36500000E+01           0.00000000E+00
  -0.36400000E+01           0.00000000E+00
  -0.36300000E+01           0.00000000E+00
  -0.36200000E+01           0.00000000E+00
  -0.36100000E+01           0.00000000E+00
  -0.36000000E+01           0.00000000E+00
  -0.35900000E+01           0.00000000E+00
  -0.35800000E+01           0.00000000E+00
  -0.35700000E+01           0.00000000E+00
  -0.35600000E+01           0.00000000E+00
  -0.35500000E+01           0.00000000E+00
  -0.35400000E+01           0.00000000E+00
  -0.35300000E+01           0.00000000E+00
  -0.35200000E+01           0.00000000E+00
  -0.35100000E+01           0.00000000E+00
  -0.35000000E+01           0.00000000E+00
  -0.34900000E+01           0.00000000E+00
  -0.34800000E+01           0.00000000E+00
  -0.34700000E+01           0.00000000E+00
  -0.34600000E+01           0.00000000E+00
  -0.34500000E+01           0.00000000E+00
  -0.34400000E+01           0.00000000E+00
  -0.34300000E+01           0.00000000E+00
  -0.34200000E+01           0.00000000E+00
  -0.34100000E+01           0.00000000E+00
  -0.34000000E+01           0.00000000E+00
  -0.33900000E+01           0.00000000E+00
  -0.33800000E+01           0.00000000E+00
  -0.33700000E+01           0.00000000E+00
  -0.33600000E+01           0.00000000E+00
  -0.33500000E+01           0.00000000E+00
  -0.33400000E+01           0.00000000E+00
  -0.33300000E+01           0.00000000E+00
  -0.33200000E+01           0.00000000E+00
  -0.33100000E+01           0.00000000E+00
  -0.33000000E+01           0.00000000E+00
  -0.32900000E+01           0.00000000E+00
  -0.32800000E+01           0.00000000E+00
  -0.32700000E+01           0.00000000E+00
  -0.32600000E+01           0.00000000E+00
  -0.32500000E+01           0.00000000E+00
  -0.32400000E+01           0.00000000E+00
  -0.32300000E+01           0.00000000E+00
  -0.32200000E+01           0.00000000E+00
  -0.32100000E+01           0.00000000E+00
  -0.32000000E+01           0.00000000E+00
  -0.31900000E+01           0.00000000E+00
  -0.31800000E+01           0.00000000E+00
  -0.31700000E+01           0.00000000E+00
  -0.31600000E+01           0.00000000E+00
  -0.31500000E+01           0.00000000E+00
  -0.31400000E+01           0.00000000E+00
  -0.31300000E+01           0.00000000E+00
  -0.31200000E+01           0.00000000E+00
  -0.31100000E+01           0.00000000E+00
  -0.31000000E+01           0.00000000E+00
  -0.30900000E+01           0.00000000E+00
  -0.30800000E+01           0.00000000E+00
  -0.30700000E+01           0.00000000E+00
  -0.30600000E+01           0.00000000E+00
  -0.30500000E+01           0.00000000E+00
  -0.30400000E+01           0.00000000E+00
  -0.30300000E+01           0.00000000E+00
  -0.30200000E+01           0.00000000E+00
  -0.30100000E+01           0.00000000E+00
  -0.30000000E+01           0.00000000E+00
  -0.29900000E+01           0.00000000E+00
  -0.29800000E+01           0.00000000E+00
  -0.29700000E+01           0.00000000E+00
  -0.29600000E+01           0.00000000E+00
  -0.29500000E+01           0.00000000E+00
  -0.29400000E+01           0.00000000E+00
  -0.29300000E+01           0.00000000E+00
  -0.29200000E+01           0.00000000E+00
  -0.29100000E+01           0.00000000E+00
  -0.29000000E+01           0.00000000E+00
  -0.28900000E+01           0.00000000E+00
  -0.28800000E+01           0.00000000E+00
  -0.28700000E+01           0.00000000E+00
  -0.28600000E+01           0.00000000E+00
  -0.28500000E+01           0.00000000E+00
  -0.28400000E+01           0.00000000E+00
  -0.28300000E+01           0.00000000E+00
  -0.28200000E+01           0.00000000E+00
  -0.28100000E+01           0.00000000E+00
  -0.28000000E+01           0.00000000E+00
  -0.27900000E+01           0.00000000E+00
  -0.27800000E+01           0.00000000E+00
  -0.27700000E+01           0.00000000E+00
  -0.27600000E+01           0.00000000E+00
  -0.27500000E+01           0.00000000E+00
  -0.27400000E+01           0.00000000E+00
  -0.27300000E+01           0.00000000E+00
  -0.27200000E+01           0.00000000E+00
  -0.27100000E+01           0.00000000E+00
  -0.27000000E+01           0.00000000E+00
  -0.26900000E+01           0.00000000E+00
  -0.26800000E+01           0.00000000E+00
  -0.26700000E+01           0.00000000E+00
  -0.26600000E+01           0.00000000E+00
  -0.26500000E+01           0.00000000E+00
  -0.26400000E+01           0.00000000E+00
  -0.26300000E+01           0.00000000E+00
  -0.26200000E+01           0.00000000E+00
  -0.26100000E+01           0.00000000E+00
  -0.26000000E+01           0.00000000E+00
  -0.25900000E+01           0.00000000E+00
  -0.25800000E+01           0.00000000E+00
  -0.25700000E+01           0.00000000E+00
  -0.25600000E+01           0.00000000E+00
  -0.25500000E+01           0.00000000E+00
  -0.25400000E+01           0.00000000E+00
  -0.25300000E+01           0.00000000E+00
  -0.25200000E+01           0.00000000E+00
  -0.25100000E+01           0.00000000E+00
  -0.25000000E+01           0.00000000E+00
  -0.24900000E+01           0.00000000E+00
  -0.24800000E+01           0.00000000E+00
  -0.24700000E+01           0.00000000E+00
  -0.24600000E+01           0.00000000E+00
  -0.24500000E+01           0.00000000E+00
  -0.24400000E+01           0.00000000E+00
  -0.24300000E+01           0.00000000E+00
  -0.24200000E+01           0.00000000E+00
  -0.24100000E+01           0.00000000E+00
  -0.24000000E+01           0.00000000E+00
  -0.23900000E+01           0.00000000E+00
  -0.23800000E+01           0.00000000E+00
  -0.23700000E+01           0.00000000E+00
  -0.23600000E+01           0.00000000E+00
  -0.23500000E+01           0.00000000E+00
  -0.23400000E+01           0.00000000E+00
  -0.23300000E+01           0.00000000E+00
  -0.23200000E+01           0.00000000E+00
  -0.23100000E+01           0.00000000E+00
  -0.23000000E+01           0.00000000E+00
  -0.22900000E+01           0.00000000E+00
  -0.22800000E+01           0.00000000E+00
  -0.22700000E+01           0.00000000E+00
  -0.22600000E+01           0.00000000E+00
  -0.22500000E+01           0.00000000E+00
  -0.22400000E+01           0.00000000E+00
  -0.22300000E+01           0.00000000E+00
  -0.22200000E+01           0.00000000E+00
  -0.22100000E+01           0.00000000E+00
  -0.22000000E+01           0.00000000E+00
  -0.21900000E+01           0.00000000E+00
  -0.21800000E+01           0.00000000E+00
  -0.21700000E+01           0.00000000E+00
  -0.21600000E+01           0.00000000E+00
  -0.21500000E+01           0.00000000E+00
  -0.21400000E+01           0.00000000E+00
  -0.21300000E+01           0.00000000E+00
  -0.21200000E+01           0.00000000E+00
  -0.21100000E+01           0.00000000E+00
  -0.21000000E+01           0.00000000E+00
  -0.20900000E+01           0.00000000E+00
  -0.20800000E+01           0.00000000E+00
  -0.20700000E+01           0.00000000E+00
  -0.20600000E+01           0.00000000E+00
  -0.20500000E+01           0.00000000E+00
  -0.20400000E+01           0.00000000E+00
  -0.20300000E+01           0.00000000E+00
  -0.20200000E+01           0.00000000E+00
  -0.20100000E+01           0.00000000E+00
  -0.20000000E+01           0.00000000E+00
  -0.19900000E+01           0.00000000E+00
  -0.19800000E+01           0.00000000E+00
  -0.19700000E+01           0.00000000E+00
  -0.19600000E+01           0.00000000E+00
  -0.19500000E+01           0.00000000E+00
  -0.19400000E+01           0.00000000E+00
  -0.19300000E+01           0.00000000E+00
  -0.19200000E+01           0.00000000E+00
  -0.19100000E+01           0.00000000E+00
  -0.19000000E+01           0.00000000E+00
  -0.18900000E+01           0.00000000E+00
  -0.18800000E+01           0.00000000E+00
  -0.18700000E+01           0.00000000E+00
  -0.18600000E+01           0.00000000E+00
  -0.18500000E+01           0.00000000E+00
  -0.18400000E+01           0.00000000E+00
  -0.18300000E+01           0.00000000E+00
  -0.18200000E+01           0.00000000E+00
  -0.18100000E+01           0.00000000E+00
  -0.18000000E+01           0.00000000E+00
  -0.17900000E+01           0.00000000E+00
  -0.17800000E+01           0.00000000E+00
  -0.17700000E+01           0.00000000E+00
  -0.17600000E+01           0.00000000E+00
  -0.17500000E+01           0.00000000E+00
  -0.17400000E+01           0.00000000E+00
  -0.17300000E+01           0.00000000E+00
  -0.17200000E+01           0.00000000E+00
  -0.17100000E+01           0.00000000E+00
  -0.17000000E+01           0.00000000E+00
  -0.16900000E+01           0.00000000E+00
  -0.16800000E+01           0.00000000E+00
  -0.16700000E+01           0.00000000E+00
  -0.16600000E+01           0.00000000E+00
  -0.16500000E+01           0.00000000E+00
  -0.16400000E+01           0.00000000E+00
  -0.16300000E+01           0.00000000E+00
  -0.16200000E+01           0.00000000E+00
  -0.16100000E+01           0.00000000E+00
  -0.16000000E+01           0.00000000E+00
  -0.15900000E+01           0.00000000E+00
  -0.15800000E+01           0.00000000E+00
  -0.15700000E+01           0.00000000E+00
  -0.15600000E+01           0.00000000E+00
  -0.15500000E+01           0.00000000E+00
  -0.15400000E+01           0.00000000E+00
  -0.15300000E+01           0.00000000E+00
  -0.15200000E+01           0.00000000E+00
  -0.15100000E+01           0.00000000E+00
  -0.15000000E+01           0.00000000E+00
  -0.14900000E+01           0.00000000E+00
  -0.14800000E+01           0.00000000E+00
  -0.14700000E+01           0.00000000E+00
  -0.14600000E+01           0.00000000E+00
  -0.14500000E+01           0.00000000E+00
  -0.14400000E+01           0.00000000E+00
  -0.14300000E+01           0.00000000E+00
  -0.14200000E+01           0.00000000E+00
  -0.14100000E+01           0.00000000E+00
  -0.14000000E+01           0.00000000E+00
  -0.13900000E+01           0.00000000E+00
  -0.13800000E+01           0.00000000E+00
  -0.13700000E+01           0.00000000E+00
  -0.13600000E+01           0.00000000E+00
  -0.13500000E+01           0.00000000E+00
  -0.13400000E+01           0.00000000E+00
  -0.13300000E+01           0.00000000E+00
  -0.13200000E+01           0.00000000E+00
  -0.13100000E+01           0.00000000E+00
  -0.13000000E+01           0.00000000E+00
  -0.12900000E+01           0.00000000E+00
  -0.12800000E+01           0.00000000E+00
  -0.12700000E+01           0.00000000E+00
  -0.12600000E+01           0.00000000E+00
  -0.12500000E+01           0.00000000E+00
  -0.12400000E+01           0.00000000E+00
  -0.12300000E+01           0.00000000E+00
  -0.12200000E+01           0.00000000E+00
  -0.12100000E+01           0.00000000E+00
  -0.12000000E+01           0.00000000E+00
  -0.11900000E+01           0.00000000E+00
  -0.11800000E+01           0.00000000E+00
  -0.11700000E+01           0.00000000E+00
  -0.11600000E+01           0.00000000E+00
  -0.11500000E+01           0.00000000E+00
  -0.11400000E+01           0.00000000E+00
  -0.11300000E+01           0.00000000E+00
  -0.11200000E+01           0.00000000E+00
  -0.11100000E+01           0.00000000E+00
  -0.11000000E+01           0.00000000E+00
  -0.10900000E+01           0.00000000E+00
  -0.10800000E+01           0.00000000E+00
  -0.10700000E+01           0.00000000E+00
  -0.10600000E+01           0.00000000E+00
  -0.10500000E+01           0.00000000E+00
  -0.10400000E+01           0.00000000E+00
  -0.10300000E+01           0.00000000E+00
  -0.10200000E+01           0.00000000E+00
  -0.10100000E+01           0.00000000E+00
  -0.10000000E+01           0.00000000E+00
  -0.99000000E+00           0.00000000E+00
  -0.98000000E+00           0.00000000E+00
  -0.97000000E+00           0.00000000E+00
  -0.96000000E+00           0.00000000E+00
  -0.95000000E+00           0.00000000E+00
  -0.94000000E+00           0.00000000E+00
  -0.93000000E+00           0.00000000E+00
  -0.92000000E+00           0.00000000E+00
  -0.91000000E+00           0.00000000E+00
  -0.90000000E+00           0.00000000E+00
  -0.89000000E+00           0.00000000E+00
  -0.88000000E+00           0.00000000E+00
  -0.87000000E+00           0.00000000E+00
  -0.86000000E+00           0.00000000E+00
  -0.85000000E+00           0.00000000E+00
  -0.84000000E+00           0.00000000E+00
  -0.83000000E+00           0.00000000E+00
  -0.82000000E+00           0.00000000E+00
  -0.81000000E+00           0.00000000E+00
  -0.80000000E+00           0.00000000E+00
  -0.79000000E+00           0.00000000E+00
  -0.78000000E+00           0.00000000E+00
  -0.77000000E+00           0.00000000E+00
  -0.76000000E+00           0.00000000E+00
  -0.75000000E+00           0.00000000E+00
  -0.74000000E+00           0.00000000E+00
  -0.73000000E+00           0.00000000E+00
  -0.72000000E+00           0.00000000E+00
  -0.71000000E+00           0.00000000E+00
  -0.70000000E+00           0.00000000E+00
  -0.69000000E+00           0.00000000E+00
  -0.68000000E+00           0.00000000E+00
  -0.67000000E+00           0.00000000E+00
  -0.66000000E+00           0.00000000E+00
  -0.65000000E+00           0.00000000E+00
  -0.64000000E+00           0.00000000E+00
  -0.63000000E+00           0.00000000E+00
  -0.62000000E+00           0.00000000E+00
  -0.61000000E+00           0.00000000E+00
  -0.60000000E+00           0.00000000E+00
  -0.59000000E+00           0.00000000E+00
  -0.58000000E+00           0.00000000E+00
  -0.57000000E+00           0.00000000E+00
  -0.56000000E+00           0.00000000E+00
  -0.55000000E+00           0.00000000E+00
  -0.54000000E+00           0.00000000E+00
  -0.53000000E+00           0.00000000E+00
  -0.52000000E+00           0.00000000E+00
  -0.51000000E+00           0.00000000E+00
  -0.50000000E+00           0.00000000E+00
  -0.49000000E+00           0.00000000E+00
  -0.48000000E+00           0.00000000E+00
  -0.47000000E+00           0.00000000E+00
  -0.46000000E+00           0.00000000E+00
  -0.45000000E+00           0.00000000E+00
  -0.44000000E+00           0.00000000E+00
  -0.43000000E+00           0.00000000E+00
  -0.42000000E+00           0.00000000E+00
  -0.41000000E+00           0.00000000E+00
  -0.40000000E+00           0.00000000E+00
  -0.39000000E+00           0.00000000E+00
  -0.38000000E+00           0.00000000E+00
  -0.37000000E+00           0.00000000E+00
  -0.36000000E+00           0.00000000E+00
  -0.35000000E+00           0.00000000E+00
  -0.34000000E+00           0.00000000E+00
  -0.33000000E+00           0.00000000E+00
  -0.32000000E+00           0.00000000E+00
  -0.31000000E+00           0.00000000E+00
  -0.30000000E+00           0.00000000E+00
  -0.29000000E+00           0.00000000E+00
  -0.28000000E+00           0.00000000E+00
  -0.27000000E+00           0.00000000E+00
  -0.26000000E+00           0.00000000E+00
  -0.25000000E+00           0.00000000E+00
  -0.24000000E+00           0.00000000E+00
  -0.23000000E+00           0.00000000E+00
  -0.22000000E+00           0.00000000E+00
  -0.21000000E+00           0.00000000E+00
  -0.20000000E+00           0.00000000E+00
  -0.19000000E+00           0.00000000E+00
  -0.18000000E+00           0.00000000E+00
  -0.17000000E+00           0.00000000E+00
  -0.16000000E+00           0.00000000E+00
  -0.15000000E+00           0.00000000E+00
  -0.14000000E+00           0.00000000E+00
  -0.13000000E+00           0.00000000E+00
  -0.12000000E+00           0.00000000E+00
  -0.11000000E+00           0.00000000E+00
  -0.10000000E+00           0.00000000E+00
  -0.90000000E-01           0.00000000E+00
  -0.80000000E-01           0.00000000E+00
  -0.70000000E-01           0.00000000E+00
  -0.60000000E-01           0.00000000E+00
  -0.50000000E-01           0.00000000E+00
  -0.40000000E-01           0.00000000E+00
  -0.30000000E-01           0.00000000E+00
  -0.20000000E-01           0.00000000E+00
  -0.10000000E-01           0.00000000E+00
   0.00000000E+00           0.19685185E-03
   0.10000000E-01           0.45144444E-02
   0.20000000E-01           0.16012037E-01
   0.30000000E-01           0.33869074E-01
   0.40000000E-01           0.57566481E-01
   0.50000000E-01           0.85697963E-01
   0.60000000E-01           0.11730648E+00
   0.70000000E-01           0.15252111E+00
   0.80000000E-01           0.19023944E+00
   0.90000000E-01           0.23028093E+00
   0.10000000E+00           0.27177593E+00
   0.11000000E+00           0.31447611E+00
   0.12000000E+00           0.35796796E+00
   0.13000000E+00           0.40243574E+00
   0.14000000E+00           0.44674833E+00
   0.15000000E+00           0.49154278E+00
   0.16000000E+00           0.53620333E+00
   0.17000000E+00           0.57981000E+00
   0.18000000E+00           0.62233315E+00
   0.19000000E+00           0.66502074E+00
   0.20000000E+00           0.70623204E+00
   0.21000000E+00           0.74746907E+00
   0.22000000E+00           0.78649833E+00
   0.23000000E+00           0.82597222E+00
   0.24000000E+00           0.86309481E+00
   0.25000000E+00           0.89864796E+00
   0.26000000E+00           0.93392852E+00
   0.27000000E+00           0.96658574E+00
   0.28000000E+00           0.99999333E+00
   0.29000000E+00           0.10286835E+01
   0.30000000E+00           0.10573398E+01
   0.31000000E+00           0.10840652E+01
   0.32000000E+00           0.11103107E+01
   0.33000000E+00           0.11360093E+01
   0.34000000E+00           0.11580594E+01
   0.35000000E+00           0.11789776E+01
   0.36000000E+00           0.11991019E+01
   0.37000000E+00           0.12164394E+01
   0.38000000E+00           0.12347852E+01
   0.39000000E+00           0.12476909E+01
   0.40000000E+00           0.12624956E+01
   0.41000000E+00           0.12740928E+01
   0.42000000E+00           0.12844278E+01
   0.43000000E+00           0.12941517E+01
   0.44000000E+00           0.13000374E+01
   0.45000000E+00           0.13074256E+01
   0.46000000E+00           0.13133422E+01
   0.47000000E+00           0.13155089E+01
   0.48000000E+00           0.13180344E+01
   0.49000000E+00           0.13191580E+01
   0.50000000E+00           0.13185146E+01
   0.51000000E+00           0.13177993E+01
   0.52000000E+00           0.13152174E+01
   0.53000000E+00           0.13110700E+01
   0.54000000E+00           0.13062344E+01
   0.55000000E+00           0.12996526E+01
   0.56000000E+00           0.12913711E+01
   0.57000000E+00           0.12831133E+01
   0.58000000E+00           0.12746150E+01
   0.59000000E+00           0.12649331E+01
   0.60000000E+00           0.12539150E+01
   0.61000000E+00           0.12429896E+01
   0.62000000E+00           0.12288800E+01
   0.63000000E+00           0.12160767E+01
   0.64000000E+00           0.12011250E+01
   0.65000000E+00           0.11871519E+01
   0.66000000E+00           0.11703806E+01
   0.67000000E+00           0.11556831E+01
   0.68000000E+00           0.11400457E+01
   0.69000000E+00           0.11204415E+01
   0.70000000E+00           0.11038872E+01
   0.71000000E+00           0.10859372E+01
   0.72000000E+00           0.10672398E+01
   0.73000000E+00           0.10482189E+01
   0.74000000E+00           0.10286309E+01
   0.75000000E+00           0.10094715E+01
   0.76000000E+00           0.98936759E+00
   0.77000000E+00           0.96950981E+00
   0.78000000E+00           0.94985963E+00
   0.79000000E+00           0.92892815E+00
   0.80000000E+00           0.90843056E+00
   0.81000000E+00           0.88792370E+00
   0.82000000E+00           0.86783833E+00
   0.83000000E+00           0.84614463E+00
   0.84000000E+00           0.82552796E+00
   0.85000000E+00           0.80474000E+00
   0.86000000E+00           0.78422204E+00
   0.87000000E+00           0.76476796E+00
   0.88000000E+00           0.74379407E+00
   0.89000000E+00           0.72321148E+00
   0.90000000E+00           0.70211741E+00
   0.91000000E+00           0.68117185E+00
   0.92000000E+00           0.66274352E+00
   0.93000000E+00           0.64364185E+00
   0.94000000E+00           0.62373037E+00
   0.95000000E+00           0.60431148E+00
   0.96000000E+00           0.58554111E+00
   0.97000000E+00           0.56706926E+00
   0.98000000E+00           0.54867278E+00
   0.99000000E+00           0.53053389E+00
   0.10000000E+01           0.51254315E+00
   0.10100000E+01           0.49469630E+00
   0.10200000E+01           0.47727926E+00
   0.10300000E+01           0.46094204E+00
   0.10400000E+01           0.44480759E+00
   0.10500000E+01           0.42873352E+00
   0.10600000E+01           0.41271444E+00
   0.10700000E+01           0.39709241E+00
   0.10800000E+01           0.38201444E+00
   0.10900000E+01           0.36741333E+00
   0.11000000E+01           0.35292037E+00
   0.11100000E+01           0.33871778E+00
   0.11200000E+01           0.32578093E+00
   0.11300000E+01           0.31198352E+00
   0.11400000E+01           0.29942241E+00
   0.11500000E+01           0.28715019E+00
   0.11600000E+01           0.27482778E+00
   0.11700000E+01           0.26297019E+00
   0.11800000E+01           0.25193648E+00
   0.11900000E+01           0.24087759E+00
   0.12000000E+01           0.23029278E+00
   0.12100000E+01           0.21981444E+00
   0.12200000E+01           0.20971907E+00
   0.12300000E+01           0.20029648E+00
   0.12400000E+01           0.19095019E+00
   0.12500000E+01           0.18176500E+00
   0.12600000E+01           0.17335741E+00
   0.12700000E+01           0.16490444E+00
   0.12800000E+01           0.15696537E+00
   0.12900000E+01           0.14931093E+00
   0.13000000E+01           0.14175500E+00
   0.13100000E+01           0.13490648E+00
   0.13200000E+01           0.12816741E+00
   0.13300000E+01           0.12182722E+00
   0.13400000E+01           0.11539852E+00
   0.13500000E+01           0.10912241E+00
   0.13600000E+01           0.10338685E+00
   0.13700000E+01           0.98115370E-01
   0.13800000E+01           0.92717778E-01
   0.13900000E+01           0.87638148E-01
   0.14000000E+01           0.83080185E-01
   0.14100000E+01           0.78397593E-01
   0.14200000E+01           0.74022963E-01
   0.14300000E+01           0.69740000E-01
   0.14400000E+01           0.65889259E-01
   0.14500000E+01           0.61936111E-01
   0.14600000E+01           0.58547407E-01
   0.14700000E+01           0.55060185E-01
   0.14800000E+01           0.51926296E-01
   0.14900000E+01           0.48828704E-01
   0.15000000E+01           0.45875185E-01
   0.15100000E+01           0.43207037E-01
   0.15200000E+01           0.40419630E-01
   0.15300000E+01           0.38145556E-01
   0.15400000E+01           0.35690926E-01
   0.15500000E+01           0.33398333E-01
   0.15600000E+01           0.31302593E-01
   0.15700000E+01           0.29247037E-01
   0.15800000E+01           0.27392593E-01
   0.15900000E+01           0.25759815E-01
   0.16000000E+01           0.24039074E-01
   0.16100000E+01           0.22551296E-01
   0.16200000E+01           0.21031667E-01
   0.16300000E+01           0.19565741E-01
   0.16400000E+01           0.18290556E-01
   0.16500000E+01           0.17064630E-01
   0.16600000E+01           0.16006296E-01
   0.16700000E+01           0.14767593E-01
   0.16800000E+01           0.13683333E-01
   0.16900000E+01           0.12840000E-01
   0.17000000E+01           0.11812407E-01
   0.17100000E+01           0.11025370E-01
   0.17200000E+01           0.10336852E-01
   0.17300000E+01           0.95740741E-02
   0.17400000E+01           0.88253704E-02
   0.17500000E+01           0.81496296E-02
   0.17600000E+01           0.75542593E-02
   0.17700000E+01           0.70262963E-02
   0.17800000E+01           0.64846296E-02
   0.17900000E+01           0.60494444E-02
   0.18000000E+01           0.55479630E-02
   0.18100000E+01           0.51629630E-02
   0.18200000E+01           0.47922222E-02
   0.18300000E+01           0.44140741E-02
   0.18400000E+01           0.40616667E-02
   0.18500000E+01           0.37148148E-02
   0.18600000E+01           0.35062963E-02
   0.18700000E+01           0.31977778E-02
   0.18800000E+01           0.29209259E-02
   0.18900000E+01           0.26400000E-02
   0.19000000E+01           0.25175926E-02
   0.19100000E+01           0.22859259E-02
   0.19200000E+01           0.20970370E-02
   0.19300000E+01           0.19068519E-02
   0.19400000E+01           0.17659259E-02
   0.19500000E+01           0.16379630E-02
   0.19600000E+01           0.14629630E-02
   0.19700000E+01           0.13581481E-02
   0.19800000E+01           0.12679630E-02
   0.19900000E+01           0.11350000E-02
   0.20000000E+01           0.10196296E-02
   0.20100000E+01           0.93129630E-03
   0.20200000E+01           0.85111111E-03
   0.20300000E+01           0.80185185E-03
   0.20400000E+01           0.72018519E-03
   0.20500000E+01           0.65962963E-03
   0.20600000E+01           0.61074074E-03
   0.20700000E+01           0.54333333E-03
   0.20800000E+01           0.49870370E-03
   0.20900000E+01           0.43388889E-03
   0.21000000E+01           0.41185185E-03
   0.21100000E+01           0.37777778E-03
   0.21200000E+01           0.33814815E-03
   0.21300000E+01           0.30685185E-03
   0.21400000E+01           0.28333333E-03
   0.21500000E+01           0.23425926E-03
   0.21600000E+01           0.22833333E-03
   0.21700000E+01           0.20870370E-03
   0.21800000E+01           0.18092593E-03
   0.21900000E+01           0.17314815E-03
   0.22000000E+01           0.15814815E-03
   0.22100000E+01           0.14444444E-03
   0.22200000E+01           0.13574074E-03
   0.22300000E+01           0.11666667E-03
   0.22400000E+01           0.10907407E-03
   0.22500000E+01           0.89814815E-04
   0.22600000E+01           0.85555556E-04
   0.22700000E+01           0.73333333E-04
   0.22800000E+01           0.60185185E-04
   0.22900000E+01           0.60555556E-04
   0.23000000E+01           0.55925926E-04
   0.23100000E+01           0.48333333E-04
   0.23200000E+01           0.43518519E-04
   0.23300000E+01           0.40185185E-04
   0.23400000E+01           0.31666667E-04
   0.23500000E+01           0.31666667E-04
   0.23600000E+01           0.29814815E-04
   0.23700000E+01           0.28148148E-04
   0.23800000E+01           0.25185185E-04
   0.23900000E+01           0.20000000E-04
   0.24000000E+01           0.17222222E-04
   0.24100000E+01           0.16111111E-04
   0.24200000E+01           0.13148148E-04
   0.24300000E+01           0.10555556E-04
   0.24400000E+01           0.13333333E-04
   0.24500000E+01           0.98148148E-05
   0.24600000E+01           0.96296296E-05
   0.24700000E+01           0.75925926E-05
   0.24800000E+01           0.77777778E-05
   0.24900000E+01           0.48148148E-05
   0.25000000E+01           0.53703704E-05
   0.25100000E+01           0.33333333E-05
   0.25200000E+01           0.24074074E-05
   0.25300000E+01           0.31481481E-05
   0.25400000E+01           0.25925926E-05
   0.25500000E+01           0.16666667E-05
   0.25600000E+01           0.29629630E-05
   0.25700000E+01           0.31481481E-05
   0.25800000E+01           0.31481481E-05
   0.25900000E+01           0.16666667E-05
   0.26000000E+01           0.74074074E-06
   0.26100000E+01           0.14814815E-05
   0.26200000E+01           0.11111111E-05
   0.26300000E+01           0.74074074E-06
   0.26400000E+01           0.37037037E-06
   0.26500000E+01           0.11111111E-05
   0.26600000E+01           0.74074074E-06
   0.26700000E+01           0.55555556E-06
   0.26800000E+01           0.37037037E-06
   0.26900000E+01           0.37037037E-06
   0.27000000E+01           0.92592593E-06
   0.27100000E+01           0.18518519E-06
   0.27200000E+01           0.11111111E-05
   0.27300000E+01           0.18518519E-06
   0.27400000E+01           0.00000000E+00
   0.27500000E+01           0.55555556E-06
   0.27600000E+01           0.18518519E-06
   0.27700000E+01           0.00000000E+00
   0.27800000E+01           0.00000000E+00
   0.27900000E+01           0.00000000E+00
   0.28000000E+01           0.00000000E+00
   0.28100000E+01           0.00000000E+00
   0.28200000E+01           0.00000000E+00
   0.28300000E+01           0.00000000E+00
   0.28400000E+01           0.00000000E+00
   0.28500000E+01           0.00000000E+00
   0.28600000E+01           0.00000000E+00
   0.28700000E+01           0.00000000E+00
   0.28800000E+01           0.00000000E+00
   0.28900000E+01           0.00000000E+00
   0.29000000E+01           0.00000000E+00
   0.29100000E+01           0.00000000E+00
   0.29200000E+01           0.00000000E+00
   0.29300000E+01           0.00000000E+00
   0.29400000E+01           0.00000000E+00
   0.29500000E+01           0.00000000E+00
   0.29600000E+01           0.00000000E+00
   0.29700000E+01           0.00000000E+00
   0.29800000E+01           0.00000000E+00
   0.29900000E+01           0.00000000E+00
   0.30000000E+01           0.00000000E+00
   0.30100000E+01           0.00000000E+00
   0.30200000E+01           0.00000000E+00
   0.30300000E+01           0.00000000E+00
   0.30400000E+01           0.00000000E+00
   0.30500000E+01           0.00000000E+00
   0.30600000E+01           0.00000000E+00
   0.30700000E+01           0.00000000E+00
   0.30800000E+01           0.00000000E+00
   0.30900000E+01           0.00000000E+00
   0.31000000E+01           0.00000000E+00
   0.31100000E+01           0.00000000E+00
   0.31200000E+01           0.00000000E+00
   0.31300000E+01           0.00000000E+00
   0.31400000E+01           0.00000000E+00
   0.31500000E+01           0.00000000E+00
   0.31600000E+01           0.00000000E+00
   0.31700000E+01           0.00000000E+00
   0.31800000E+01           0.00000000E+00
   0.31900000E+01           0.00000000E+00
   0.32000000E+01           0.00000000E+00
   0.32100000E+01           0.00000000E+00
   0.32200000E+01           0.00000000E+00
   0.32300000E+01           0.00000000E+00
   0.32400000E+01           0.00000000E+00
   0.32500000E+01           0.00000000E+00
   0.32600000E+01           0.00000000E+00
   0.32700000E+01           0.00000000E+00
   0.32800000E+01           0.00000000E+00
   0.32900000E+01           0.00000000E+00
   0.33000000E+01           0.00000000E+00
   0.33100000E+01           0.00000000E+00
   0.33200000E+01           0.00000000E+00
   0.33300000E+01           0.00000000E+00
   0.33400000E+01           0.00000000E+00
   0.33500000E+01           0.00000000E+00
   0.33600000E+01           0.00000000E+00
   0.33700000E+01           0.00000000E+00
   0.33800000E+01           0.00000000E+00
   0.33900000E+01           0.00000000E+00
   0.34000000E+01           0.00000000E+00
   0.34100000E+01           0.00000000E+00
   0.34200000E+01           0.00000000E+00
   0.34300000E+01           0.00000000E+00
   0.34400000E+01           0.00000000E+00
   0.34500000E+01           0.00000000E+00
   0.34600000E+01           0.00000000E+00
   0.34700000E+01           0.00000000E+00
   0.34800000E+01           0.00000000E+00
   0.34900000E+01           0.00000000E+00
   0.35000000E+01           0.00000000E+00
   0.35100000E+01           0.00000000E+00
   0.35200000E+01           0.00000000E+00
   0.35300000E+01           0.00000000E+00
   0.35400000E+01           0.00000000E+00
   0.35500000E+01           0.00000000E+00
   0.35600000E+01           0.00000000E+00
   0.35700000E+01           0.00000000E+00
   0.35800000E+01           0.00000000E+00
   0.35900000E+01           0.00000000E+00
   0.36000000E+01           0.00000000E+00
   0.36100000E+01           0.00000000E+00
   0.36200000E+01           0.00000000E+00
   0.36300000E+01           0.00000000E+00
   0.36400000E+01           0.00000000E+00
   0.36500000E+01           0.00000000E+00
   0.36600000E+01           0.00000000E+00
   0.36700000E+01           0.00000000E+00
   0.36800000E+01           0.00000000E+00
   0.36900000E+01           0.00000000E+00
   0.37000000E+01           0.00000000E+00
   0.37100000E+01           0.00000000E+00
   0.37200000E+01           0.00000000E+00
   0.37300000E+01           0.00000000E+00
   0.37400000E+01           0.00000000E+00
   0.37500000E+01           0.00000000E+00
   0.37600000E+01           0.00000000E+00
   0.37700000E+01           0.00000000E+00
   0.37800000E+01           0.00000000E+00
   0.37900000E+01           0.00000000E+00
   0.38000000E+01           0.00000000E+00
   0.38100000E+01           0.00000000E+00
   0.38200000E+01           0.00000000E+00
   0.38300000E+01           0.00000000E+00
   0.38400000E+01           0.00000000E+00
   0.38500000E+01           0.00000000E+00
   0.38600000E+01           0.00000000E+00
   0.38700000E+01           0.00000000E+00
   0.38800000E+01           0.00000000E+00
   0.38900000E+01           0.00000000E+00
   0.39000000E+01           0.00000000E+00
   0.39100000E+01           0.00000000E+00
   0.39200000E+01           0.00000000E+00
   0.39300000E+01           0.00000000E+00
   0.39400000E+01           0.00000000E+00
   0.39500000E+01           0.00000000E+00
   0.39600000E+01           0.00000000E+00
   0.39700000E+01           0.00000000E+00
   0.39800000E+01           0.00000000E+00
   0.39900000E+01           0.00000000E+00
   0.40000000E+01           0.00000000E+00
 #T=    26.0000
  -0.40000000E+01           0.00000000E+00
  -0.39900000E+01           0.00000000E+00
  -0.39800000E+01           0.00000000E+00
  -0.39700000E+01           0.00000000E+00
  -0.39600000E+01           0.00000000E+00
  -0.39500000E+01           0.00000000E+00
  -0.39400000E+01           0.00000000E+00
  -0.39300000E+01           0.00000000E+00
  -0.39200000E+01           0.00000000E+00
  -0.39100000E+01           0.00000000E+00
  -0.39000000E+01           0.00000000E+00
  -0.38900000E+01           0.00000000E+00
  -0.38800000E+01           0.00000000E+00
  -0.38700000E+01           0.00000000E+00
  -0.38600000E+01           0.00000000E+00
  -0.38500000E+01           0.00000000E+00
  -0.38400000E+01           0.00000000E+00
  -0.38300000E+01           0.00000000E+00
  -0.38200000E+01           0.00000000E+00
  -0.38100000E+01           0.00000000E+00
  -0.38000000E+01           0.00000000E+00
  -0.37900000E+01           0.00000000E+00
  -0.37800000E+01           0.00000000E+00
  -0.37700000E+01           0.00000000E+00
  -0.37600000E+01           0.00000000E+00
  -0.37500000E+01           0.00000000E+00
  -0.37400000E+01           0.00000000E+00
  -0.37300000E+01           0.00000000E+00
  -0.37200000E+01           0.00000000E+00
  -0.37100000E+01           0.00000000E+00
  -0.37000000E+01           0.00000000E+00
  -0.36900000E+01           0.00000000E+00
  -0.36800000E+01           0.00000000E+00
  -0.36700000E+01           0.00000000E+00
  -0.36600000E+01           0.00000000E+00
  -0.36500000E+01           0.00000000E+00
  -0.36400000E+01           0.00000000E+00
  -0.36300000E+01           0.00000000E+00
  -0.36200000E+01           0.00000000E+00
  -0.36100000E+01           0.00000000E+00
  -0.36000000E+01           0.00000000E+00
  -0.35900000E+01           0.00000000E+00
  -0.35800000E+01           0.00000000E+00
  -0.35700000E+01           0.00000000E+00
  -0.35600000E+01           0.00000000E+00
  -0.35500000E+01           0.00000000E+00
  -0.35400000E+01           0.00000000E+00
  -0.35300000E+01           0.00000000E+00
  -0.35200000E+01           0.00000000E+00
  -0.35100000E+01           0.00000000E+00
  -0.35000000E+01           0.00000000E+00
  -0.34900000E+01           0.00000000E+00
  -0.34800000E+01           0.00000000E+00
  -0.34700000E+01           0.00000000E+00
  -0.34600000E+01           0.00000000E+00
  -0.34500000E+01           0.00000000E+00
  -0.34400000E+01           0.00000000E+00
  -0.34300000E+01           0.00000000E+00
  -0.34200000E+01           0.00000000E+00
  -0.34100000E+01           0.00000000E+00
  -0.34000000E+01           0.00000000E+00
  -0.33900000E+01           0.00000000E+00
  -0.33800000E+01           0.00000000E+00
  -0.33700000E+01           0.00000000E+00
  -0.33600000E+01           0.00000000E+00
  -0.33500000E+01           0.00000000E+00
  -0.33400000E+01           0.00000000E+00
  -0.33300000E+01           0.00000000E+00
  -0.33200000E+01           0.00000000E+00
  -0.33100000E+01           0.00000000E+00
  -0.33000000E+01           0.00000000E+00
  -0.32900000E+01           0.00000000E+00
  -0.32800000E+01           0.00000000E+00
  -0.32700000E+01           0.00000000E+00
  -0.32600000E+01           0.00000000E+00
  -0.32500000E+01           0.00000000E+00
  -0.32400000E+01           0.00000000E+00
  -0.32300000E+01           0.00000000E+00
  -0.32200000E+01           0.00000000E+00
  -0.32100000E+01           0.00000000E+00
  -0.32000000E+01           0.00000000E+00
  -0.31900000E+01           0.00000000E+00
  -0.31800000E+01           0.00000000E+00
  -0.31700000E+01           0.00000000E+00
  -0.31600000E+01           0.00000000E+00
  -0.31500000E+01           0.00000000E+00
  -0.31400000E+01           0.00000000E+00
  -0.31300000E+01           0.00000000E+00
  -0.31200000E+01           0.00000000E+00
  -0.31100000E+01           0.00000000E+00
  -0.31000000E+01           0.00000000E+00
  -0.30900000E+01           0.00000000E+00
  -0.30800000E+01           0.00000000E+00
  -0.30700000E+01           0.00000000E+00
  -0.30600000E+01           0.00000000E+00
  -0.30500000E+01           0.00000000E+00
  -0.30400000E+01           0.00000000E+00
  -0.30300000E+01           0.00000000E+00
  -0.30200000E+01           0.00000000E+00
  -0.30100000E+01           0.00000000E+00
  -0.30000000E+01           0.00000000E+00
  -0.29900000E+01           0.00000000E+00
  -0.29800000E+01           0.00000000E+00
  -0.29700000E+01           0.00000000E+00
  -0.29600000E+01           0.00000000E+00
  -0.29500000E+01           0.00000000E+00
  -0.29400000E+01           0.00000000E+00
  -0.29300000E+01           0.00000000E+00
  -0.29200000E+01           0.00000000E+00
  -0.29100000E+01           0.00000000E+00
  -0.29000000E+01           0.00000000E+00
  -0.28900000E+01           0.00000000E+00
  -0.28800000E+01           0.00000000E+00
  -0.28700000E+01           0.00000000E+00
  -0.28600000E+01           0.00000000E+00
  -0.28500000E+01           0.00000000E+00
  -0.28400000E+01           0.00000000E+00
  -0.28300000E+01           0.00000000E+00
  -0.28200000E+01           0.00000000E+00
  -0.28100000E+01           0.00000000E+00
  -0.28000000E+01           0.00000000E+00
  -0.27900000E+01           0.00000000E+00
  -0.27800000E+01           0.00000000E+00
  -0.27700000E+01           0.00000000E+00
  -0.27600000E+01           0.00000000E+00
  -0.27500000E+01           0.00000000E+00
  -0.27400000E+01           0.00000000E+00
  -0.27300000E+01           0.00000000E+00
  -0.27200000E+01           0.00000000E+00
  -0.27100000E+01           0.00000000E+00
  -0.27000000E+01           0.00000000E+00
  -0.26900000E+01           0.00000000E+00
  -0.26800000E+01           0.00000000E+00
  -0.26700000E+01           0.00000000E+00
  -0.26600000E+01           0.00000000E+00
  -0.26500000E+01           0.00000000E+00
  -0.26400000E+01           0.00000000E+00
  -0.26300000E+01           0.00000000E+00
  -0.26200000E+01           0.00000000E+00
  -0.26100000E+01           0.00000000E+00
  -0.26000000E+01           0.00000000E+00
  -0.25900000E+01           0.00000000E+00
  -0.25800000E+01           0.00000000E+00
  -0.25700000E+01           0.00000000E+00
  -0.25600000E+01           0.00000000E+00
  -0.25500000E+01           0.00000000E+00
  -0.25400000E+01           0.00000000E+00
  -0.25300000E+01           0.00000000E+00
  -0.25200000E+01           0.00000000E+00
  -0.25100000E+01           0.00000000E+00
  -0.25000000E+01           0.00000000E+00
  -0.24900000E+01           0.00000000E+00
  -0.24800000E+01           0.00000000E+00
  -0.24700000E+01           0.00000000E+00
  -0.24600000E+01           0.00000000E+00
  -0.24500000E+01           0.00000000E+00
  -0.24400000E+01           0.00000000E+00
  -0.24300000E+01           0.00000000E+00
  -0.24200000E+01           0.00000000E+00
  -0.24100000E+01           0.00000000E+00
  -0.24000000E+01           0.00000000E+00
  -0.23900000E+01           0.00000000E+00
  -0.23800000E+01           0.00000000E+00
  -0.23700000E+01           0.00000000E+00
  -0.23600000E+01           0.00000000E+00
  -0.23500000E+01           0.00000000E+00
  -0.23400000E+01           0.00000000E+00
  -0.23300000E+01           0.00000000E+00
  -0.23200000E+01           0.00000000E+00
  -0.23100000E+01           0.00000000E+00
  -0.23000000E+01           0.00000000E+00
  -0.22900000E+01           0.00000000E+00
  -0.22800000E+01           0.00000000E+00
  -0.22700000E+01           0.00000000E+00
  -0.22600000E+01           0.00000000E+00
  -0.22500000E+01           0.00000000E+00
  -0.22400000E+01           0.00000000E+00
  -0.22300000E+01           0.00000000E+00
  -0.22200000E+01           0.00000000E+00
  -0.22100000E+01           0.00000000E+00
  -0.22000000E+01           0.00000000E+00
  -0.21900000E+01           0.00000000E+00
  -0.21800000E+01           0.00000000E+00
  -0.21700000E+01           0.00000000E+00
  -0.21600000E+01           0.00000000E+00
  -0.21500000E+01           0.00000000E+00
  -0.21400000E+01           0.00000000E+00
  -0.21300000E+01           0.00000000E+00
  -0.21200000E+01           0.00000000E+00
  -0.21100000E+01           0.00000000E+00
  -0.21000000E+01           0.00000000E+00
  -0.20900000E+01           0.00000000E+00
  -0.20800000E+01           0.00000000E+00
  -0.20700000E+01           0.00000000E+00
  -0.20600000E+01           0.00000000E+00
  -0.20500000E+01           0.00000000E+00
  -0.20400000E+01           0.00000000E+00
  -0.20300000E+01           0.00000000E+00
  -0.20200000E+01           0.00000000E+00
  -0.20100000E+01           0.00000000E+00
  -0.20000000E+01           0.00000000E+00
  -0.19900000E+01           0.00000000E+00
  -0.19800000E+01           0.00000000E+00
  -0.19700000E+01           0.00000000E+00
  -0.19600000E+01           0.00000000E+00
  -0.19500000E+01           0.00000000E+00
  -0.19400000E+01           0.00000000E+00
  -0.19300000E+01           0.00000000E+00
  -0.19200000E+01           0.00000000E+00
  -0.19100000E+01           0.00000000E+00
  -0.19000000E+01           0.00000000E+00
  -0.18900000E+01           0.00000000E+00
  -0.18800000E+01           0.00000000E+00
  -0.18700000E+01           0.00000000E+00
  -0.18600000E+01           0.00000000E+00
  -0.18500000E+01           0.00000000E+00
  -0.18400000E+01           0.00000000E+00
  -0.18300000E+01           0.00000000E+00
  -0.18200000E+01           0.00000000E+00
  -0.18100000E+01           0.00000000E+00
  -0.18000000E+01           0.00000000E+00
  -0.17900000E+01           0.00000000E+00
  -0.17800000E+01           0.00000000E+00
  -0.17700000E+01           0.00000000E+00
  -0.17600000E+01           0.00000000E+00
  -0.17500000E+01           0.00000000E+00
  -0.17400000E+01           0.00000000E+00
  -0.17300000E+01           0.00000000E+00
  -0.17200000E+01           0.00000000E+00
  -0.17100000E+01           0.00000000E+00
  -0.17000000E+01           0.00000000E+00
  -0.16900000E+01           0.00000000E+00
  -0.16800000E+01           0.00000000E+00
  -0.16700000E+01           0.00000000E+00
  -0.16600000E+01           0.00000000E+00
  -0.16500000E+01           0.00000000E+00
  -0.16400000E+01           0.00000000E+00
  -0.16300000E+01           0.00000000E+00
  -0.16200000E+01           0.00000000E+00
  -0.16100000E+01           0.00000000E+00
  -0.16000000E+01           0.00000000E+00
  -0.15900000E+01           0.00000000E+00
  -0.15800000E+01           0.00000000E+00
  -0.15700000E+01           0.00000000E+00
  -0.15600000E+01           0.00000000E+00
  -0.15500000E+01           0.00000000E+00
  -0.15400000E+01           0.00000000E+00
  -0.15300000E+01           0.00000000E+00
  -0.15200000E+01           0.00000000E+00
  -0.15100000E+01           0.00000000E+00
  -0.15000000E+01           0.00000000E+00
  -0.14900000E+01           0.00000000E+00
  -0.14800000E+01           0.00000000E+00
  -0.14700000E+01           0.00000000E+00
  -0.14600000E+01           0.00000000E+00
  -0.14500000E+01           0.00000000E+00
  -0.14400000E+01           0.00000000E+00
  -0.14300000E+01           0.00000000E+00
  -0.14200000E+01           0.00000000E+00
  -0.14100000E+01           0.00000000E+00
  -0.14000000E+01           0.00000000E+00
  -0.13900000E+01           0.00000000E+00
  -0.13800000E+01           0.00000000E+00
  -0.13700000E+01           0.00000000E+00
  -0.13600000E+01           0.00000000E+00
  -0.13500000E+01           0.00000000E+00
  -0.13400000E+01           0.00000000E+00
  -0.13300000E+01           0.00000000E+00
  -0.13200000E+01           0.00000000E+00
  -0.13100000E+01           0.00000000E+00
  -0.13000000E+01           0.00000000E+00
  -0.12900000E+01           0.00000000E+00
  -0.12800000E+01           0.00000000E+00
  -0.12700000E+01           0.00000000E+00
  -0.12600000E+01           0.00000000E+00
  -0.12500000E+01           0.00000000E+00
  -0.12400000E+01           0.00000000E+00
  -0.12300000E+01           0.00000000E+00
  -0.12200000E+01           0.00000000E+00
  -0.12100000E+01           0.00000000E+00
  -0.12000000E+01           0.00000000E+00
  -0.11900000E+01           0.00000000E+00
  -0.11800000E+01           0.00000000E+00
  -0.11700000E+01           0.00000000E+00
  -0.11600000E+01           0.00000000E+00
  -0.11500000E+01           0.00000000E+00
  -0.11400000E+01           0.00000000E+00
  -0.11300000E+01           0.00000000E+00
  -0.11200000E+01           0.00000000E+00
  -0.11100000E+01           0.00000000E+00
  -0.11000000E+01           0.00000000E+00
  -0.10900000E+01           0.00000000E+00
  -0.10800000E+01           0.00000000E+00
  -0.10700000E+01           0.00000000E+00
  -0.10600000E+01           0.00000000E+00
  -0.10500000E+01           0.00000000E+00
  -0.10400000E+01           0.00000000E+00
  -0.10300000E+01           0.00000000E+00
  -0.10200000E+01           0.00000000E+00
  -0.10100000E+01           0.00000000E+00
  -0.10000000E+01           0.00000000E+00
  -0.99000000E+00           0.00000000E+00
  -0.98000000E+00           0.00000000E+00
  -0.97000000E+00           0.00000000E+00
  -0.96000000E+00           0.00000000E+00
  -0.95000000E+00           0.00000000E+00
  -0.94000000E+00           0.00000000E+00
  -0.93000000E+00           0.00000000E+00
  -0.92000000E+00           0.00000000E+00
  -0.91000000E+00           0.00000000E+00
  -0.90000000E+00           0.00000000E+00
  -0.89000000E+00           0.00000000E+00
  -0.88000000E+00           0.00000000E+00
  -0.87000000E+00           0.00000000E+00
  -0.86000000E+00           0.00000000E+00
  -0.85000000E+00           0.00000000E+00
  -0.84000000E+00           0.00000000E+00
  -0.83000000E+00           0.00000000E+00
  -0.82000000E+00           0.00000000E+00
  -0.81000000E+00           0.00000000E+00
  -0.80000000E+00           0.00000000E+00
  -0.79000000E+00           0.00000000E+00
  -0.78000000E+00           0.00000000E+00
  -0.77000000E+00           0.00000000E+00
  -0.76000000E+00           0.00000000E+00
  -0.75000000E+00           0.00000000E+00
  -0.74000000E+00           0.00000000E+00
  -0.73000000E+00           0.00000000E+00
  -0.72000000E+00           0.00000000E+00
  -0.71000000E+00           0.00000000E+00
  -0.70000000E+00           0.00000000E+00
  -0.69000000E+00           0.00000000E+00
  -0.68000000E+00           0.00000000E+00
  -0.67000000E+00           0.00000000E+00
  -0.66000000E+00           0.00000000E+00
  -0.65000000E+00           0.00000000E+00
  -0.64000000E+00           0.00000000E+00
  -0.63000000E+00           0.00000000E+00
  -0.62000000E+00           0.00000000E+00
  -0.61000000E+00           0.00000000E+00
  -0.60000000E+00           0.00000000E+00
  -0.59000000E+00           0.00000000E+00
  -0.58000000E+00           0.00000000E+00
  -0.57000000E+00           0.00000000E+00
  -0.56000000E+00           0.00000000E+00
  -0.55000000E+00           0.00000000E+00
  -0.54000000E+00           0.00000000E+00
  -0.53000000E+00           0.00000000E+00
  -0.52000000E+00           0.00000000E+00
  -0.51000000E+00           0.00000000E+00
  -0.50000000E+00           0.00000000E+00
  -0.49000000E+00           0.00000000E+00
  -0.48000000E+00           0.00000000E+00
  -0.47000000E+00           0.00000000E+00
  -0.46000000E+00           0.00000000E+00
  -0.45000000E+00           0.00000000E+00
  -0.44000000E+00           0.00000000E+00
  -0.43000000E+00           0.00000000E+00
  -0.42000000E+00           0.00000000E+00
  -0.41000000E+00           0.00000000E+00
  -0.40000000E+00           0.00000000E+00
  -0.39000000E+00           0.00000000E+00
  -0.38000000E+00           0.00000000E+00
  -0.37000000E+00           0.00000000E+00
  -0.36000000E+00           0.00000000E+00
  -0.35000000E+00           0.00000000E+00
  -0.34000000E+00           0.00000000E+00
  -0.33000000E+00           0.00000000E+00
  -0.32000000E+00           0.00000000E+00
  -0.31000000E+00           0.00000000E+00
  -0.30000000E+00           0.00000000E+00
  -0.29000000E+00           0.00000000E+00
  -0.28000000E+00           0.00000000E+00
  -0.27000000E+00           0.00000000E+00
  -0.26000000E+00           0.00000000E+00
  -0.25000000E+00           0.00000000E+00
  -0.24000000E+00           0.00000000E+00
  -0.23000000E+00           0.00000000E+00
  -0.22000000E+00           0.00000000E+00
  -0.21000000E+00           0.00000000E+00
  -0.20000000E+00           0.00000000E+00
  -0.19000000E+00           0.00000000E+00
  -0.18000000E+00           0.00000000E+00
  -0.17000000E+00           0.00000000E+00
  -0.16000000E+00           0.00000000E+00
  -0.15000000E+00           0.00000000E+00
  -0.14000000E+00           0.00000000E+00
  -0.13000000E+00           0.00000000E+00
  -0.12000000E+00           0.00000000E+00
  -0.11000000E+00           0.00000000E+00
  -0.10000000E+00           0.00000000E+00
  -0.90000000E-01           0.00000000E+00
  -0.80000000E-01           0.00000000E+00
  -0.70000000E-01           0.00000000E+00
  -0.60000000E-01           0.00000000E+00
  -0.50000000E-01           0.00000000E+00
  -0.40000000E-01           0.00000000E+00
  -0.30000000E-01           0.00000000E+00
  -0.20000000E-01           0.00000000E+00
  -0.10000000E-01           0.00000000E+00
   0.00000000E+00           0.16092593E-03
   0.10000000E-01           0.41283333E-02
   0.20000000E-01           0.14714815E-01
   0.30000000E-01           0.31555000E-01
   0.40000000E-01           0.53124815E-01
   0.50000000E-01           0.79343333E-01
   0.60000000E-01           0.10954315E+00
   0.70000000E-01           0.14245593E+00
   0.80000000E-01           0.17800074E+00
   0.90000000E-01           0.21581278E+00
   0.10000000E+00           0.25503519E+00
   0.11000000E+00           0.29550148E+00
   0.12000000E+00           0.33695648E+00
   0.13000000E+00           0.37813667E+00
   0.14000000E+00           0.42145519E+00
   0.15000000E+00           0.46342204E+00
   0.16000000E+00           0.50602167E+00
   0.17000000E+00           0.54864481E+00
   0.18000000E+00           0.59106019E+00
   0.19000000E+00           0.63178056E+00
   0.20000000E+00           0.67086500E+00
   0.21000000E+00           0.71186537E+00
   0.22000000E+00           0.74975019E+00
   0.23000000E+00           0.78745315E+00
   0.24000000E+00           0.82414870E+00
   0.25000000E+00           0.85923278E+00
   0.26000000E+00           0.89264704E+00
   0.27000000E+00           0.92625000E+00
   0.28000000E+00           0.95763037E+00
   0.29000000E+00           0.98731333E+00
   0.30000000E+00           0.10156470E+01
   0.31000000E+00           0.10432328E+01
   0.32000000E+00           0.10702161E+01
   0.33000000E+00           0.10939076E+01
   0.34000000E+00           0.11178769E+01
   0.35000000E+00           0.11393048E+01
   0.36000000E+00           0.11590828E+01
   0.37000000E+00           0.11783770E+01
   0.38000000E+00           0.11954980E+01
   0.39000000E+00           0.12113244E+01
   0.40000000E+00           0.12260798E+01
   0.41000000E+00           0.12382348E+01
   0.42000000E+00           0.12489104E+01
   0.43000000E+00           0.12593078E+01
   0.44000000E+00           0.12686604E+01
   0.45000000E+00           0.12761569E+01
   0.46000000E+00           0.12818261E+01
   0.47000000E+00           0.12865906E+01
   0.48000000E+00           0.12896115E+01
   0.49000000E+00           0.12906796E+01
   0.50000000E+00           0.12936306E+01
   0.51000000E+00           0.12938604E+01
   0.52000000E+00           0.12925600E+01
   0.53000000E+00           0.12886220E+01
   0.54000000E+00           0.12859978E+01
   0.55000000E+00           0.12814341E+01
   0.56000000E+00           0.12767072E+01
   0.57000000E+00           0.12693967E+01
   0.58000000E+00           0.12623302E+01
   0.59000000E+00           0.12538102E+01
   0.60000000E+00           0.12436317E+01
   0.61000000E+00           0.12339506E+01
   0.62000000E+00           0.12218183E+01
   0.63000000E+00           0.12107465E+01
   0.64000000E+00           0.11980537E+01
   0.65000000E+00           0.11840707E+01
   0.66000000E+00           0.11702676E+01
   0.67000000E+00           0.11545615E+01
   0.68000000E+00           0.11405089E+01
   0.69000000E+00           0.11244122E+01
   0.70000000E+00           0.11083307E+01
   0.71000000E+00           0.10910761E+01
   0.72000000E+00           0.10747452E+01
   0.73000000E+00           0.10561446E+01
   0.74000000E+00           0.10388693E+01
   0.75000000E+00           0.10200831E+01
   0.76000000E+00           0.10010909E+01
   0.77000000E+00           0.98365074E+00
   0.78000000E+00           0.96283370E+00
   0.79000000E+00           0.94359648E+00
   0.80000000E+00           0.92477815E+00
   0.81000000E+00           0.90553037E+00
   0.82000000E+00           0.88580037E+00
   0.83000000E+00           0.86547204E+00
   0.84000000E+00           0.84513704E+00
   0.85000000E+00           0.82586259E+00
   0.86000000E+00           0.80574037E+00
   0.87000000E+00           0.78476759E+00
   0.88000000E+00           0.76657056E+00
   0.89000000E+00           0.74602648E+00
   0.90000000E+00           0.72738981E+00
   0.91000000E+00           0.70684093E+00
   0.92000000E+00           0.68784907E+00
   0.93000000E+00           0.66880630E+00
   0.94000000E+00           0.64908111E+00
   0.95000000E+00           0.62963519E+00
   0.96000000E+00           0.61097759E+00
   0.97000000E+00           0.59294241E+00
   0.98000000E+00           0.57413056E+00
   0.99000000E+00           0.55648370E+00
   0.10000000E+01           0.53864259E+00
   0.10100000E+01           0.52151056E+00
   0.10200000E+01           0.50366500E+00
   0.10300000E+01           0.48766333E+00
   0.10400000E+01           0.47114630E+00
   0.10500000E+01           0.45420722E+00
   0.10600000E+01           0.43851500E+00
   0.10700000E+01           0.42308611E+00
   0.10800000E+01           0.40772222E+00
   0.10900000E+01           0.39281241E+00
   0.11000000E+01           0.37797241E+00
   0.11100000E+01           0.36377611E+00
   0.11200000E+01           0.35020315E+00
   0.11300000E+01           0.33612130E+00
   0.11400000E+01           0.32368926E+00
   0.11500000E+01           0.31093667E+00
   0.11600000E+01           0.29863556E+00
   0.11700000E+01           0.28576093E+00
   0.11800000E+01           0.27411278E+00
   0.11900000E+01           0.26269630E+00
   0.12000000E+01           0.25146667E+00
   0.12100000E+01           0.24129259E+00
   0.12200000E+01           0.23021648E+00
   0.12300000E+01           0.22053907E+00
   0.12400000E+01           0.21066222E+00
   0.12500000E+01           0.20137759E+00
   0.12600000E+01           0.19251556E+00
   0.12700000E+01           0.18321852E+00
   0.12800000E+01           0.17471148E+00
   0.12900000E+01           0.16658370E+00
   0.13000000E+01           0.15904315E+00
   0.13100000E+01           0.15102074E+00
   0.13200000E+01           0.14415111E+00
   0.13300000E+01           0.13696056E+00
   0.13400000E+01           0.13008111E+00
   0.13500000E+01           0.12353704E+00
   0.13600000E+01           0.11755611E+00
   0.13700000E+01           0.11153796E+00
   0.13800000E+01           0.10609500E+00
   0.13900000E+01           0.10024741E+00
   0.14000000E+01           0.95495741E-01
   0.14100000E+01           0.89929259E-01
   0.14200000E+01           0.85164444E-01
   0.14300000E+01           0.80647037E-01
   0.14400000E+01           0.76172593E-01
   0.14500000E+01           0.71868704E-01
   0.14600000E+01           0.68010926E-01
   0.14700000E+01           0.64274444E-01
   0.14800000E+01           0.60680185E-01
   0.14900000E+01           0.57244259E-01
   0.15000000E+01           0.54152593E-01
   0.15100000E+01           0.50823333E-01
   0.15200000E+01           0.47882593E-01
   0.15300000E+01           0.45024630E-01
   0.15400000E+01           0.42382778E-01
   0.15500000E+01           0.40067593E-01
   0.15600000E+01           0.37448519E-01
   0.15700000E+01           0.35265556E-01
   0.15800000E+01           0.33053148E-01
   0.15900000E+01           0.31014630E-01
   0.16000000E+01           0.29147963E-01
   0.16100000E+01           0.27428889E-01
   0.16200000E+01           0.25631111E-01
   0.16300000E+01           0.23759074E-01
   0.16400000E+01           0.22494444E-01
   0.16500000E+01           0.20907963E-01
   0.16600000E+01           0.19587963E-01
   0.16700000E+01           0.18197037E-01
   0.16800000E+01           0.17104444E-01
   0.16900000E+01           0.15960185E-01
   0.17000000E+01           0.14868889E-01
   0.17100000E+01           0.13843704E-01
   0.17200000E+01           0.12916667E-01
   0.17300000E+01           0.12024074E-01
   0.17400000E+01           0.11256481E-01
   0.17500000E+01           0.10421852E-01
   0.17600000E+01           0.96462963E-02
   0.17700000E+01           0.90203704E-02
   0.17800000E+01           0.83527778E-02
   0.17900000E+01           0.77233333E-02
   0.18000000E+01           0.71431481E-02
   0.18100000E+01           0.67055556E-02
   0.18200000E+01           0.62009259E-02
   0.18300000E+01           0.57368519E-02
   0.18400000E+01           0.53150000E-02
   0.18500000E+01           0.49301852E-02
   0.18600000E+01           0.45348148E-02
   0.18700000E+01           0.42635185E-02
   0.18800000E+01           0.38938889E-02
   0.18900000E+01           0.35885185E-02
   0.19000000E+01           0.33222222E-02
   0.19100000E+01           0.30748148E-02
   0.19200000E+01           0.28248148E-02
   0.19300000E+01           0.26148148E-02
   0.19400000E+01           0.23979630E-02
   0.19500000E+01           0.22201852E-02
   0.19600000E+01           0.20114815E-02
   0.19700000E+01           0.18451852E-02
   0.19800000E+01           0.17035185E-02
   0.19900000E+01           0.15451852E-02
   0.20000000E+01           0.14529630E-02
   0.20100000E+01           0.13303704E-02
   0.20200000E+01           0.11944444E-02
   0.20300000E+01           0.11064815E-02
   0.20400000E+01           0.10112963E-02
   0.20500000E+01           0.91259259E-03
   0.20600000E+01           0.86000000E-03
   0.20700000E+01           0.78074074E-03
   0.20800000E+01           0.71314815E-03
   0.20900000E+01           0.63851852E-03
   0.21000000E+01           0.58574074E-03
   0.21100000E+01           0.54481481E-03
   0.21200000E+01           0.49166667E-03
   0.21300000E+01           0.46277778E-03
   0.21400000E+01           0.40666667E-03
   0.21500000E+01           0.36796296E-03
   0.21600000E+01           0.33240741E-03
   0.21700000E+01           0.29907407E-03
   0.21800000E+01           0.28129630E-03
   0.21900000E+01           0.25444444E-03
   0.22000000E+01           0.23592593E-03
   0.22100000E+01           0.20277778E-03
   0.22200000E+01           0.19444444E-03
   0.22300000E+01           0.16481481E-03
   0.22400000E+01           0.15851852E-03
   0.22500000E+01           0.14148148E-03
   0.22600000E+01           0.13240741E-03
   0.22700000E+01           0.11111111E-03
   0.22800000E+01           0.99814815E-04
   0.22900000E+01           0.98888889E-04
   0.23000000E+01           0.90740741E-04
   0.23100000E+01           0.76296296E-04
   0.23200000E+01           0.68333333E-04
   0.23300000E+01           0.67777778E-04
   0.23400000E+01           0.60000000E-04
   0.23500000E+01           0.48333333E-04
   0.23600000E+01           0.41111111E-04
   0.23700000E+01           0.39074074E-04
   0.23800000E+01           0.35740741E-04
   0.23900000E+01           0.36296296E-04
   0.24000000E+01           0.28888889E-04
   0.24100000E+01           0.22407407E-04
   0.24200000E+01           0.23333333E-04
   0.24300000E+01           0.23518519E-04
   0.24400000E+01           0.18518519E-04
   0.24500000E+01           0.14074074E-04
   0.24600000E+01           0.14629630E-04
   0.24700000E+01           0.13518519E-04
   0.24800000E+01           0.12037037E-04
   0.24900000E+01           0.98148148E-05
   0.25000000E+01           0.79629630E-05
   0.25100000E+01           0.88888889E-05
   0.25200000E+01           0.61111111E-05
   0.25300000E+01           0.77777778E-05
   0.25400000E+01           0.53703704E-05
   0.25500000E+01           0.38888889E-05
   0.25600000E+01           0.37037037E-05
   0.25700000E+01           0.38888889E-05
   0.25800000E+01           0.38888889E-05
   0.25900000E+01           0.35185185E-05
   0.26000000E+01           0.25925926E-05
   0.26100000E+01           0.25925926E-05
   0.26200000E+01           0.27777778E-05
   0.26300000E+01           0.14814815E-05
   0.26400000E+01           0.22222222E-05
   0.26500000E+01           0.20370370E-05
   0.26600000E+01           0.11111111E-05
   0.26700000E+01           0.55555556E-06
   0.26800000E+01           0.14814815E-05
   0.26900000E+01           0.12962963E-05
   0.27000000E+01           0.12962963E-05
   0.27100000E+01           0.11111111E-05
   0.27200000E+01           0.92592593E-06
   0.27300000E+01           0.18518519E-06
   0.27400000E+01           0.37037037E-06
   0.27500000E+01           0.00000000E+00
   0.27600000E+01           0.55555556E-06
   0.27700000E+01           0.00000000E+00
   0.27800000E+01           0.00000000E+00
   0.27900000E+01           0.18518519E-06
   0.28000000E+01           0.18518519E-06
   0.28100000E+01           0.37037037E-06
   0.28200000E+01           0.92592593E-06
   0.28300000E+01           0.18518519E-06
   0.28400000E+01           0.00000000E+00
   0.28500000E+01           0.00000000E+00
   0.28600000E+01           0.18518519E-06
   0.28700000E+01           0.00000000E+00
   0.28800000E+01           0.00000000E+00
   0.28900000E+01           0.74074074E-06
   0.29000000E+01           0.00000000E+00
   0.29100000E+01           0.00000000E+00
   0.29200000E+01           0.00000000E+00
   0.29300000E+01           0.00000000E+00
   0.29400000E+01           0.00000000E+00
   0.29500000E+01           0.18518519E-06
   0.29600000E+01           0.00000000E+00
   0.29700000E+01           0.00000000E+00
   0.29800000E+01           0.00000000E+00
   0.29900000E+01           0.00000000E+00
   0.30000000E+01           0.00000000E+00
   0.30100000E+01           0.00000000E+00
   0.30200000E+01           0.00000000E+00
   0.30300000E+01           0.00000000E+00
   0.30400000E+01           0.00000000E+00
   0.30500000E+01           0.00000000E+00
   0.30600000E+01           0.00000000E+00
   0.30700000E+01           0.00000000E+00
   0.30800000E+01           0.00000000E+00
   0.30900000E+01           0.00000000E+00
   0.31000000E+01           0.00000000E+00
   0.31100000E+01           0.00000000E+00
   0.31200000E+01           0.00000000E+00
   0.31300000E+01           0.00000000E+00
   0.31400000E+01           0.00000000E+00
   0.31500000E+01           0.00000000E+00
   0.31600000E+01           0.00000000E+00
   0.31700000E+01           0.00000000E+00
   0.31800000E+01           0.00000000E+00
   0.31900000E+01           0.00000000E+00
   0.32000000E+01           0.00000000E+00
   0.32100000E+01           0.00000000E+00
   0.32200000E+01           0.00000000E+00
   0.32300000E+01           0.00000000E+00
   0.32400000E+01           0.00000000E+00
   0.32500000E+01           0.00000000E+00
   0.32600000E+01           0.00000000E+00
   0.32700000E+01           0.00000000E+00
   0.32800000E+01           0.00000000E+00
   0.32900000E+01           0.00000000E+00
   0.33000000E+01           0.00000000E+00
   0.33100000E+01           0.00000000E+00
   0.33200000E+01           0.00000000E+00
   0.33300000E+01           0.00000000E+00
   0.33400000E+01           0.00000000E+00
   0.33500000E+01           0.00000000E+00
   0.33600000E+01           0.00000000E+00
   0.33700000E+01           0.00000000E+00
   0.33800000E+01           0.00000000E+00
   0.33900000E+01           0.00000000E+00
   0.34000000E+01           0.00000000E+00
   0.34100000E+01           0.00000000E+00
   0.34200000E+01           0.00000000E+00
   0.34300000E+01           0.00000000E+00
   0.34400000E+01           0.00000000E+00
   0.34500000E+01           0.00000000E+00
   0.34600000E+01           0.00000000E+00
   0.34700000E+01           0.00000000E+00
   0.34800000E+01           0.00000000E+00
   0.34900000E+01           0.00000000E+00
   0.35000000E+01           0.00000000E+00
   0.35100000E+01           0.00000000E+00
   0.35200000E+01           0.00000000E+00
   0.35300000E+01           0.00000000E+00
   0.35400000E+01           0.00000000E+00
   0.35500000E+01           0.00000000E+00
   0.35600000E+01           0.00000000E+00
   0.35700000E+01           0.00000000E+00
   0.35800000E+01           0.00000000E+00
   0.35900000E+01           0.00000000E+00
   0.36000000E+01           0.00000000E+00
   0.36100000E+01           0.00000000E+00
   0.36200000E+01           0.00000000E+00
   0.36300000E+01           0.00000000E+00
   0.36400000E+01           0.00000000E+00
   0.36500000E+01           0.00000000E+00
   0.36600000E+01           0.00000000E+00
   0.36700000E+01           0.00000000E+00
   0.36800000E+01           0.00000000E+00
   0.36900000E+01           0.00000000E+00
   0.37000000E+01           0.00000000E+00
   0.37100000E+01           0.00000000E+00
   0.37200000E+01           0.00000000E+00
   0.37300000E+01           0.00000000E+00
   0.37400000E+01           0.00000000E+00
   0.37500000E+01           0.00000000E+00
   0.37600000E+01           0.00000000E+00
   0.37700000E+01           0.00000000E+00
   0.37800000E+01           0.00000000E+00
   0.37900000E+01           0.00000000E+00
   0.38000000E+01           0.00000000E+00
   0.38100000E+01           0.00000000E+00
   0.38200000E+01           0.00000000E+00
   0.38300000E+01           0.00000000E+00
   0.38400000E+01           0.00000000E+00
   0.38500000E+01           0.00000000E+00
   0.38600000E+01           0.00000000E+00
   0.38700000E+01           0.00000000E+00
   0.38800000E+01           0.00000000E+00
   0.38900000E+01           0.00000000E+00
   0.39000000E+01           0.00000000E+00
   0.39100000E+01           0.00000000E+00
   0.39200000E+01           0.00000000E+00
   0.39300000E+01           0.00000000E+00
   0.39400000E+01           0.00000000E+00
   0.39500000E+01           0.00000000E+00
   0.39600000E+01           0.00000000E+00
   0.39700000E+01           0.00000000E+00
   0.39800000E+01           0.00000000E+00
   0.39900000E+01           0.00000000E+00
   0.40000000E+01           0.00000000E+00
 #T=    27.0000
  -0.40000000E+01           0.00000000E+00
  -0.39900000E+01           0.00000000E+00
  -0.39800000E+01           0.00000000E+00
  -0.39700000E+01           0.00000000E+00
  -0.39600000E+01           0.00000000E+00
  -0.39500000E+01           0.00000000E+00
  -0.39400000E+01           0.00000000E+00
  -0.39300000E+01           0.00000000E+00
  -0.39200000E+01           0.00000000E+00
  -0.39100000E+01           0.00000000E+00
  -0.39000000E+01           0.00000000E+00
  -0.38900000E+01           0.00000000E+00
  -0.38800000E+01           0.00000000E+00
  -0.38700000E+01           0.00000000E+00
  -0.38600000E+01           0.00000000E+00
  -0.38500000E+01           0.00000000E+00
  -0.38400000E+01           0.00000000E+00
  -0.38300000E+01           0.00000000E+00
  -0.38200000E+01           0.00000000E+00
  -0.38100000E+01           0.00000000E+00
  -0.38000000E+01           0.00000000E+00
  -0.37900000E+01           0.00000000E+00
  -0.37800000E+01           0.00000000E+00
  -0.37700000E+01           0.00000000E+00
  -0.37600000E+01           0.00000000E+00
  -0.37500000E+01           0.00000000E+00
  -0.37400000E+01           0.00000000E+00
  -0.37300000E+01           0.00000000E+00
  -0.37200000E+01           0.00000000E+00
  -0.37100000E+01           0.00000000E+00
  -0.37000000E+01           0.00000000E+00
  -0.36900000E+01           0.00000000E+00
  -0.36800000E+01           0.00000000E+00
  -0.36700000E+01           0.00000000E+00
  -0.36600000E+01           0.00000000E+00
  -0.36500000E+01           0.00000000E+00
  -0.36400000E+01           0.00000000E+00
  -0.36300000E+01           0.00000000E+00
  -0.36200000E+01           0.00000000E+00
  -0.36100000E+01           0.00000000E+00
  -0.36000000E+01           0.00000000E+00
  -0.35900000E+01           0.00000000E+00
  -0.35800000E+01           0.00000000E+00
  -0.35700000E+01           0.00000000E+00
  -0.35600000E+01           0.00000000E+00
  -0.35500000E+01           0.00000000E+00
  -0.35400000E+01           0.00000000E+00
  -0.35300000E+01           0.00000000E+00
  -0.35200000E+01           0.00000000E+00
  -0.35100000E+01           0.00000000E+00
  -0.35000000E+01           0.00000000E+00
  -0.34900000E+01           0.00000000E+00
  -0.34800000E+01           0.00000000E+00
  -0.34700000E+01           0.00000000E+00
  -0.34600000E+01           0.00000000E+00
  -0.34500000E+01           0.00000000E+00
  -0.34400000E+01           0.00000000E+00
  -0.34300000E+01           0.00000000E+00
  -0.34200000E+01           0.00000000E+00
  -0.34100000E+01           0.00000000E+00
  -0.34000000E+01           0.00000000E+00
  -0.33900000E+01           0.00000000E+00
  -0.33800000E+01           0.00000000E+00
  -0.33700000E+01           0.00000000E+00
  -0.33600000E+01           0.00000000E+00
  -0.33500000E+01           0.00000000E+00
  -0.33400000E+01           0.00000000E+00
  -0.33300000E+01           0.00000000E+00
  -0.33200000E+01           0.00000000E+00
  -0.33100000E+01           0.00000000E+00
  -0.33000000E+01           0.00000000E+00
  -0.32900000E+01           0.00000000E+00
  -0.32800000E+01           0.00000000E+00
  -0.32700000E+01           0.00000000E+00
  -0.32600000E+01           0.00000000E+00
  -0.32500000E+01           0.00000000E+00
  -0.32400000E+01           0.00000000E+00
  -0.32300000E+01           0.00000000E+00
  -0.32200000E+01           0.00000000E+00
  -0.32100000E+01           0.00000000E+00
  -0.32000000E+01           0.00000000E+00
  -0.31900000E+01           0.00000000E+00
  -0.31800000E+01           0.00000000E+00
  -0.31700000E+01           0.00000000E+00
  -0.31600000E+01           0.00000000E+00
  -0.31500000E+01           0.00000000E+00
  -0.31400000E+01           0.00000000E+00
  -0.31300000E+01           0.00000000E+00
  -0.31200000E+01           0.00000000E+00
  -0.31100000E+01           0.00000000E+00
  -0.31000000E+01           0.00000000E+00
  -0.30900000E+01           0.00000000E+00
  -0.30800000E+01           0.00000000E+00
  -0.30700000E+01           0.00000000E+00
  -0.30600000E+01           0.00000000E+00
  -0.30500000E+01           0.00000000E+00
  -0.30400000E+01           0.00000000E+00
  -0.30300000E+01           0.00000000E+00
  -0.30200000E+01           0.00000000E+00
  -0.30100000E+01           0.00000000E+00
  -0.30000000E+01           0.00000000E+00
  -0.29900000E+01           0.00000000E+00
  -0.29800000E+01           0.00000000E+00
  -0.29700000E+01           0.00000000E+00
  -0.29600000E+01           0.00000000E+00
  -0.29500000E+01           0.00000000E+00
  -0.29400000E+01           0.00000000E+00
  -0.29300000E+01           0.00000000E+00
  -0.29200000E+01           0.00000000E+00
  -0.29100000E+01           0.00000000E+00
  -0.29000000E+01           0.00000000E+00
  -0.28900000E+01           0.00000000E+00
  -0.28800000E+01           0.00000000E+00
  -0.28700000E+01           0.00000000E+00
  -0.28600000E+01           0.00000000E+00
  -0.28500000E+01           0.00000000E+00
  -0.28400000E+01           0.00000000E+00
  -0.28300000E+01           0.00000000E+00
  -0.28200000E+01           0.00000000E+00
  -0.28100000E+01           0.00000000E+00
  -0.28000000E+01           0.00000000E+00
  -0.27900000E+01           0.00000000E+00
  -0.27800000E+01           0.00000000E+00
  -0.27700000E+01           0.00000000E+00
  -0.27600000E+01           0.00000000E+00
  -0.27500000E+01           0.00000000E+00
  -0.27400000E+01           0.00000000E+00
  -0.27300000E+01           0.00000000E+00
  -0.27200000E+01           0.00000000E+00
  -0.27100000E+01           0.00000000E+00
  -0.27000000E+01           0.00000000E+00
  -0.26900000E+01           0.00000000E+00
  -0.26800000E+01           0.00000000E+00
  -0.26700000E+01           0.00000000E+00
  -0.26600000E+01           0.00000000E+00
  -0.26500000E+01           0.00000000E+00
  -0.26400000E+01           0.00000000E+00
  -0.26300000E+01           0.00000000E+00
  -0.26200000E+01           0.00000000E+00
  -0.26100000E+01           0.00000000E+00
  -0.26000000E+01           0.00000000E+00
  -0.25900000E+01           0.00000000E+00
  -0.25800000E+01           0.00000000E+00
  -0.25700000E+01           0.00000000E+00
  -0.25600000E+01           0.00000000E+00
  -0.25500000E+01           0.00000000E+00
  -0.25400000E+01           0.00000000E+00
  -0.25300000E+01           0.00000000E+00
  -0.25200000E+01           0.00000000E+00
  -0.25100000E+01           0.00000000E+00
  -0.25000000E+01           0.00000000E+00
  -0.24900000E+01           0.00000000E+00
  -0.24800000E+01           0.00000000E+00
  -0.24700000E+01           0.00000000E+00
  -0.24600000E+01           0.00000000E+00
  -0.24500000E+01           0.00000000E+00
  -0.24400000E+01           0.00000000E+00
  -0.24300000E+01           0.00000000E+00
  -0.24200000E+01           0.00000000E+00
  -0.24100000E+01           0.00000000E+00
  -0.24000000E+01           0.00000000E+00
  -0.23900000E+01           0.00000000E+00
  -0.23800000E+01           0.00000000E+00
  -0.23700000E+01           0.00000000E+00
  -0.23600000E+01           0.00000000E+00
  -0.23500000E+01           0.00000000E+00
  -0.23400000E+01           0.00000000E+00
  -0.23300000E+01           0.00000000E+00
  -0.23200000E+01           0.00000000E+00
  -0.23100000E+01           0.00000000E+00
  -0.23000000E+01           0.00000000E+00
  -0.22900000E+01           0.00000000E+00
  -0.22800000E+01           0.00000000E+00
  -0.22700000E+01           0.00000000E+00
  -0.22600000E+01           0.00000000E+00
  -0.22500000E+01           0.00000000E+00
  -0.22400000E+01           0.00000000E+00
  -0.22300000E+01           0.00000000E+00
  -0.22200000E+01           0.00000000E+00
  -0.22100000E+01           0.00000000E+00
  -0.22000000E+01           0.00000000E+00
  -0.21900000E+01           0.00000000E+00
  -0.21800000E+01           0.00000000E+00
  -0.21700000E+01           0.00000000E+00
  -0.21600000E+01           0.00000000E+00
  -0.21500000E+01           0.00000000E+00
  -0.21400000E+01           0.00000000E+00
  -0.21300000E+01           0.00000000E+00
  -0.21200000E+01           0.00000000E+00
  -0.21100000E+01           0.00000000E+00
  -0.21000000E+01           0.00000000E+00
  -0.20900000E+01           0.00000000E+00
  -0.20800000E+01           0.00000000E+00
  -0.20700000E+01           0.00000000E+00
  -0.20600000E+01           0.00000000E+00
  -0.20500000E+01           0.00000000E+00
  -0.20400000E+01           0.00000000E+00
  -0.20300000E+01           0.00000000E+00
  -0.20200000E+01           0.00000000E+00
  -0.20100000E+01           0.00000000E+00
  -0.20000000E+01           0.00000000E+00
  -0.19900000E+01           0.00000000E+00
  -0.19800000E+01           0.00000000E+00
  -0.19700000E+01           0.00000000E+00
  -0.19600000E+01           0.00000000E+00
  -0.19500000E+01           0.00000000E+00
  -0.19400000E+01           0.00000000E+00
  -0.19300000E+01           0.00000000E+00
  -0.19200000E+01           0.00000000E+00
  -0.19100000E+01           0.00000000E+00
  -0.19000000E+01           0.00000000E+00
  -0.18900000E+01           0.00000000E+00
  -0.18800000E+01           0.00000000E+00
  -0.18700000E+01           0.00000000E+00
  -0.18600000E+01           0.00000000E+00
  -0.18500000E+01           0.00000000E+00
  -0.18400000E+01           0.00000000E+00
  -0.18300000E+01           0.00000000E+00
  -0.18200000E+01           0.00000000E+00
  -0.18100000E+01           0.00000000E+00
  -0.18000000E+01           0.00000000E+00
  -0.17900000E+01           0.00000000E+00
  -0.17800000E+01           0.00000000E+00
  -0.17700000E+01           0.00000000E+00
  -0.17600000E+01           0.00000000E+00
  -0.17500000E+01           0.00000000E+00
  -0.17400000E+01           0.00000000E+00
  -0.17300000E+01           0.00000000E+00
  -0.17200000E+01           0.00000000E+00
  -0.17100000E+01           0.00000000E+00
  -0.17000000E+01           0.00000000E+00
  -0.16900000E+01           0.00000000E+00
  -0.16800000E+01           0.00000000E+00
  -0.16700000E+01           0.00000000E+00
  -0.16600000E+01           0.00000000E+00
  -0.16500000E+01           0.00000000E+00
  -0.16400000E+01           0.00000000E+00
  -0.16300000E+01           0.00000000E+00
  -0.16200000E+01           0.00000000E+00
  -0.16100000E+01           0.00000000E+00
  -0.16000000E+01           0.00000000E+00
  -0.15900000E+01           0.00000000E+00
  -0.15800000E+01           0.00000000E+00
  -0.15700000E+01           0.00000000E+00
  -0.15600000E+01           0.00000000E+00
  -0.15500000E+01           0.00000000E+00
  -0.15400000E+01           0.00000000E+00
  -0.15300000E+01           0.00000000E+00
  -0.15200000E+01           0.00000000E+00
  -0.15100000E+01           0.00000000E+00
  -0.15000000E+01           0.00000000E+00
  -0.14900000E+01           0.00000000E+00
[...]
  -0.64000000E+00           0.00000000E+00
  -0.63000000E+00           0.00000000E+00
  -0.62000000E+00           0.00000000E+00
  -0.61000000E+00           0.00000000E+00
  -0.60000000E+00           0.00000000E+00
  -0.59000000E+00           0.00000000E+00
  -0.58000000E+00           0.00000000E+00
  -0.57000000E+00           0.00000000E+00
  -0.56000000E+00           0.00000000E+00
  -0.55000000E+00           0.00000000E+00
  -0.54000000E+00           0.00000000E+00
  -0.53000000E+00           0.00000000E+00
  -0.52000000E+00           0.00000000E+00
  -0.51000000E+00           0.00000000E+00
  -0.50000000E+00           0.00000000E+00
  -0.49000000E+00           0.00000000E+00
  -0.48000000E+00           0.00000000E+00
  -0.47000000E+00           0.00000000E+00
  -0.46000000E+00           0.00000000E+00
  -0.45000000E+00           0.00000000E+00
  -0.44000000E+00           0.00000000E+00
  -0.43000000E+00           0.00000000E+00
  -0.42000000E+00           0.00000000E+00
  -0.41000000E+00           0.00000000E+00
  -0.40000000E+00           0.00000000E+00
  -0.39000000E+00           0.00000000E+00
  -0.38000000E+00           0.00000000E+00
  -0.37000000E+00           0.00000000E+00
  -0.36000000E+00           0.00000000E+00
  -0.35000000E+00           0.00000000E+00
  -0.34000000E+00           0.00000000E+00
  -0.33000000E+00           0.00000000E+00
  -0.32000000E+00           0.00000000E+00
  -0.31000000E+00           0.00000000E+00
  -0.30000000E+00           0.00000000E+00
  -0.29000000E+00           0.00000000E+00
  -0.28000000E+00           0.00000000E+00
  -0.27000000E+00           0.00000000E+00
  -0.26000000E+00           0.00000000E+00
  -0.25000000E+00           0.00000000E+00
  -0.24000000E+00           0.00000000E+00
  -0.23000000E+00           0.00000000E+00
  -0.22000000E+00           0.00000000E+00
  -0.21000000E+00           0.00000000E+00
  -0.20000000E+00           0.00000000E+00
  -0.19000000E+00           0.00000000E+00
  -0.18000000E+00           0.00000000E+00
  -0.17000000E+00           0.00000000E+00
  -0.16000000E+00           0.00000000E+00
  -0.15000000E+00           0.00000000E+00
  -0.14000000E+00           0.00000000E+00
  -0.13000000E+00           0.00000000E+00
  -0.12000000E+00           0.00000000E+00
  -0.11000000E+00           0.00000000E+00
  -0.10000000E+00           0.00000000E+00
  -0.90000000E-01           0.00000000E+00
  -0.80000000E-01           0.00000000E+00
  -0.70000000E-01           0.00000000E+00
  -0.60000000E-01           0.00000000E+00
  -0.50000000E-01           0.00000000E+00
  -0.40000000E-01           0.00000000E+00
  -0.30000000E-01           0.00000000E+00
  -0.20000000E-01           0.00000000E+00
  -0.10000000E-01           0.00000000E+00
   0.00000000E+00           0.10740741E-04
   0.10000000E-01           0.26388889E-03
   0.20000000E-01           0.94166667E-03
   0.30000000E-01           0.21346296E-02
   0.40000000E-01           0.37035185E-02
   0.50000000E-01           0.57064815E-02
   0.60000000E-01           0.81770370E-02
   0.70000000E-01           0.10998704E-01
   0.80000000E-01           0.14201481E-01
   0.90000000E-01           0.17889815E-01
   0.10000000E+00           0.21712593E-01
   0.11000000E+00           0.26205556E-01
   0.12000000E+00           0.30688333E-01
   0.13000000E+00           0.35752963E-01
   0.14000000E+00           0.40968889E-01
   0.15000000E+00           0.46569444E-01
   0.16000000E+00           0.52492407E-01
   0.17000000E+00           0.58630926E-01
   0.18000000E+00           0.65145000E-01
   0.19000000E+00           0.71750556E-01
   0.20000000E+00           0.78934444E-01
   0.21000000E+00           0.86191852E-01
   0.22000000E+00           0.93101296E-01
   0.23000000E+00           0.10065907E+00
   0.24000000E+00           0.10859407E+00
   0.25000000E+00           0.11664000E+00
   0.26000000E+00           0.12460685E+00
   0.27000000E+00           0.13307778E+00
   0.28000000E+00           0.14139241E+00
   0.29000000E+00           0.15013870E+00
   0.30000000E+00           0.15894704E+00
   0.31000000E+00           0.16765741E+00
   0.32000000E+00           0.17657019E+00
   0.33000000E+00           0.18593537E+00
   0.34000000E+00           0.19505019E+00
   0.35000000E+00           0.20431741E+00
   0.36000000E+00           0.21421278E+00
   0.37000000E+00           0.22334130E+00
   0.38000000E+00           0.23259167E+00
   0.39000000E+00           0.24210241E+00
   0.40000000E+00           0.25187963E+00
   0.41000000E+00           0.26217352E+00
   0.42000000E+00           0.27143167E+00
   0.43000000E+00           0.28135574E+00
   0.44000000E+00           0.29048389E+00
   0.45000000E+00           0.30060537E+00
   0.46000000E+00           0.31000500E+00
   0.47000000E+00           0.31972796E+00
   0.48000000E+00           0.32997870E+00
   0.49000000E+00           0.33916500E+00
   0.50000000E+00           0.34887611E+00
   0.51000000E+00           0.35821741E+00
   0.52000000E+00           0.36779704E+00
   0.53000000E+00           0.37737407E+00
   0.54000000E+00           0.38723796E+00
   0.55000000E+00           0.39629593E+00
   0.56000000E+00           0.40588611E+00
   0.57000000E+00           0.41447315E+00
   0.58000000E+00           0.42363093E+00
   0.59000000E+00           0.43314926E+00
   0.60000000E+00           0.44222259E+00
   0.61000000E+00           0.45071759E+00
   0.62000000E+00           0.45961944E+00
   0.63000000E+00           0.46783315E+00
   0.64000000E+00           0.47619352E+00
   0.65000000E+00           0.48526907E+00
   0.66000000E+00           0.49304593E+00
   0.67000000E+00           0.50205019E+00
   0.68000000E+00           0.51006167E+00
   0.69000000E+00           0.51733352E+00
   0.70000000E+00           0.52512481E+00
   0.71000000E+00           0.53319963E+00
   0.72000000E+00           0.54094870E+00
   0.73000000E+00           0.54800778E+00
   0.74000000E+00           0.55569889E+00
   0.75000000E+00           0.56176648E+00
   0.76000000E+00           0.56898722E+00
   0.77000000E+00           0.57624815E+00
   0.78000000E+00           0.58251537E+00
   0.79000000E+00           0.58917815E+00
   0.80000000E+00           0.59477870E+00
   0.81000000E+00           0.60071926E+00
   0.82000000E+00           0.60679481E+00
   0.83000000E+00           0.61212019E+00
   0.84000000E+00           0.61832111E+00
   0.85000000E+00           0.62351889E+00
   0.86000000E+00           0.62821222E+00
   0.87000000E+00           0.63340333E+00
   0.88000000E+00           0.63894593E+00
   0.89000000E+00           0.64305722E+00
   0.90000000E+00           0.64699074E+00
   0.91000000E+00           0.65144463E+00
   0.92000000E+00           0.65535352E+00
   0.93000000E+00           0.65909426E+00
   0.94000000E+00           0.66264130E+00
   0.95000000E+00           0.66647556E+00
   0.96000000E+00           0.66977204E+00
   0.97000000E+00           0.67301259E+00
   0.98000000E+00           0.67560315E+00
   0.99000000E+00           0.67794519E+00
   0.10000000E+01           0.68063593E+00
   0.10100000E+01           0.68259500E+00
   0.10200000E+01           0.68497685E+00
   0.10300000E+01           0.68821907E+00
   0.10400000E+01           0.68843611E+00
   0.10500000E+01           0.69076796E+00
   0.10600000E+01           0.69132241E+00
   0.10700000E+01           0.69289241E+00
   0.10800000E+01           0.69369389E+00
   0.10900000E+01           0.69550315E+00
   0.11000000E+01           0.69567222E+00
   0.11100000E+01           0.69650185E+00
   0.11200000E+01           0.69636167E+00
   0.11300000E+01           0.69706722E+00
   0.11400000E+01           0.69635815E+00
   0.11500000E+01           0.69605167E+00
   0.11600000E+01           0.69494722E+00
   0.11700000E+01           0.69530056E+00
   0.11800000E+01           0.69408037E+00
   0.11900000E+01           0.69284907E+00
   0.12000000E+01           0.69249852E+00
   0.12100000E+01           0.69111093E+00
   0.12200000E+01           0.69002981E+00
   0.12300000E+01           0.68775130E+00
   0.12400000E+01           0.68666037E+00
   0.12500000E+01           0.68471407E+00
   0.12600000E+01           0.68138667E+00
   0.12700000E+01           0.67947185E+00
   0.12800000E+01           0.67777981E+00
   0.12900000E+01           0.67406167E+00
   0.13000000E+01           0.67161130E+00
   0.13100000E+01           0.66908667E+00
   0.13200000E+01           0.66543259E+00
   0.13300000E+01           0.66326833E+00
   0.13400000E+01           0.65987630E+00
   0.13500000E+01           0.65621389E+00
   0.13600000E+01           0.65316000E+00
   0.13700000E+01           0.64905500E+00
   0.13800000E+01           0.64502407E+00
   0.13900000E+01           0.64176815E+00
   0.14000000E+01           0.63743259E+00
   0.14100000E+01           0.63338444E+00
   0.14200000E+01           0.62967333E+00
   0.14300000E+01           0.62487259E+00
   0.14400000E+01           0.62023870E+00
   0.14500000E+01           0.61577296E+00
   0.14600000E+01           0.61111722E+00
   0.14700000E+01           0.60697537E+00
   0.14800000E+01           0.60171426E+00
   0.14900000E+01           0.59673278E+00
   0.15000000E+01           0.59239056E+00
   0.15100000E+01           0.58620741E+00
   0.15200000E+01           0.58123648E+00
   0.15300000E+01           0.57541259E+00
   0.15400000E+01           0.57029833E+00
   0.15500000E+01           0.56488537E+00
   0.15600000E+01           0.55954833E+00
   0.15700000E+01           0.55392519E+00
   0.15800000E+01           0.54902463E+00
   0.15900000E+01           0.54233889E+00
   0.16000000E+01           0.53638352E+00
   0.16100000E+01           0.53112722E+00
   0.16200000E+01           0.52460426E+00
   0.16300000E+01           0.51940852E+00
   0.16400000E+01           0.51334389E+00
   0.16500000E+01           0.50730000E+00
   0.16600000E+01           0.50098667E+00
   0.16700000E+01           0.49512981E+00
   0.16800000E+01           0.48824056E+00
   0.16900000E+01           0.48187278E+00
   0.17000000E+01           0.47627093E+00
   0.17100000E+01           0.46999611E+00
   0.17200000E+01           0.46380833E+00
   0.17300000E+01           0.45705278E+00
   0.17400000E+01           0.45112056E+00
   0.17500000E+01           0.44431778E+00
   0.17600000E+01           0.43762907E+00
   0.17700000E+01           0.43149278E+00
   0.17800000E+01           0.42527481E+00
   0.17900000E+01           0.41859759E+00
   0.18000000E+01           0.41178722E+00
   0.18100000E+01           0.40540630E+00
   0.18200000E+01           0.39972370E+00
   0.18300000E+01           0.39252315E+00
   0.18400000E+01           0.38601685E+00
   0.18500000E+01           0.38030611E+00
   0.18600000E+01           0.37359556E+00
   0.18700000E+01           0.36696222E+00
   0.18800000E+01           0.35996685E+00
   0.18900000E+01           0.35379296E+00
   0.19000000E+01           0.34809648E+00
   0.19100000E+01           0.34137889E+00
   0.19200000E+01           0.33478056E+00
   0.19300000E+01           0.32867907E+00
   0.19400000E+01           0.32223667E+00
   0.19500000E+01           0.31544759E+00
   0.19600000E+01           0.30929444E+00
   0.19700000E+01           0.30338333E+00
   0.19800000E+01           0.29678778E+00
   0.19900000E+01           0.29082630E+00
   0.20000000E+01           0.28463815E+00
   0.20100000E+01           0.27832963E+00
   0.20200000E+01           0.27253352E+00
   0.20300000E+01           0.26610130E+00
   0.20400000E+01           0.26052889E+00
   0.20500000E+01           0.25483222E+00
   0.20600000E+01           0.24881426E+00
   0.20700000E+01           0.24377981E+00
   0.20800000E+01           0.23758204E+00
   0.20900000E+01           0.23244333E+00
   0.21000000E+01           0.22697741E+00
   0.21100000E+01           0.22179685E+00
   0.21200000E+01           0.21643593E+00
   0.21300000E+01           0.21126444E+00
   0.21400000E+01           0.20622833E+00
   0.21500000E+01           0.20150833E+00
   0.21600000E+01           0.19700074E+00
   0.21700000E+01           0.19231500E+00
   0.21800000E+01           0.18730574E+00
   0.21900000E+01           0.18269611E+00
   0.22000000E+01           0.17805537E+00
   0.22100000E+01           0.17363704E+00
   0.22200000E+01           0.16977556E+00
   0.22300000E+01           0.16525870E+00
   0.22400000E+01           0.16098407E+00
   0.22500000E+01           0.15678981E+00
   0.22600000E+01           0.15277722E+00
   0.22700000E+01           0.14908204E+00
   0.22800000E+01           0.14507722E+00
   0.22900000E+01           0.14101741E+00
   0.23000000E+01           0.13755056E+00
   0.23100000E+01           0.13381593E+00
   0.23200000E+01           0.13033981E+00
   0.23300000E+01           0.12663407E+00
   0.23400000E+01           0.12348852E+00
   0.23500000E+01           0.11997241E+00
   0.23600000E+01           0.11664093E+00
   0.23700000E+01           0.11339333E+00
   0.23800000E+01           0.11031611E+00
   0.23900000E+01           0.10708537E+00
   0.24000000E+01           0.10413259E+00
   0.24100000E+01           0.10102278E+00
   0.24200000E+01           0.98317778E-01
   0.24300000E+01           0.95365741E-01
   0.24400000E+01           0.92760370E-01
   0.24500000E+01           0.89990556E-01
   0.24600000E+01           0.87417593E-01
   0.24700000E+01           0.84742037E-01
   0.24800000E+01           0.82431852E-01
   0.24900000E+01           0.79877963E-01
   0.25000000E+01           0.77452963E-01
   0.25100000E+01           0.75158889E-01
   0.25200000E+01           0.72967593E-01
   0.25300000E+01           0.70690370E-01
   0.25400000E+01           0.68697222E-01
   0.25500000E+01           0.66635741E-01
   0.25600000E+01           0.64388519E-01
   0.25700000E+01           0.62492037E-01
   0.25800000E+01           0.60513519E-01
   0.25900000E+01           0.58339815E-01
   0.26000000E+01           0.56752037E-01
   0.26100000E+01           0.54951667E-01
   0.26200000E+01           0.52997037E-01
   0.26300000E+01           0.51279444E-01
   0.26400000E+01           0.49656852E-01
   0.26500000E+01           0.48090741E-01
   0.26600000E+01           0.46536667E-01
   0.26700000E+01           0.44904815E-01
   0.26800000E+01           0.43477037E-01
   0.26900000E+01           0.41888704E-01
   0.27000000E+01           0.40452963E-01
   0.27100000E+01           0.39257222E-01
   0.27200000E+01           0.37772407E-01
   0.27300000E+01           0.36599259E-01
   0.27400000E+01           0.35173333E-01
   0.27500000E+01           0.34087037E-01
   0.27600000E+01           0.32870741E-01
   0.27700000E+01           0.31785370E-01
   0.27800000E+01           0.30631111E-01
   0.27900000E+01           0.29669630E-01
   0.28000000E+01           0.28412778E-01
   0.28100000E+01           0.27347593E-01
   0.28200000E+01           0.26389630E-01
   0.28300000E+01           0.25417407E-01
   0.28400000E+01           0.24627963E-01
   0.28500000E+01           0.23568889E-01
   0.28600000E+01           0.22799630E-01
   0.28700000E+01           0.21860926E-01
   0.28800000E+01           0.21021667E-01
   0.28900000E+01           0.20244444E-01
   0.29000000E+01           0.19397593E-01
   0.29100000E+01           0.18775370E-01
   0.29200000E+01           0.18180185E-01
   0.29300000E+01           0.17353519E-01
   0.29400000E+01           0.16634444E-01
   0.29500000E+01           0.15927778E-01
   0.29600000E+01           0.15263704E-01
   0.29700000E+01           0.14831667E-01
   0.29800000E+01           0.14148148E-01
   0.29900000E+01           0.13549444E-01
   0.30000000E+01           0.13044630E-01
   0.30100000E+01           0.12404815E-01
   0.30200000E+01           0.11952963E-01
   0.30300000E+01           0.11475926E-01
   0.30400000E+01           0.11029259E-01
   0.30500000E+01           0.10554074E-01
   0.30600000E+01           0.10054630E-01
   0.30700000E+01           0.96122222E-02
   0.30800000E+01           0.91794444E-02
   0.30900000E+01           0.88644444E-02
   0.31000000E+01           0.84942593E-02
   0.31100000E+01           0.80148148E-02
   0.31200000E+01           0.77637037E-02
   0.31300000E+01           0.73312963E-02
   0.31400000E+01           0.70731481E-02
   0.31500000E+01           0.67657407E-02
   0.31600000E+01           0.64022222E-02
   0.31700000E+01           0.61159259E-02
   0.31800000E+01           0.58525926E-02
   0.31900000E+01           0.54766667E-02
   0.32000000E+01           0.53090741E-02
   0.32100000E+01           0.50331481E-02
   0.32200000E+01           0.48261111E-02
   0.32300000E+01           0.45175926E-02
   0.32400000E+01           0.43250000E-02
   0.32500000E+01           0.41568519E-02
   0.32600000E+01           0.39616667E-02
   0.32700000E+01           0.37603704E-02
   0.32800000E+01           0.35424074E-02
   0.32900000E+01           0.33748148E-02
   0.33000000E+01           0.31918519E-02
   0.33100000E+01           0.30331481E-02
   0.33200000E+01           0.28888889E-02
   0.33300000E+01           0.27694444E-02
   0.33400000E+01           0.25864815E-02
   0.33500000E+01           0.24488889E-02
   0.33600000E+01           0.23109259E-02
   0.33700000E+01           0.21796296E-02
   0.33800000E+01           0.20835185E-02
   0.33900000E+01           0.19529630E-02
   0.34000000E+01           0.18609259E-02
   0.34100000E+01           0.17651852E-02
   0.34200000E+01           0.16264815E-02
   0.34300000E+01           0.15681481E-02
   0.34400000E+01           0.14612963E-02
   0.34500000E+01           0.13629630E-02
   0.34600000E+01           0.12962963E-02
   0.34700000E+01           0.12018519E-02
   0.34800000E+01           0.11125926E-02
   0.34900000E+01           0.10707407E-02
   0.35000000E+01           0.98555556E-03
   0.35100000E+01           0.94074074E-03
   0.35200000E+01           0.87259259E-03
   0.35300000E+01           0.80851852E-03
   0.35400000E+01           0.75870370E-03
   0.35500000E+01           0.69259259E-03
   0.35600000E+01           0.67148148E-03
   0.35700000E+01           0.62611111E-03
   0.35800000E+01           0.56962963E-03
   0.35900000E+01           0.53759259E-03
   0.36000000E+01           0.48407407E-03
   0.36100000E+01           0.45203704E-03
   0.36200000E+01           0.40611111E-03
   0.36300000E+01           0.39722222E-03
   0.36400000E+01           0.37111111E-03
   0.36500000E+01           0.34222222E-03
   0.36600000E+01           0.31962963E-03
   0.36700000E+01           0.27944444E-03
   0.36800000E+01           0.25574074E-03
   0.36900000E+01           0.23666667E-03
   0.37000000E+01           0.21703704E-03
   0.37100000E+01           0.19703704E-03
   0.37200000E+01           0.17314815E-03
   0.37300000E+01           0.15166667E-03
   0.37400000E+01           0.14648148E-03
   0.37500000E+01           0.13333333E-03
   0.37600000E+01           0.10592593E-03
   0.37700000E+01           0.98148148E-04
   0.37800000E+01           0.96111111E-04
   0.37900000E+01           0.78703704E-04
   0.38000000E+01           0.67592593E-04
   0.38100000E+01           0.66666667E-04
   0.38200000E+01           0.55370370E-04
   0.38300000E+01           0.47037037E-04
   0.38400000E+01           0.40555556E-04
   0.38500000E+01           0.36851852E-04
   0.38600000E+01           0.32592593E-04
   0.38700000E+01           0.24259259E-04
   0.38800000E+01           0.19629630E-04
   0.38900000E+01           0.18518519E-04
   0.39000000E+01           0.14629630E-04
   0.39100000E+01           0.11296296E-04
   0.39200000E+01           0.88888889E-05
   0.39300000E+01           0.59259259E-05
   0.39400000E+01           0.53703704E-05
   0.39500000E+01           0.33333333E-05
   0.39600000E+01           0.16666667E-05
   0.39700000E+01           0.14814815E-05
   0.39800000E+01           0.55555556E-06
   0.39900000E+01           0.18518519E-06
   0.40000000E+01           0.00000000E+00
