 #written on 15Sep2024 at 19:32:02 
 #----------------- MONTECARLO -------------------#
 #        M                      P(M)             #
 #------------------------------------------------#
 #T=   130.0000
  -0.40000000E+01           0.00000000E+00
  -0.39900000E+01           0.00000000E+00
  -0.39800000E+01           0.00000000E+00
  -0.39700000E+01           0.00000000E+00
  -0.39600000E+01           0.00000000E+00
  -0.39500000E+01           0.00000000E+00
  -0.39400000E+01           0.00000000E+00
  -0.39300000E+01           0.00000000E+00
  -0.39200000E+01           0.00000000E+00
  -0.39100000E+01           0.00000000E+00
  -0.39000000E+01           0.00000000E+00
  -0.38900000E+01           0.00000000E+00
  -0.38800000E+01           0.00000000E+00
  -0.38700000E+01           0.00000000E+00
  -0.38600000E+01           0.00000000E+00
  -0.38500000E+01           0.00000000E+00
  -0.38400000E+01           0.00000000E+00
  -0.38300000E+01           0.00000000E+00
  -0.38200000E+01           0.00000000E+00
  -0.38100000E+01           0.00000000E+00
  -0.38000000E+01           0.00000000E+00
  -0.37900000E+01           0.00000000E+00
  -0.37800000E+01           0.00000000E+00
  -0.37700000E+01           0.00000000E+00
  -0.37600000E+01           0.00000000E+00
  -0.37500000E+01           0.00000000E+00
  -0.37400000E+01           0.00000000E+00
  -0.37300000E+01           0.00000000E+00
  -0.37200000E+01           0.00000000E+00
  -0.37100000E+01           0.00000000E+00
  -0.37000000E+01           0.00000000E+00
  -0.36900000E+01           0.00000000E+00
  -0.36800000E+01           0.00000000E+00
  -0.36700000E+01           0.00000000E+00
  -0.36600000E+01           0.00000000E+00
  -0.36500000E+01           0.00000000E+00
  -0.36400000E+01           0.00000000E+00
  -0.36300000E+01           0.00000000E+00
  -0.36200000E+01           0.00000000E+00
  -0.36100000E+01           0.00000000E+00
  -0.36000000E+01           0.00000000E+00
  -0.35900000E+01           0.00000000E+00
  -0.35800000E+01           0.00000000E+00
  -0.35700000E+01           0.00000000E+00
  -0.35600000E+01           0.00000000E+00
  -0.35500000E+01           0.00000000E+00
  -0.35400000E+01           0.00000000E+00
  -0.35300000E+01           0.00000000E+00
  -0.35200000E+01           0.00000000E+00
  -0.35100000E+01           0.00000000E+00
  -0.35000000E+01           0.00000000E+00
  -0.34900000E+01           0.00000000E+00
  -0.34800000E+01           0.00000000E+00
  -0.34700000E+01           0.00000000E+00
  -0.34600000E+01           0.00000000E+00
  -0.34500000E+01           0.00000000E+00
  -0.34400000E+01           0.00000000E+00
  -0.34300000E+01           0.00000000E+00
  -0.34200000E+01           0.00000000E+00
  -0.34100000E+01           0.00000000E+00
  -0.34000000E+01           0.00000000E+00
  -0.33900000E+01           0.00000000E+00
  -0.33800000E+01           0.00000000E+00
  -0.33700000E+01           0.00000000E+00
  -0.33600000E+01           0.00000000E+00
  -0.33500000E+01           0.00000000E+00
  -0.33400000E+01           0.00000000E+00
  -0.33300000E+01           0.00000000E+00
  -0.33200000E+01           0.00000000E+00
  -0.33100000E+01           0.00000000E+00
  -0.33000000E+01           0.00000000E+00
  -0.32900000E+01           0.00000000E+00
  -0.32800000E+01           0.00000000E+00
  -0.32700000E+01           0.00000000E+00
  -0.32600000E+01           0.00000000E+00
  -0.32500000E+01           0.00000000E+00
  -0.32400000E+01           0.00000000E+00
  -0.32300000E+01           0.00000000E+00
  -0.32200000E+01           0.00000000E+00
  -0.32100000E+01           0.00000000E+00
  -0.32000000E+01           0.00000000E+00
  -0.31900000E+01           0.00000000E+00
  -0.31800000E+01           0.00000000E+00
  -0.31700000E+01           0.00000000E+00
  -0.31600000E+01           0.00000000E+00
  -0.31500000E+01           0.00000000E+00
  -0.31400000E+01           0.00000000E+00
  -0.31300000E+01           0.00000000E+00
  -0.31200000E+01           0.00000000E+00
  -0.31100000E+01           0.00000000E+00
  -0.31000000E+01           0.00000000E+00
  -0.30900000E+01           0.00000000E+00
  -0.30800000E+01           0.00000000E+00
  -0.30700000E+01           0.00000000E+00
  -0.30600000E+01           0.00000000E+00
  -0.30500000E+01           0.00000000E+00
  -0.30400000E+01           0.00000000E+00
  -0.30300000E+01           0.00000000E+00
  -0.30200000E+01           0.00000000E+00
  -0.30100000E+01           0.00000000E+00
  -0.30000000E+01           0.00000000E+00
  -0.29900000E+01           0.00000000E+00
  -0.29800000E+01           0.00000000E+00
  -0.29700000E+01           0.00000000E+00
  -0.29600000E+01           0.00000000E+00
  -0.29500000E+01           0.00000000E+00
  -0.29400000E+01           0.00000000E+00
  -0.29300000E+01           0.00000000E+00
  -0.29200000E+01           0.00000000E+00
  -0.29100000E+01           0.00000000E+00
  -0.29000000E+01           0.00000000E+00
  -0.28900000E+01           0.00000000E+00
  -0.28800000E+01           0.00000000E+00
  -0.28700000E+01           0.00000000E+00
  -0.28600000E+01           0.00000000E+00
  -0.28500000E+01           0.00000000E+00
  -0.28400000E+01           0.00000000E+00
  -0.28300000E+01           0.00000000E+00
  -0.28200000E+01           0.00000000E+00
  -0.28100000E+01           0.00000000E+00
  -0.28000000E+01           0.00000000E+00
  -0.27900000E+01           0.00000000E+00
  -0.27800000E+01           0.00000000E+00
  -0.27700000E+01           0.00000000E+00
  -0.27600000E+01           0.00000000E+00
  -0.27500000E+01           0.00000000E+00
  -0.27400000E+01           0.00000000E+00
  -0.27300000E+01           0.00000000E+00
  -0.27200000E+01           0.00000000E+00
  -0.27100000E+01           0.00000000E+00
  -0.27000000E+01           0.00000000E+00
  -0.26900000E+01           0.00000000E+00
  -0.26800000E+01           0.00000000E+00
  -0.26700000E+01           0.00000000E+00
  -0.26600000E+01           0.00000000E+00
  -0.26500000E+01           0.00000000E+00
  -0.26400000E+01           0.00000000E+00
  -0.26300000E+01           0.00000000E+00
  -0.26200000E+01           0.00000000E+00
  -0.26100000E+01           0.00000000E+00
  -0.26000000E+01           0.00000000E+00
  -0.25900000E+01           0.00000000E+00
  -0.25800000E+01           0.00000000E+00
  -0.25700000E+01           0.00000000E+00
  -0.25600000E+01           0.00000000E+00
  -0.25500000E+01           0.00000000E+00
  -0.25400000E+01           0.00000000E+00
  -0.25300000E+01           0.00000000E+00
  -0.25200000E+01           0.00000000E+00
  -0.25100000E+01           0.00000000E+00
  -0.25000000E+01           0.00000000E+00
  -0.24900000E+01           0.00000000E+00
  -0.24800000E+01           0.00000000E+00
  -0.24700000E+01           0.00000000E+00
  -0.24600000E+01           0.00000000E+00
  -0.24500000E+01           0.00000000E+00
  -0.24400000E+01           0.00000000E+00
  -0.24300000E+01           0.00000000E+00
  -0.24200000E+01           0.00000000E+00
  -0.24100000E+01           0.00000000E+00
  -0.24000000E+01           0.00000000E+00
  -0.23900000E+01           0.00000000E+00
  -0.23800000E+01           0.00000000E+00
  -0.23700000E+01           0.00000000E+00
  -0.23600000E+01           0.00000000E+00
  -0.23500000E+01           0.00000000E+00
  -0.23400000E+01           0.00000000E+00
  -0.23300000E+01           0.00000000E+00
  -0.23200000E+01           0.00000000E+00
  -0.23100000E+01           0.00000000E+00
  -0.23000000E+01           0.00000000E+00
  -0.22900000E+01           0.00000000E+00
  -0.22800000E+01           0.00000000E+00
  -0.22700000E+01           0.00000000E+00
  -0.22600000E+01           0.00000000E+00
  -0.22500000E+01           0.00000000E+00
  -0.22400000E+01           0.00000000E+00
  -0.22300000E+01           0.00000000E+00
  -0.22200000E+01           0.00000000E+00
  -0.22100000E+01           0.00000000E+00
  -0.22000000E+01           0.00000000E+00
  -0.21900000E+01           0.00000000E+00
  -0.21800000E+01           0.00000000E+00
  -0.21700000E+01           0.00000000E+00
  -0.21600000E+01           0.00000000E+00
  -0.21500000E+01           0.00000000E+00
  -0.21400000E+01           0.00000000E+00
  -0.21300000E+01           0.00000000E+00
  -0.21200000E+01           0.00000000E+00
  -0.21100000E+01           0.00000000E+00
  -0.21000000E+01           0.00000000E+00
  -0.20900000E+01           0.00000000E+00
  -0.20800000E+01           0.00000000E+00
  -0.20700000E+01           0.00000000E+00
  -0.20600000E+01           0.00000000E+00
  -0.20500000E+01           0.00000000E+00
  -0.20400000E+01           0.00000000E+00
  -0.20300000E+01           0.00000000E+00
  -0.20200000E+01           0.00000000E+00
  -0.20100000E+01           0.00000000E+00
  -0.20000000E+01           0.00000000E+00
  -0.19900000E+01           0.00000000E+00
  -0.19800000E+01           0.00000000E+00
  -0.19700000E+01           0.00000000E+00
  -0.19600000E+01           0.00000000E+00
  -0.19500000E+01           0.00000000E+00
  -0.19400000E+01           0.00000000E+00
  -0.19300000E+01           0.00000000E+00
  -0.19200000E+01           0.00000000E+00
  -0.19100000E+01           0.00000000E+00
  -0.19000000E+01           0.00000000E+00
  -0.18900000E+01           0.00000000E+00
  -0.18800000E+01           0.00000000E+00
  -0.18700000E+01           0.00000000E+00
  -0.18600000E+01           0.00000000E+00
  -0.18500000E+01           0.00000000E+00
  -0.18400000E+01           0.00000000E+00
  -0.18300000E+01           0.00000000E+00
  -0.18200000E+01           0.00000000E+00
  -0.18100000E+01           0.00000000E+00
  -0.18000000E+01           0.00000000E+00
  -0.17900000E+01           0.00000000E+00
  -0.17800000E+01           0.00000000E+00
  -0.17700000E+01           0.00000000E+00
  -0.17600000E+01           0.00000000E+00
  -0.17500000E+01           0.00000000E+00
  -0.17400000E+01           0.00000000E+00
  -0.17300000E+01           0.00000000E+00
  -0.17200000E+01           0.00000000E+00
  -0.17100000E+01           0.00000000E+00
  -0.17000000E+01           0.00000000E+00
  -0.16900000E+01           0.00000000E+00
  -0.16800000E+01           0.00000000E+00
  -0.16700000E+01           0.00000000E+00
  -0.16600000E+01           0.00000000E+00
  -0.16500000E+01           0.00000000E+00
  -0.16400000E+01           0.00000000E+00
  -0.16300000E+01           0.00000000E+00
  -0.16200000E+01           0.00000000E+00
  -0.16100000E+01           0.00000000E+00
  -0.16000000E+01           0.00000000E+00
  -0.15900000E+01           0.00000000E+00
  -0.15800000E+01           0.00000000E+00
  -0.15700000E+01           0.00000000E+00
  -0.15600000E+01           0.00000000E+00
  -0.15500000E+01           0.00000000E+00
  -0.15400000E+01           0.00000000E+00
  -0.15300000E+01           0.00000000E+00
  -0.15200000E+01           0.00000000E+00
  -0.15100000E+01           0.00000000E+00
  -0.15000000E+01           0.00000000E+00
  -0.14900000E+01           0.00000000E+00
  -0.14800000E+01           0.00000000E+00
  -0.14700000E+01           0.00000000E+00
  -0.14600000E+01           0.00000000E+00
  -0.14500000E+01           0.00000000E+00
  -0.14400000E+01           0.00000000E+00
  -0.14300000E+01           0.00000000E+00
  -0.14200000E+01           0.00000000E+00
  -0.14100000E+01           0.00000000E+00
  -0.14000000E+01           0.00000000E+00
  -0.13900000E+01           0.00000000E+00
  -0.13800000E+01           0.00000000E+00
  -0.13700000E+01           0.00000000E+00
  -0.13600000E+01           0.00000000E+00
  -0.13500000E+01           0.00000000E+00
  -0.13400000E+01           0.00000000E+00
  -0.13300000E+01           0.00000000E+00
  -0.13200000E+01           0.00000000E+00
  -0.13100000E+01           0.00000000E+00
  -0.13000000E+01           0.00000000E+00
  -0.12900000E+01           0.00000000E+00
  -0.12800000E+01           0.00000000E+00
  -0.12700000E+01           0.00000000E+00
  -0.12600000E+01           0.00000000E+00
  -0.12500000E+01           0.00000000E+00
  -0.12400000E+01           0.00000000E+00
  -0.12300000E+01           0.00000000E+00
  -0.12200000E+01           0.00000000E+00
  -0.12100000E+01           0.00000000E+00
  -0.12000000E+01           0.00000000E+00
  -0.11900000E+01           0.00000000E+00
  -0.11800000E+01           0.00000000E+00
  -0.11700000E+01           0.00000000E+00
  -0.11600000E+01           0.00000000E+00
  -0.11500000E+01           0.00000000E+00
  -0.11400000E+01           0.00000000E+00
  -0.11300000E+01           0.00000000E+00
  -0.11200000E+01           0.00000000E+00
  -0.11100000E+01           0.00000000E+00
  -0.11000000E+01           0.00000000E+00
  -0.10900000E+01           0.00000000E+00
  -0.10800000E+01           0.00000000E+00
  -0.10700000E+01           0.00000000E+00
  -0.10600000E+01           0.00000000E+00
  -0.10500000E+01           0.00000000E+00
  -0.10400000E+01           0.00000000E+00
  -0.10300000E+01           0.00000000E+00
  -0.10200000E+01           0.00000000E+00
  -0.10100000E+01           0.00000000E+00
  -0.10000000E+01           0.00000000E+00
  -0.99000000E+00           0.00000000E+00
  -0.98000000E+00           0.00000000E+00
  -0.97000000E+00           0.00000000E+00
  -0.96000000E+00           0.00000000E+00
  -0.95000000E+00           0.00000000E+00
  -0.94000000E+00           0.00000000E+00
  -0.93000000E+00           0.00000000E+00
  -0.92000000E+00           0.00000000E+00
  -0.91000000E+00           0.00000000E+00
  -0.90000000E+00           0.00000000E+00
  -0.89000000E+00           0.00000000E+00
  -0.88000000E+00           0.00000000E+00
  -0.87000000E+00           0.00000000E+00
  -0.86000000E+00           0.00000000E+00
  -0.85000000E+00           0.00000000E+00
  -0.84000000E+00           0.00000000E+00
  -0.83000000E+00           0.00000000E+00
  -0.82000000E+00           0.00000000E+00
  -0.81000000E+00           0.00000000E+00
  -0.80000000E+00           0.00000000E+00
  -0.79000000E+00           0.00000000E+00
  -0.78000000E+00           0.00000000E+00
  -0.77000000E+00           0.00000000E+00
  -0.76000000E+00           0.00000000E+00
  -0.75000000E+00           0.00000000E+00
  -0.74000000E+00           0.00000000E+00
  -0.73000000E+00           0.00000000E+00
  -0.72000000E+00           0.00000000E+00
  -0.71000000E+00           0.00000000E+00
  -0.70000000E+00           0.00000000E+00
  -0.69000000E+00           0.00000000E+00
  -0.68000000E+00           0.00000000E+00
  -0.67000000E+00           0.00000000E+00
  -0.66000000E+00           0.00000000E+00
  -0.65000000E+00           0.00000000E+00
  -0.64000000E+00           0.00000000E+00
  -0.63000000E+00           0.00000000E+00
  -0.62000000E+00           0.00000000E+00
  -0.61000000E+00           0.00000000E+00
  -0.60000000E+00           0.00000000E+00
  -0.59000000E+00           0.00000000E+00
  -0.58000000E+00           0.00000000E+00
  -0.57000000E+00           0.00000000E+00
  -0.56000000E+00           0.00000000E+00
  -0.55000000E+00           0.00000000E+00
  -0.54000000E+00           0.00000000E+00
  -0.53000000E+00           0.00000000E+00
  -0.52000000E+00           0.00000000E+00
  -0.51000000E+00           0.00000000E+00
  -0.50000000E+00           0.00000000E+00
  -0.49000000E+00           0.00000000E+00
  -0.48000000E+00           0.00000000E+00
  -0.47000000E+00           0.00000000E+00
  -0.46000000E+00           0.00000000E+00
  -0.45000000E+00           0.00000000E+00
  -0.44000000E+00           0.00000000E+00
  -0.43000000E+00           0.00000000E+00
  -0.42000000E+00           0.00000000E+00
  -0.41000000E+00           0.00000000E+00
  -0.40000000E+00           0.00000000E+00
  -0.39000000E+00           0.00000000E+00
  -0.38000000E+00           0.00000000E+00
  -0.37000000E+00           0.00000000E+00
  -0.36000000E+00           0.00000000E+00
  -0.35000000E+00           0.00000000E+00
  -0.34000000E+00           0.00000000E+00
  -0.33000000E+00           0.00000000E+00
  -0.32000000E+00           0.00000000E+00
  -0.31000000E+00           0.00000000E+00
  -0.30000000E+00           0.00000000E+00
  -0.29000000E+00           0.00000000E+00
  -0.28000000E+00           0.00000000E+00
  -0.27000000E+00           0.00000000E+00
  -0.26000000E+00           0.00000000E+00
  -0.25000000E+00           0.00000000E+00
  -0.24000000E+00           0.00000000E+00
  -0.23000000E+00           0.00000000E+00
  -0.22000000E+00           0.00000000E+00
  -0.21000000E+00           0.00000000E+00
  -0.20000000E+00           0.00000000E+00
  -0.19000000E+00           0.00000000E+00
  -0.18000000E+00           0.00000000E+00
  -0.17000000E+00           0.00000000E+00
  -0.16000000E+00           0.00000000E+00
  -0.15000000E+00           0.00000000E+00
  -0.14000000E+00           0.00000000E+00
  -0.13000000E+00           0.00000000E+00
  -0.12000000E+00           0.00000000E+00
  -0.11000000E+00           0.00000000E+00
  -0.10000000E+00           0.00000000E+00
  -0.90000000E-01           0.00000000E+00
  -0.80000000E-01           0.00000000E+00
  -0.70000000E-01           0.00000000E+00
  -0.60000000E-01           0.00000000E+00
  -0.50000000E-01           0.00000000E+00
  -0.40000000E-01           0.00000000E+00
  -0.30000000E-01           0.00000000E+00
  -0.20000000E-01           0.00000000E+00
  -0.10000000E-01           0.00000000E+00
   0.00000000E+00           0.22975207E-04
   0.10000000E-01           0.52413223E-03
   0.20000000E-01           0.19520661E-02
   0.30000000E-01           0.43228099E-02
   0.40000000E-01           0.75072727E-02
   0.50000000E-01           0.11611405E-01
   0.60000000E-01           0.16635702E-01
   0.70000000E-01           0.22182314E-01
   0.80000000E-01           0.28611074E-01
   0.90000000E-01           0.36117355E-01
   0.10000000E+00           0.44120496E-01
   0.11000000E+00           0.52441157E-01
   0.12000000E+00           0.61786942E-01
   0.13000000E+00           0.71962645E-01
   0.14000000E+00           0.82198678E-01
   0.15000000E+00           0.93281818E-01
   0.16000000E+00           0.10462198E+00
   0.17000000E+00           0.11687901E+00
   0.18000000E+00           0.12939950E+00
   0.19000000E+00           0.14249686E+00
   0.20000000E+00           0.15609752E+00
   0.21000000E+00           0.16969388E+00
   0.22000000E+00           0.18347058E+00
   0.23000000E+00           0.19819719E+00
   0.24000000E+00           0.21273620E+00
   0.25000000E+00           0.22752711E+00
   0.26000000E+00           0.24311240E+00
   0.27000000E+00           0.25857752E+00
   0.28000000E+00           0.27419504E+00
   0.29000000E+00           0.28969537E+00
   0.30000000E+00           0.30542000E+00
   0.31000000E+00           0.32150331E+00
   0.32000000E+00           0.33779653E+00
   0.33000000E+00           0.35414380E+00
   0.34000000E+00           0.37045570E+00
   0.35000000E+00           0.38707438E+00
   0.36000000E+00           0.40298430E+00
   0.37000000E+00           0.41873273E+00
   0.38000000E+00           0.43475041E+00
   0.39000000E+00           0.45090777E+00
   0.40000000E+00           0.46690066E+00
   0.41000000E+00           0.48236678E+00
   0.42000000E+00           0.49802810E+00
   0.43000000E+00           0.51440777E+00
   0.44000000E+00           0.52956512E+00
   0.45000000E+00           0.54406083E+00
   0.46000000E+00           0.56007438E+00
   0.47000000E+00           0.57439190E+00
   0.48000000E+00           0.58922331E+00
   0.49000000E+00           0.60239438E+00
   0.50000000E+00           0.61715884E+00
   0.51000000E+00           0.63025471E+00
   0.52000000E+00           0.64391653E+00
   0.53000000E+00           0.65719289E+00
   0.54000000E+00           0.67013967E+00
   0.55000000E+00           0.68316992E+00
   0.56000000E+00           0.69490413E+00
   0.57000000E+00           0.70597835E+00
   0.58000000E+00           0.71835934E+00
   0.59000000E+00           0.72734860E+00
   0.60000000E+00           0.73829537E+00
   0.61000000E+00           0.74915818E+00
   0.62000000E+00           0.75933752E+00
   0.63000000E+00           0.76844512E+00
   0.64000000E+00           0.77770132E+00
   0.65000000E+00           0.78591355E+00
   0.66000000E+00           0.79446777E+00
   0.67000000E+00           0.80215917E+00
   0.68000000E+00           0.80943471E+00
   0.69000000E+00           0.81558876E+00
   0.70000000E+00           0.82290893E+00
   0.71000000E+00           0.82934793E+00
   0.72000000E+00           0.83445653E+00
   0.73000000E+00           0.83934281E+00
   0.74000000E+00           0.84503124E+00
   0.75000000E+00           0.84995471E+00
   0.76000000E+00           0.85340810E+00
   0.77000000E+00           0.85697041E+00
   0.78000000E+00           0.85983372E+00
   0.79000000E+00           0.86271868E+00
   0.80000000E+00           0.86491934E+00
   0.81000000E+00           0.86708132E+00
   0.82000000E+00           0.86881570E+00
   0.83000000E+00           0.86895603E+00
   0.84000000E+00           0.87068000E+00
   0.85000000E+00           0.87131273E+00
   0.86000000E+00           0.87139868E+00
   0.87000000E+00           0.87132248E+00
   0.88000000E+00           0.86934909E+00
   0.89000000E+00           0.86783223E+00
   0.90000000E+00           0.86639306E+00
   0.91000000E+00           0.86527405E+00
   0.92000000E+00           0.86285124E+00
   0.93000000E+00           0.86027603E+00
   0.94000000E+00           0.85787091E+00
   0.95000000E+00           0.85380562E+00
   0.96000000E+00           0.85050231E+00
   0.97000000E+00           0.84656231E+00
   0.98000000E+00           0.84280116E+00
   0.99000000E+00           0.83830116E+00
   0.10000000E+01           0.83339835E+00
   0.10100000E+01           0.82836579E+00
   0.10200000E+01           0.82252876E+00
   0.10300000E+01           0.81762017E+00
   0.10400000E+01           0.81189405E+00
   0.10500000E+01           0.80550926E+00
   0.10600000E+01           0.79988860E+00
   0.10700000E+01           0.79358612E+00
   0.10800000E+01           0.78581421E+00
   0.10900000E+01           0.77894083E+00
   0.11000000E+01           0.77141752E+00
   0.11100000E+01           0.76478198E+00
   0.11200000E+01           0.75747091E+00
   0.11300000E+01           0.75009008E+00
   0.11400000E+01           0.74145884E+00
   0.11500000E+01           0.73500479E+00
   0.11600000E+01           0.72607868E+00
   0.11700000E+01           0.71755091E+00
   0.11800000E+01           0.70864380E+00
   0.11900000E+01           0.70065240E+00
   0.12000000E+01           0.69251124E+00
   0.12100000E+01           0.68330545E+00
   0.12200000E+01           0.67496926E+00
   0.12300000E+01           0.66561455E+00
   0.12400000E+01           0.65684843E+00
   0.12500000E+01           0.64696876E+00
   0.12600000E+01           0.63857785E+00
   0.12700000E+01           0.62969091E+00
   0.12800000E+01           0.62072000E+00
   0.12900000E+01           0.61119752E+00
   0.13000000E+01           0.60195256E+00
   0.13100000E+01           0.59239802E+00
   0.13200000E+01           0.58358694E+00
   0.13300000E+01           0.57350893E+00
   0.13400000E+01           0.56472661E+00
   0.13500000E+01           0.55497554E+00
   0.13600000E+01           0.54589736E+00
   0.13700000E+01           0.53642628E+00
   0.13800000E+01           0.52763091E+00
   0.13900000E+01           0.51813554E+00
   0.14000000E+01           0.50904413E+00
   0.14100000E+01           0.49921240E+00
   0.14200000E+01           0.49038099E+00
   0.14300000E+01           0.48101702E+00
   0.14400000E+01           0.47171901E+00
   0.14500000E+01           0.46279983E+00
   0.14600000E+01           0.45415372E+00
   0.14700000E+01           0.44508463E+00
   0.14800000E+01           0.43626496E+00
   0.14900000E+01           0.42699934E+00
   0.15000000E+01           0.41820182E+00
   0.15100000E+01           0.41001008E+00
   0.15200000E+01           0.40112017E+00
   0.15300000E+01           0.39250711E+00
   0.15400000E+01           0.38409950E+00
   0.15500000E+01           0.37556661E+00
   0.15600000E+01           0.36771802E+00
   0.15700000E+01           0.35926826E+00
   0.15800000E+01           0.35115240E+00
   0.15900000E+01           0.34356826E+00
   0.16000000E+01           0.33561537E+00
   0.16100000E+01           0.32752661E+00
   0.16200000E+01           0.31997124E+00
   0.16300000E+01           0.31210777E+00
   0.16400000E+01           0.30486810E+00
   0.16500000E+01           0.29734165E+00
   0.16600000E+01           0.29034298E+00
   0.16700000E+01           0.28326198E+00
   0.16800000E+01           0.27651736E+00
   0.16900000E+01           0.26949587E+00
   0.17000000E+01           0.26286959E+00
   0.17100000E+01           0.25592264E+00
   0.17200000E+01           0.24956000E+00
   0.17300000E+01           0.24357868E+00
   0.17400000E+01           0.23672579E+00
   0.17500000E+01           0.22989421E+00
   0.17600000E+01           0.22386314E+00
   0.17700000E+01           0.21774479E+00
   0.17800000E+01           0.21195091E+00
   0.17900000E+01           0.20614975E+00
   0.18000000E+01           0.20061603E+00
   0.18100000E+01           0.19479702E+00
   0.18200000E+01           0.18963769E+00
   0.18300000E+01           0.18383355E+00
   0.18400000E+01           0.17851157E+00
   0.18500000E+01           0.17355339E+00
   0.18600000E+01           0.16881950E+00
   0.18700000E+01           0.16366645E+00
   0.18800000E+01           0.15888430E+00
   0.18900000E+01           0.15416793E+00
   0.19000000E+01           0.14965074E+00
   0.19100000E+01           0.14532860E+00
   0.19200000E+01           0.14050050E+00
   0.19300000E+01           0.13636364E+00
   0.19400000E+01           0.13239835E+00
   0.19500000E+01           0.12799901E+00
   0.19600000E+01           0.12392975E+00
   0.19700000E+01           0.12005041E+00
   0.19800000E+01           0.11650298E+00
   0.19900000E+01           0.11262281E+00
   0.20000000E+01           0.10905901E+00
   0.20100000E+01           0.10559603E+00
   0.20200000E+01           0.10199355E+00
   0.20300000E+01           0.98827934E-01
   0.20400000E+01           0.95576033E-01
   0.20500000E+01           0.91792893E-01
   0.20600000E+01           0.89154711E-01
   0.20700000E+01           0.85966612E-01
   0.20800000E+01           0.83081157E-01
   0.20900000E+01           0.80508926E-01
   0.21000000E+01           0.77533554E-01
   0.21100000E+01           0.74728760E-01
   0.21200000E+01           0.72269587E-01
   0.21300000E+01           0.69760496E-01
   0.21400000E+01           0.67333388E-01
   0.21500000E+01           0.64894215E-01
   0.21600000E+01           0.62377355E-01
   0.21700000E+01           0.60368099E-01
   0.21800000E+01           0.58186942E-01
   0.21900000E+01           0.56039669E-01
   0.22000000E+01           0.53853388E-01
   0.22100000E+01           0.52009091E-01
   0.22200000E+01           0.50163306E-01
   0.22300000E+01           0.48118678E-01
   0.22400000E+01           0.46412066E-01
   0.22500000E+01           0.44632397E-01
   0.22600000E+01           0.43087934E-01
   0.22700000E+01           0.41308595E-01
   0.22800000E+01           0.39816364E-01
   0.22900000E+01           0.38186942E-01
   0.23000000E+01           0.36804793E-01
   0.23100000E+01           0.35293223E-01
   0.23200000E+01           0.34007603E-01
   0.23300000E+01           0.32726612E-01
   0.23400000E+01           0.31254215E-01
   0.23500000E+01           0.29924463E-01
   0.23600000E+01           0.28839174E-01
   0.23700000E+01           0.27539008E-01
   0.23800000E+01           0.26504132E-01
   0.23900000E+01           0.25413884E-01
   0.24000000E+01           0.24408926E-01
   0.24100000E+01           0.23300331E-01
   0.24200000E+01           0.22339504E-01
   0.24300000E+01           0.21473223E-01
   0.24400000E+01           0.20589256E-01
   0.24500000E+01           0.19654545E-01
   0.24600000E+01           0.18885950E-01
   0.24700000E+01           0.18059339E-01
   0.24800000E+01           0.17214050E-01
   0.24900000E+01           0.16401818E-01
   0.25000000E+01           0.15828595E-01
   0.25100000E+01           0.15175041E-01
   0.25200000E+01           0.14419504E-01
   0.25300000E+01           0.13760661E-01
   0.25400000E+01           0.13212562E-01
   0.25500000E+01           0.12625289E-01
   0.25600000E+01           0.12019174E-01
   0.25700000E+01           0.11520992E-01
   0.25800000E+01           0.11025124E-01
   0.25900000E+01           0.10441488E-01
   0.26000000E+01           0.99332231E-02
   0.26100000E+01           0.94842975E-02
   0.26200000E+01           0.90644628E-02
   0.26300000E+01           0.86388430E-02
   0.26400000E+01           0.82904132E-02
   0.26500000E+01           0.78421488E-02
   0.26600000E+01           0.74942149E-02
   0.26700000E+01           0.71076033E-02
   0.26800000E+01           0.67223140E-02
   0.26900000E+01           0.63935537E-02
   0.27000000E+01           0.60872727E-02
   0.27100000E+01           0.58097521E-02
   0.27200000E+01           0.55786777E-02
   0.27300000E+01           0.52345455E-02
   0.27400000E+01           0.50023140E-02
   0.27500000E+01           0.47735537E-02
   0.27600000E+01           0.45009917E-02
   0.27700000E+01           0.42555372E-02
   0.27800000E+01           0.40393388E-02
   0.27900000E+01           0.37728926E-02
   0.28000000E+01           0.36160331E-02
   0.28100000E+01           0.34644628E-02
   0.28200000E+01           0.33029752E-02
   0.28300000E+01           0.31266116E-02
   0.28400000E+01           0.29522314E-02
   0.28500000E+01           0.27398347E-02
   0.28600000E+01           0.26044628E-02
   0.28700000E+01           0.24808264E-02
   0.28800000E+01           0.23390083E-02
   0.28900000E+01           0.22122314E-02
   0.29000000E+01           0.21023140E-02
   0.29100000E+01           0.20042975E-02
   0.29200000E+01           0.18466116E-02
   0.29300000E+01           0.17033058E-02
   0.29400000E+01           0.16593388E-02
   0.29500000E+01           0.15442975E-02
   0.29600000E+01           0.14514050E-02
   0.29700000E+01           0.13859504E-02
   0.29800000E+01           0.13252893E-02
   0.29900000E+01           0.12467769E-02
   0.30000000E+01           0.11514050E-02
   0.30100000E+01           0.10933884E-02
   0.30200000E+01           0.10398347E-02
   0.30300000E+01           0.96512397E-03
   0.30400000E+01           0.90958678E-03
   0.30500000E+01           0.87190083E-03
   0.30600000E+01           0.80049587E-03
   0.30700000E+01           0.73669421E-03
   0.30800000E+01           0.69884298E-03
   0.30900000E+01           0.67206612E-03
   0.31000000E+01           0.62148760E-03
   0.31100000E+01           0.57884298E-03
   0.31200000E+01           0.55256198E-03
   0.31300000E+01           0.50363636E-03
   0.31400000E+01           0.47900826E-03
   0.31500000E+01           0.43834711E-03
   0.31600000E+01           0.40710744E-03
   0.31700000E+01           0.39206612E-03
   0.31800000E+01           0.37140496E-03
   0.31900000E+01           0.33322314E-03
   0.32000000E+01           0.33157025E-03
   0.32100000E+01           0.29123967E-03
   0.32200000E+01           0.27553719E-03
   0.32300000E+01           0.25322314E-03
   0.32400000E+01           0.23752066E-03
   0.32500000E+01           0.22793388E-03
   0.32600000E+01           0.20975207E-03
   0.32700000E+01           0.18578512E-03
   0.32800000E+01           0.18380165E-03
   0.32900000E+01           0.15305785E-03
   0.33000000E+01           0.15107438E-03
   0.33100000E+01           0.13983471E-03
   0.33200000E+01           0.12760331E-03
   0.33300000E+01           0.12099174E-03
   0.33400000E+01           0.11322314E-03
   0.33500000E+01           0.10561983E-03
   0.33600000E+01           0.10115702E-03
   0.33700000E+01           0.86942149E-04
   0.33800000E+01           0.80661157E-04
   0.33900000E+01           0.76859504E-04
   0.34000000E+01           0.68760331E-04
   0.34100000E+01           0.63801653E-04
   0.34200000E+01           0.66446281E-04
   0.34300000E+01           0.59008264E-04
   0.34400000E+01           0.47603306E-04
   0.34500000E+01           0.43801653E-04
   0.34600000E+01           0.38842975E-04
   0.34700000E+01           0.38347107E-04
   0.34800000E+01           0.30082645E-04
   0.34900000E+01           0.28264463E-04
   0.35000000E+01           0.26280992E-04
   0.35100000E+01           0.22479339E-04
   0.35200000E+01           0.22314050E-04
   0.35300000E+01           0.21322314E-04
   0.35400000E+01           0.18016529E-04
   0.35500000E+01           0.17024793E-04
   0.35600000E+01           0.16859504E-04
   0.35700000E+01           0.12066116E-04
   0.35800000E+01           0.12396694E-04
   0.35900000E+01           0.14545455E-04
   0.36000000E+01           0.94214876E-05
   0.36100000E+01           0.94214876E-05
   0.36200000E+01           0.10247934E-04
   0.36300000E+01           0.74380165E-05
   0.36400000E+01           0.47933884E-05
   0.36500000E+01           0.54545455E-05
   0.36600000E+01           0.61157025E-05
   0.36700000E+01           0.56198347E-05
   0.36800000E+01           0.38016529E-05
   0.36900000E+01           0.42975207E-05
   0.37000000E+01           0.56198347E-05
   0.37100000E+01           0.33057851E-05
   0.37200000E+01           0.19834711E-05
   0.37300000E+01           0.31404959E-05
   0.37400000E+01           0.23140496E-05
   0.37500000E+01           0.11570248E-05
   0.37600000E+01           0.99173554E-06
   0.37700000E+01           0.66115702E-06
   0.37800000E+01           0.49586777E-06
   0.37900000E+01           0.16528926E-05
   0.38000000E+01           0.11570248E-05
   0.38100000E+01           0.82644628E-06
   0.38200000E+01           0.82644628E-06
   0.38300000E+01           0.66115702E-06
   0.38400000E+01           0.33057851E-06
   0.38500000E+01           0.33057851E-06
   0.38600000E+01           0.33057851E-06
   0.38700000E+01           0.00000000E+00
   0.38800000E+01           0.16528926E-06
   0.38900000E+01           0.00000000E+00
   0.39000000E+01           0.49586777E-06
   0.39100000E+01           0.16528926E-06
   0.39200000E+01           0.00000000E+00
   0.39300000E+01           0.00000000E+00
   0.39400000E+01           0.00000000E+00
   0.39500000E+01           0.00000000E+00
   0.39600000E+01           0.00000000E+00
   0.39700000E+01           0.00000000E+00
   0.39800000E+01           0.00000000E+00
   0.39900000E+01           0.00000000E+00
   0.40000000E+01           0.00000000E+00
 #T=   131.0000
  -0.40000000E+01           0.00000000E+00
  -0.39900000E+01           0.00000000E+00
  -0.39800000E+01           0.00000000E+00
  -0.39700000E+01           0.00000000E+00
  -0.39600000E+01           0.00000000E+00
  -0.39500000E+01           0.00000000E+00
  -0.39400000E+01           0.00000000E+00
  -0.39300000E+01           0.00000000E+00
  -0.39200000E+01           0.00000000E+00
  -0.39100000E+01           0.00000000E+00
  -0.39000000E+01           0.00000000E+00
  -0.38900000E+01           0.00000000E+00
  -0.38800000E+01           0.00000000E+00
  -0.38700000E+01           0.00000000E+00
  -0.38600000E+01           0.00000000E+00
  -0.38500000E+01           0.00000000E+00
  -0.38400000E+01           0.00000000E+00
  -0.38300000E+01           0.00000000E+00
  -0.38200000E+01           0.00000000E+00
  -0.38100000E+01           0.00000000E+00
  -0.38000000E+01           0.00000000E+00
  -0.37900000E+01           0.00000000E+00
  -0.37800000E+01           0.00000000E+00
  -0.37700000E+01           0.00000000E+00
  -0.37600000E+01           0.00000000E+00
  -0.37500000E+01           0.00000000E+00
  -0.37400000E+01           0.00000000E+00
  -0.37300000E+01           0.00000000E+00
  -0.37200000E+01           0.00000000E+00
  -0.37100000E+01           0.00000000E+00
  -0.37000000E+01           0.00000000E+00
  -0.36900000E+01           0.00000000E+00
  -0.36800000E+01           0.00000000E+00
  -0.36700000E+01           0.00000000E+00
  -0.36600000E+01           0.00000000E+00
  -0.36500000E+01           0.00000000E+00
  -0.36400000E+01           0.00000000E+00
  -0.36300000E+01           0.00000000E+00
  -0.36200000E+01           0.00000000E+00
  -0.36100000E+01           0.00000000E+00
  -0.36000000E+01           0.00000000E+00
  -0.35900000E+01           0.00000000E+00
  -0.35800000E+01           0.00000000E+00
  -0.35700000E+01           0.00000000E+00
  -0.35600000E+01           0.00000000E+00
  -0.35500000E+01           0.00000000E+00
  -0.35400000E+01           0.00000000E+00
  -0.35300000E+01           0.00000000E+00
  -0.35200000E+01           0.00000000E+00
  -0.35100000E+01           0.00000000E+00
  -0.35000000E+01           0.00000000E+00
  -0.34900000E+01           0.00000000E+00
  -0.34800000E+01           0.00000000E+00
  -0.34700000E+01           0.00000000E+00
  -0.34600000E+01           0.00000000E+00
  -0.34500000E+01           0.00000000E+00
  -0.34400000E+01           0.00000000E+00
  -0.34300000E+01           0.00000000E+00
  -0.34200000E+01           0.00000000E+00
  -0.34100000E+01           0.00000000E+00
  -0.34000000E+01           0.00000000E+00
  -0.33900000E+01           0.00000000E+00
  -0.33800000E+01           0.00000000E+00
  -0.33700000E+01           0.00000000E+00
  -0.33600000E+01           0.00000000E+00
  -0.33500000E+01           0.00000000E+00
  -0.33400000E+01           0.00000000E+00
  -0.33300000E+01           0.00000000E+00
  -0.33200000E+01           0.00000000E+00
  -0.33100000E+01           0.00000000E+00
  -0.33000000E+01           0.00000000E+00
  -0.32900000E+01           0.00000000E+00
  -0.32800000E+01           0.00000000E+00
  -0.32700000E+01           0.00000000E+00
  -0.32600000E+01           0.00000000E+00
  -0.32500000E+01           0.00000000E+00
  -0.32400000E+01           0.00000000E+00
  -0.32300000E+01           0.00000000E+00
  -0.32200000E+01           0.00000000E+00
  -0.32100000E+01           0.00000000E+00
  -0.32000000E+01           0.00000000E+00
  -0.31900000E+01           0.00000000E+00
  -0.31800000E+01           0.00000000E+00
  -0.31700000E+01           0.00000000E+00
  -0.31600000E+01           0.00000000E+00
  -0.31500000E+01           0.00000000E+00
  -0.31400000E+01           0.00000000E+00
  -0.31300000E+01           0.00000000E+00
  -0.31200000E+01           0.00000000E+00
  -0.31100000E+01           0.00000000E+00
  -0.31000000E+01           0.00000000E+00
  -0.30900000E+01           0.00000000E+00
  -0.30800000E+01           0.00000000E+00
  -0.30700000E+01           0.00000000E+00
  -0.30600000E+01           0.00000000E+00
  -0.30500000E+01           0.00000000E+00
  -0.30400000E+01           0.00000000E+00
  -0.30300000E+01           0.00000000E+00
  -0.30200000E+01           0.00000000E+00
  -0.30100000E+01           0.00000000E+00
  -0.30000000E+01           0.00000000E+00
  -0.29900000E+01           0.00000000E+00
  -0.29800000E+01           0.00000000E+00
  -0.29700000E+01           0.00000000E+00
  -0.29600000E+01           0.00000000E+00
  -0.29500000E+01           0.00000000E+00
  -0.29400000E+01           0.00000000E+00
  -0.29300000E+01           0.00000000E+00
  -0.29200000E+01           0.00000000E+00
  -0.29100000E+01           0.00000000E+00
  -0.29000000E+01           0.00000000E+00
  -0.28900000E+01           0.00000000E+00
  -0.28800000E+01           0.00000000E+00
  -0.28700000E+01           0.00000000E+00
  -0.28600000E+01           0.00000000E+00
  -0.28500000E+01           0.00000000E+00
  -0.28400000E+01           0.00000000E+00
  -0.28300000E+01           0.00000000E+00
  -0.28200000E+01           0.00000000E+00
  -0.28100000E+01           0.00000000E+00
  -0.28000000E+01           0.00000000E+00
  -0.27900000E+01           0.00000000E+00
  -0.27800000E+01           0.00000000E+00
  -0.27700000E+01           0.00000000E+00
  -0.27600000E+01           0.00000000E+00
  -0.27500000E+01           0.00000000E+00
  -0.27400000E+01           0.00000000E+00
  -0.27300000E+01           0.00000000E+00
  -0.27200000E+01           0.00000000E+00
  -0.27100000E+01           0.00000000E+00
  -0.27000000E+01           0.00000000E+00
  -0.26900000E+01           0.00000000E+00
  -0.26800000E+01           0.00000000E+00
  -0.26700000E+01           0.00000000E+00
  -0.26600000E+01           0.00000000E+00
  -0.26500000E+01           0.00000000E+00
  -0.26400000E+01           0.00000000E+00
  -0.26300000E+01           0.00000000E+00
  -0.26200000E+01           0.00000000E+00
  -0.26100000E+01           0.00000000E+00
  -0.26000000E+01           0.00000000E+00
  -0.25900000E+01           0.00000000E+00
  -0.25800000E+01           0.00000000E+00
  -0.25700000E+01           0.00000000E+00
  -0.25600000E+01           0.00000000E+00
  -0.25500000E+01           0.00000000E+00
  -0.25400000E+01           0.00000000E+00
  -0.25300000E+01           0.00000000E+00
  -0.25200000E+01           0.00000000E+00
  -0.25100000E+01           0.00000000E+00
  -0.25000000E+01           0.00000000E+00
  -0.24900000E+01           0.00000000E+00
  -0.24800000E+01           0.00000000E+00
  -0.24700000E+01           0.00000000E+00
  -0.24600000E+01           0.00000000E+00
  -0.24500000E+01           0.00000000E+00
  -0.24400000E+01           0.00000000E+00
  -0.24300000E+01           0.00000000E+00
  -0.24200000E+01           0.00000000E+00
  -0.24100000E+01           0.00000000E+00
  -0.24000000E+01           0.00000000E+00
  -0.23900000E+01           0.00000000E+00
  -0.23800000E+01           0.00000000E+00
  -0.23700000E+01           0.00000000E+00
  -0.23600000E+01           0.00000000E+00
  -0.23500000E+01           0.00000000E+00
  -0.23400000E+01           0.00000000E+00
  -0.23300000E+01           0.00000000E+00
  -0.23200000E+01           0.00000000E+00
  -0.23100000E+01           0.00000000E+00
  -0.23000000E+01           0.00000000E+00
  -0.22900000E+01           0.00000000E+00
  -0.22800000E+01           0.00000000E+00
  -0.22700000E+01           0.00000000E+00
  -0.22600000E+01           0.00000000E+00
  -0.22500000E+01           0.00000000E+00
  -0.22400000E+01           0.00000000E+00
  -0.22300000E+01           0.00000000E+00
  -0.22200000E+01           0.00000000E+00
  -0.22100000E+01           0.00000000E+00
  -0.22000000E+01           0.00000000E+00
  -0.21900000E+01           0.00000000E+00
  -0.21800000E+01           0.00000000E+00
  -0.21700000E+01           0.00000000E+00
  -0.21600000E+01           0.00000000E+00
  -0.21500000E+01           0.00000000E+00
  -0.21400000E+01           0.00000000E+00
  -0.21300000E+01           0.00000000E+00
  -0.21200000E+01           0.00000000E+00
  -0.21100000E+01           0.00000000E+00
  -0.21000000E+01           0.00000000E+00
  -0.20900000E+01           0.00000000E+00
  -0.20800000E+01           0.00000000E+00
  -0.20700000E+01           0.00000000E+00
  -0.20600000E+01           0.00000000E+00
  -0.20500000E+01           0.00000000E+00
  -0.20400000E+01           0.00000000E+00
  -0.20300000E+01           0.00000000E+00
  -0.20200000E+01           0.00000000E+00
  -0.20100000E+01           0.00000000E+00
  -0.20000000E+01           0.00000000E+00
  -0.19900000E+01           0.00000000E+00
  -0.19800000E+01           0.00000000E+00
  -0.19700000E+01           0.00000000E+00
  -0.19600000E+01           0.00000000E+00
  -0.19500000E+01           0.00000000E+00
  -0.19400000E+01           0.00000000E+00
  -0.19300000E+01           0.00000000E+00
  -0.19200000E+01           0.00000000E+00
  -0.19100000E+01           0.00000000E+00
  -0.19000000E+01           0.00000000E+00
  -0.18900000E+01           0.00000000E+00
  -0.18800000E+01           0.00000000E+00
  -0.18700000E+01           0.00000000E+00
  -0.18600000E+01           0.00000000E+00
  -0.18500000E+01           0.00000000E+00
  -0.18400000E+01           0.00000000E+00
  -0.18300000E+01           0.00000000E+00
  -0.18200000E+01           0.00000000E+00
  -0.18100000E+01           0.00000000E+00
  -0.18000000E+01           0.00000000E+00
  -0.17900000E+01           0.00000000E+00
  -0.17800000E+01           0.00000000E+00
  -0.17700000E+01           0.00000000E+00
  -0.17600000E+01           0.00000000E+00
  -0.17500000E+01           0.00000000E+00
  -0.17400000E+01           0.00000000E+00
  -0.17300000E+01           0.00000000E+00
  -0.17200000E+01           0.00000000E+00
  -0.17100000E+01           0.00000000E+00
  -0.17000000E+01           0.00000000E+00
  -0.16900000E+01           0.00000000E+00
  -0.16800000E+01           0.00000000E+00
  -0.16700000E+01           0.00000000E+00
  -0.16600000E+01           0.00000000E+00
  -0.16500000E+01           0.00000000E+00
  -0.16400000E+01           0.00000000E+00
  -0.16300000E+01           0.00000000E+00
  -0.16200000E+01           0.00000000E+00
  -0.16100000E+01           0.00000000E+00
  -0.16000000E+01           0.00000000E+00
  -0.15900000E+01           0.00000000E+00
  -0.15800000E+01           0.00000000E+00
  -0.15700000E+01           0.00000000E+00
  -0.15600000E+01           0.00000000E+00
  -0.15500000E+01           0.00000000E+00
  -0.15400000E+01           0.00000000E+00
  -0.15300000E+01           0.00000000E+00
  -0.15200000E+01           0.00000000E+00
  -0.15100000E+01           0.00000000E+00
  -0.15000000E+01           0.00000000E+00
  -0.14900000E+01           0.00000000E+00
  -0.14800000E+01           0.00000000E+00
  -0.14700000E+01           0.00000000E+00
  -0.14600000E+01           0.00000000E+00
  -0.14500000E+01           0.00000000E+00
  -0.14400000E+01           0.00000000E+00
  -0.14300000E+01           0.00000000E+00
  -0.14200000E+01           0.00000000E+00
  -0.14100000E+01           0.00000000E+00
  -0.14000000E+01           0.00000000E+00
  -0.13900000E+01           0.00000000E+00
  -0.13800000E+01           0.00000000E+00
  -0.13700000E+01           0.00000000E+00
  -0.13600000E+01           0.00000000E+00
  -0.13500000E+01           0.00000000E+00
  -0.13400000E+01           0.00000000E+00
  -0.13300000E+01           0.00000000E+00
  -0.13200000E+01           0.00000000E+00
  -0.13100000E+01           0.00000000E+00
  -0.13000000E+01           0.00000000E+00
  -0.12900000E+01           0.00000000E+00
  -0.12800000E+01           0.00000000E+00
  -0.12700000E+01           0.00000000E+00
  -0.12600000E+01           0.00000000E+00
  -0.12500000E+01           0.00000000E+00
  -0.12400000E+01           0.00000000E+00
  -0.12300000E+01           0.00000000E+00
  -0.12200000E+01           0.00000000E+00
  -0.12100000E+01           0.00000000E+00
  -0.12000000E+01           0.00000000E+00
  -0.11900000E+01           0.00000000E+00
  -0.11800000E+01           0.00000000E+00
  -0.11700000E+01           0.00000000E+00
  -0.11600000E+01           0.00000000E+00
  -0.11500000E+01           0.00000000E+00
  -0.11400000E+01           0.00000000E+00
  -0.11300000E+01           0.00000000E+00
  -0.11200000E+01           0.00000000E+00
  -0.11100000E+01           0.00000000E+00
  -0.11000000E+01           0.00000000E+00
  -0.10900000E+01           0.00000000E+00
  -0.10800000E+01           0.00000000E+00
  -0.10700000E+01           0.00000000E+00
  -0.10600000E+01           0.00000000E+00
  -0.10500000E+01           0.00000000E+00
  -0.10400000E+01           0.00000000E+00
  -0.10300000E+01           0.00000000E+00
  -0.10200000E+01           0.00000000E+00
  -0.10100000E+01           0.00000000E+00
  -0.10000000E+01           0.00000000E+00
  -0.99000000E+00           0.00000000E+00
  -0.98000000E+00           0.00000000E+00
  -0.97000000E+00           0.00000000E+00
  -0.96000000E+00           0.00000000E+00
  -0.95000000E+00           0.00000000E+00
  -0.94000000E+00           0.00000000E+00
  -0.93000000E+00           0.00000000E+00
  -0.92000000E+00           0.00000000E+00
  -0.91000000E+00           0.00000000E+00
  -0.90000000E+00           0.00000000E+00
  -0.89000000E+00           0.00000000E+00
  -0.88000000E+00           0.00000000E+00
  -0.87000000E+00           0.00000000E+00
  -0.86000000E+00           0.00000000E+00
  -0.85000000E+00           0.00000000E+00
  -0.84000000E+00           0.00000000E+00
  -0.83000000E+00           0.00000000E+00
  -0.82000000E+00           0.00000000E+00
  -0.81000000E+00           0.00000000E+00
  -0.80000000E+00           0.00000000E+00
  -0.79000000E+00           0.00000000E+00
  -0.78000000E+00           0.00000000E+00
  -0.77000000E+00           0.00000000E+00
  -0.76000000E+00           0.00000000E+00
  -0.75000000E+00           0.00000000E+00
  -0.74000000E+00           0.00000000E+00
  -0.73000000E+00           0.00000000E+00
  -0.72000000E+00           0.00000000E+00
  -0.71000000E+00           0.00000000E+00
  -0.70000000E+00           0.00000000E+00
  -0.69000000E+00           0.00000000E+00
  -0.68000000E+00           0.00000000E+00
  -0.67000000E+00           0.00000000E+00
  -0.66000000E+00           0.00000000E+00
  -0.65000000E+00           0.00000000E+00
  -0.64000000E+00           0.00000000E+00
  -0.63000000E+00           0.00000000E+00
  -0.62000000E+00           0.00000000E+00
  -0.61000000E+00           0.00000000E+00
  -0.60000000E+00           0.00000000E+00
  -0.59000000E+00           0.00000000E+00
  -0.58000000E+00           0.00000000E+00
  -0.57000000E+00           0.00000000E+00
  -0.56000000E+00           0.00000000E+00
  -0.55000000E+00           0.00000000E+00
  -0.54000000E+00           0.00000000E+00
  -0.53000000E+00           0.00000000E+00
  -0.52000000E+00           0.00000000E+00
  -0.51000000E+00           0.00000000E+00
  -0.50000000E+00           0.00000000E+00
  -0.49000000E+00           0.00000000E+00
  -0.48000000E+00           0.00000000E+00
  -0.47000000E+00           0.00000000E+00
  -0.46000000E+00           0.00000000E+00
  -0.45000000E+00           0.00000000E+00
  -0.44000000E+00           0.00000000E+00
  -0.43000000E+00           0.00000000E+00
  -0.42000000E+00           0.00000000E+00
  -0.41000000E+00           0.00000000E+00
  -0.40000000E+00           0.00000000E+00
  -0.39000000E+00           0.00000000E+00
  -0.38000000E+00           0.00000000E+00
  -0.37000000E+00           0.00000000E+00
  -0.36000000E+00           0.00000000E+00
  -0.35000000E+00           0.00000000E+00
  -0.34000000E+00           0.00000000E+00
  -0.33000000E+00           0.00000000E+00
  -0.32000000E+00           0.00000000E+00
  -0.31000000E+00           0.00000000E+00
  -0.30000000E+00           0.00000000E+00
  -0.29000000E+00           0.00000000E+00
  -0.28000000E+00           0.00000000E+00
  -0.27000000E+00           0.00000000E+00
  -0.26000000E+00           0.00000000E+00
  -0.25000000E+00           0.00000000E+00
  -0.24000000E+00           0.00000000E+00
  -0.23000000E+00           0.00000000E+00
  -0.22000000E+00           0.00000000E+00
  -0.21000000E+00           0.00000000E+00
  -0.20000000E+00           0.00000000E+00
  -0.19000000E+00           0.00000000E+00
  -0.18000000E+00           0.00000000E+00
  -0.17000000E+00           0.00000000E+00
  -0.16000000E+00           0.00000000E+00
  -0.15000000E+00           0.00000000E+00
  -0.14000000E+00           0.00000000E+00
  -0.13000000E+00           0.00000000E+00
  -0.12000000E+00           0.00000000E+00
  -0.11000000E+00           0.00000000E+00
  -0.10000000E+00           0.00000000E+00
  -0.90000000E-01           0.00000000E+00
  -0.80000000E-01           0.00000000E+00
  -0.70000000E-01           0.00000000E+00
  -0.60000000E-01           0.00000000E+00
  -0.50000000E-01           0.00000000E+00
  -0.40000000E-01           0.00000000E+00
  -0.30000000E-01           0.00000000E+00
  -0.20000000E-01           0.00000000E+00
  -0.10000000E-01           0.00000000E+00
   0.00000000E+00           0.22644628E-04
   0.10000000E-01           0.51619835E-03
   0.20000000E-01           0.19424793E-02
   0.30000000E-01           0.42641322E-02
   0.40000000E-01           0.74246281E-02
   0.50000000E-01           0.11420992E-01
   0.60000000E-01           0.16322975E-01
   0.70000000E-01           0.21917521E-01
   0.80000000E-01           0.28290248E-01
   0.90000000E-01           0.35404463E-01
   0.10000000E+00           0.43384132E-01
   0.11000000E+00           0.51841322E-01
   0.12000000E+00           0.60910248E-01
   0.13000000E+00           0.70742645E-01
   0.14000000E+00           0.80955207E-01
   0.15000000E+00           0.92016694E-01
   0.16000000E+00           0.10366860E+00
   0.17000000E+00           0.11527719E+00
   0.18000000E+00           0.12774959E+00
   0.19000000E+00           0.14066562E+00
   0.20000000E+00           0.15408661E+00
   0.21000000E+00           0.16741207E+00
   0.22000000E+00           0.18143934E+00
   0.23000000E+00           0.19532364E+00
   0.24000000E+00           0.20979603E+00
   0.25000000E+00           0.22447802E+00
   0.26000000E+00           0.24009256E+00
   0.27000000E+00           0.25489372E+00
   0.28000000E+00           0.27101240E+00
   0.29000000E+00           0.28638810E+00
   0.30000000E+00           0.30159174E+00
   0.31000000E+00           0.31767157E+00
   0.32000000E+00           0.33294810E+00
   0.33000000E+00           0.35049967E+00
   0.34000000E+00           0.36607967E+00
   0.35000000E+00           0.38118562E+00
   0.36000000E+00           0.39825107E+00
   0.37000000E+00           0.41392959E+00
   0.38000000E+00           0.42987240E+00
   0.39000000E+00           0.44589901E+00
   0.40000000E+00           0.46227917E+00
   0.41000000E+00           0.47720694E+00
   0.42000000E+00           0.49331438E+00
   0.43000000E+00           0.50793207E+00
   0.44000000E+00           0.52417455E+00
   0.45000000E+00           0.53853504E+00
   0.46000000E+00           0.55387207E+00
   0.47000000E+00           0.56811537E+00
   0.48000000E+00           0.58273901E+00
   0.49000000E+00           0.59682264E+00
   0.50000000E+00           0.61079554E+00
   0.51000000E+00           0.62488876E+00
   0.52000000E+00           0.63747124E+00
   0.53000000E+00           0.65105405E+00
   0.54000000E+00           0.66337967E+00
   0.55000000E+00           0.67573322E+00
   0.56000000E+00           0.68803107E+00
   0.57000000E+00           0.70031372E+00
   0.58000000E+00           0.71117339E+00
   0.59000000E+00           0.72155736E+00
   0.60000000E+00           0.73229669E+00
   0.61000000E+00           0.74278430E+00
   0.62000000E+00           0.75278099E+00
   0.63000000E+00           0.76131802E+00
   0.64000000E+00           0.77107950E+00
   0.65000000E+00           0.77963174E+00
   0.66000000E+00           0.78764314E+00
   0.67000000E+00           0.79595636E+00
   0.68000000E+00           0.80316165E+00
   0.69000000E+00           0.80940149E+00
   0.70000000E+00           0.81747669E+00
   0.71000000E+00           0.82343785E+00
   0.72000000E+00           0.82999190E+00
   0.73000000E+00           0.83403025E+00
   0.74000000E+00           0.83906099E+00
   0.75000000E+00           0.84357488E+00
   0.76000000E+00           0.84876612E+00
   0.77000000E+00           0.85103669E+00
   0.78000000E+00           0.85454512E+00
   0.79000000E+00           0.85700017E+00
   0.80000000E+00           0.86021405E+00
   0.81000000E+00           0.86232992E+00
   0.82000000E+00           0.86439702E+00
   0.83000000E+00           0.86516017E+00
   0.84000000E+00           0.86636959E+00
   0.85000000E+00           0.86710628E+00
   0.86000000E+00           0.86620397E+00
   0.87000000E+00           0.86644694E+00
   0.88000000E+00           0.86668298E+00
   0.89000000E+00           0.86529653E+00
   0.90000000E+00           0.86312132E+00
   0.91000000E+00           0.86104264E+00
   0.92000000E+00           0.85954496E+00
   0.93000000E+00           0.85747174E+00
   0.94000000E+00           0.85526017E+00
   0.95000000E+00           0.85217702E+00
   0.96000000E+00           0.84824364E+00
   0.97000000E+00           0.84442661E+00
   0.98000000E+00           0.84013884E+00
   0.99000000E+00           0.83642364E+00
   0.10000000E+01           0.83067438E+00
   0.10100000E+01           0.82755653E+00
   0.10200000E+01           0.82073471E+00
   0.10300000E+01           0.81685752E+00
   0.10400000E+01           0.81014579E+00
   0.10500000E+01           0.80510579E+00
   0.10600000E+01           0.79921917E+00
   0.10700000E+01           0.79251058E+00
   0.10800000E+01           0.78559818E+00
   0.10900000E+01           0.77916512E+00
   0.11000000E+01           0.77200512E+00
   0.11100000E+01           0.76543289E+00
   0.11200000E+01           0.75783967E+00
   0.11300000E+01           0.74983273E+00
   0.11400000E+01           0.74202264E+00
   0.11500000E+01           0.73522860E+00
   0.11600000E+01           0.72734579E+00
   0.11700000E+01           0.71835041E+00
   0.11800000E+01           0.71084331E+00
   0.11900000E+01           0.70262099E+00
   0.12000000E+01           0.69362182E+00
   0.12100000E+01           0.68532347E+00
   0.12200000E+01           0.67723174E+00
   0.12300000E+01           0.66837818E+00
   0.12400000E+01           0.65856165E+00
   0.12500000E+01           0.65004050E+00
   0.12600000E+01           0.64138545E+00
   0.12700000E+01           0.63114496E+00
   0.12800000E+01           0.62314562E+00
   0.12900000E+01           0.61376314E+00
   0.13000000E+01           0.60545934E+00
   0.13100000E+01           0.59516545E+00
   0.13200000E+01           0.58626744E+00
   0.13300000E+01           0.57706314E+00
   0.13400000E+01           0.56741901E+00
   0.13500000E+01           0.55899950E+00
   0.13600000E+01           0.54985421E+00
   0.13700000E+01           0.54014231E+00
   0.13800000E+01           0.53093884E+00
   0.13900000E+01           0.52163091E+00
   0.14000000E+01           0.51192331E+00
   0.14100000E+01           0.50316264E+00
   0.14200000E+01           0.49466826E+00
   0.14300000E+01           0.48518281E+00
   0.14400000E+01           0.47623570E+00
   0.14500000E+01           0.46692298E+00
   0.14600000E+01           0.45835223E+00
   0.14700000E+01           0.44940066E+00
   0.14800000E+01           0.44012942E+00
   0.14900000E+01           0.43186744E+00
   0.15000000E+01           0.42240843E+00
   0.15100000E+01           0.41389752E+00
   0.15200000E+01           0.40576430E+00
   0.15300000E+01           0.39647025E+00
   0.15400000E+01           0.38851157E+00
   0.15500000E+01           0.37997785E+00
   0.15600000E+01           0.37223752E+00
   0.15700000E+01           0.36358975E+00
   0.15800000E+01           0.35598628E+00
   0.15900000E+01           0.34760727E+00
   0.16000000E+01           0.33954579E+00
   0.16100000E+01           0.33264116E+00
   0.16200000E+01           0.32459438E+00
   0.16300000E+01           0.31710992E+00
   0.16400000E+01           0.30961587E+00
   0.16500000E+01           0.30216165E+00
   0.16600000E+01           0.29466711E+00
   0.16700000E+01           0.28748992E+00
   0.16800000E+01           0.28049488E+00
   0.16900000E+01           0.27381636E+00
   0.17000000E+01           0.26673306E+00
   0.17100000E+01           0.26032529E+00
   0.17200000E+01           0.25377008E+00
   0.17300000E+01           0.24732364E+00
   0.17400000E+01           0.24070992E+00
   0.17500000E+01           0.23435802E+00
   0.17600000E+01           0.22839388E+00
   0.17700000E+01           0.22216215E+00
   0.17800000E+01           0.21583934E+00
   0.17900000E+01           0.21049405E+00
   0.18000000E+01           0.20469107E+00
   0.18100000E+01           0.19903769E+00
   0.18200000E+01           0.19343107E+00
   0.18300000E+01           0.18779851E+00
   0.18400000E+01           0.18246793E+00
   0.18500000E+01           0.17746165E+00
   0.18600000E+01           0.17251240E+00
   0.18700000E+01           0.16709653E+00
   0.18800000E+01           0.16218364E+00
   0.18900000E+01           0.15754711E+00
   0.19000000E+01           0.15294678E+00
   0.19100000E+01           0.14843769E+00
   0.19200000E+01           0.14401107E+00
   0.19300000E+01           0.13963124E+00
   0.19400000E+01           0.13545785E+00
   0.19500000E+01           0.13113736E+00
   0.19600000E+01           0.12714826E+00
   0.19700000E+01           0.12336116E+00
   0.19800000E+01           0.11915339E+00
   0.19900000E+01           0.11561174E+00
   0.20000000E+01           0.11166926E+00
   0.20100000E+01           0.10815124E+00
   0.20200000E+01           0.10441521E+00
   0.20300000E+01           0.10141587E+00
   0.20400000E+01           0.98020331E-01
   0.20500000E+01           0.94728264E-01
   0.20600000E+01           0.91599504E-01
   0.20700000E+01           0.88675537E-01
   0.20800000E+01           0.85392231E-01
   0.20900000E+01           0.82718182E-01
   0.21000000E+01           0.79933223E-01
   0.21100000E+01           0.77016694E-01
   0.21200000E+01           0.74336364E-01
   0.21300000E+01           0.71763636E-01
   0.21400000E+01           0.69524463E-01
   0.21500000E+01           0.66769752E-01
   0.21600000E+01           0.64587769E-01
   0.21700000E+01           0.62293388E-01
   0.21800000E+01           0.60207934E-01
   0.21900000E+01           0.58025620E-01
   0.22000000E+01           0.55900826E-01
   0.22100000E+01           0.53766446E-01
   0.22200000E+01           0.51524463E-01
   0.22300000E+01           0.49949421E-01
   0.22400000E+01           0.47858512E-01
   0.22500000E+01           0.46386942E-01
   0.22600000E+01           0.44632562E-01
   0.22700000E+01           0.42802149E-01
   0.22800000E+01           0.41259339E-01
   0.22900000E+01           0.39610248E-01
   0.23000000E+01           0.38124959E-01
   0.23100000E+01           0.36512727E-01
   0.23200000E+01           0.35143636E-01
   0.23300000E+01           0.33871901E-01
   0.23400000E+01           0.32500331E-01
   0.23500000E+01           0.31244628E-01
   0.23600000E+01           0.29974215E-01
   0.23700000E+01           0.28808264E-01
   0.23800000E+01           0.27614380E-01
   0.23900000E+01           0.26517686E-01
   0.24000000E+01           0.25500826E-01
   0.24100000E+01           0.24515868E-01
   0.24200000E+01           0.23361322E-01
   0.24300000E+01           0.22497851E-01
   0.24400000E+01           0.21481983E-01
   0.24500000E+01           0.20671405E-01
   0.24600000E+01           0.19670083E-01
   0.24700000E+01           0.18810744E-01
   0.24800000E+01           0.18069587E-01
   0.24900000E+01           0.17271901E-01
   0.25000000E+01           0.16514545E-01
   0.25100000E+01           0.15875537E-01
   0.25200000E+01           0.15058512E-01
   0.25300000E+01           0.14400000E-01
   0.25400000E+01           0.13896860E-01
   0.25500000E+01           0.13269752E-01
   0.25600000E+01           0.12579669E-01
   0.25700000E+01           0.12038512E-01
   0.25800000E+01           0.11487438E-01
   0.25900000E+01           0.10962149E-01
   0.26000000E+01           0.10465124E-01
   0.26100000E+01           0.10044463E-01
   0.26200000E+01           0.95662810E-02
   0.26300000E+01           0.91190083E-02
   0.26400000E+01           0.86509091E-02
   0.26500000E+01           0.82507438E-02
   0.26600000E+01           0.78537190E-02
   0.26700000E+01           0.74641322E-02
   0.26800000E+01           0.71262810E-02
   0.26900000E+01           0.68016529E-02
   0.27000000E+01           0.64312397E-02
   0.27100000E+01           0.60842975E-02
   0.27200000E+01           0.58074380E-02
   0.27300000E+01           0.56056198E-02
   0.27400000E+01           0.52839669E-02
   0.27500000E+01           0.50249587E-02
   0.27600000E+01           0.47352066E-02
   0.27700000E+01           0.45444628E-02
   0.27800000E+01           0.43087603E-02
   0.27900000E+01           0.40338843E-02
   0.28000000E+01           0.38485950E-02
   0.28100000E+01           0.36781818E-02
   0.28200000E+01           0.34623140E-02
   0.28300000E+01           0.33196694E-02
   0.28400000E+01           0.31401653E-02
   0.28500000E+01           0.29418182E-02
   0.28600000E+01           0.27555372E-02
   0.28700000E+01           0.26571901E-02
   0.28800000E+01           0.24811570E-02
   0.28900000E+01           0.23309091E-02
   0.29000000E+01           0.22142149E-02
   0.29100000E+01           0.21062810E-02
   0.29200000E+01           0.19980165E-02
   0.29300000E+01           0.19064463E-02
   0.29400000E+01           0.18036364E-02
   0.29500000E+01           0.16378512E-02
   0.29600000E+01           0.15813223E-02
   0.29700000E+01           0.14933884E-02
   0.29800000E+01           0.14200000E-02
   0.29900000E+01           0.13343802E-02
   0.30000000E+01           0.12385124E-02
   0.30100000E+01           0.11492562E-02
   0.30200000E+01           0.10882645E-02
   0.30300000E+01           0.10080992E-02
   0.30400000E+01           0.96958678E-03
   0.30500000E+01           0.91867769E-03
   0.30600000E+01           0.86429752E-03
   0.30700000E+01           0.81471074E-03
   0.30800000E+01           0.74578512E-03
   0.30900000E+01           0.72247934E-03
   0.31000000E+01           0.68066116E-03
   0.31100000E+01           0.62644628E-03
   0.31200000E+01           0.59008264E-03
   0.31300000E+01           0.54479339E-03
   0.31400000E+01           0.50826446E-03
   0.31500000E+01           0.48727273E-03
   0.31600000E+01           0.43735537E-03
   0.31700000E+01           0.41867769E-03
   0.31800000E+01           0.39305785E-03
   0.31900000E+01           0.37487603E-03
   0.32000000E+01           0.35818182E-03
   0.32100000E+01           0.32380165E-03
   0.32200000E+01           0.29322314E-03
   0.32300000E+01           0.28330579E-03
   0.32400000E+01           0.26743802E-03
   0.32500000E+01           0.24644628E-03
   0.32600000E+01           0.21768595E-03
   0.32700000E+01           0.20644628E-03
   0.32800000E+01           0.20049587E-03
   0.32900000E+01           0.18363636E-03
   0.33000000E+01           0.15785124E-03
   0.33100000E+01           0.14214876E-03
   0.33200000E+01           0.14115702E-03
   0.33300000E+01           0.12859504E-03
   0.33400000E+01           0.11652893E-03
   0.33500000E+01           0.12181818E-03
   0.33600000E+01           0.99338843E-04
   0.33700000E+01           0.99173554E-04
   0.33800000E+01           0.90743802E-04
   0.33900000E+01           0.93388430E-04
   0.34000000E+01           0.78016529E-04
   0.34100000E+01           0.70578512E-04
   0.34200000E+01           0.61983471E-04
   0.34300000E+01           0.63305785E-04
   0.34400000E+01           0.52892562E-04
   0.34500000E+01           0.45454545E-04
   0.34600000E+01           0.44793388E-04
   0.34700000E+01           0.44628099E-04
   0.34800000E+01           0.37685950E-04
   0.34900000E+01           0.29586777E-04
   0.35000000E+01           0.30413223E-04
   0.35100000E+01           0.26446281E-04
   0.35200000E+01           0.23801653E-04
   0.35300000E+01           0.23801653E-04
   0.35400000E+01           0.22644628E-04
   0.35500000E+01           0.18842975E-04
   0.35600000E+01           0.17190083E-04
   0.35700000E+01           0.13884298E-04
   0.35800000E+01           0.16859504E-04
   0.35900000E+01           0.13884298E-04
   0.36000000E+01           0.12396694E-04
   0.36100000E+01           0.11074380E-04
   0.36200000E+01           0.95867769E-05
   0.36300000E+01           0.84297521E-05
   0.36400000E+01           0.10082645E-04
   0.36500000E+01           0.66115702E-05
   0.36600000E+01           0.59504132E-05
   0.36700000E+01           0.56198347E-05
   0.36800000E+01           0.66115702E-05
   0.36900000E+01           0.47933884E-05
   0.37000000E+01           0.34710744E-05
   0.37100000E+01           0.29752066E-05
   0.37200000E+01           0.28099174E-05
   0.37300000E+01           0.18181818E-05
   0.37400000E+01           0.34710744E-05
   0.37500000E+01           0.24793388E-05
   0.37600000E+01           0.23140496E-05
   0.37700000E+01           0.16528926E-05
   0.37800000E+01           0.11570248E-05
   0.37900000E+01           0.82644628E-06
   0.38000000E+01           0.18181818E-05
   0.38100000E+01           0.82644628E-06
   0.38200000E+01           0.49586777E-06
   0.38300000E+01           0.11570248E-05
   0.38400000E+01           0.49586777E-06
   0.38500000E+01           0.66115702E-06
   0.38600000E+01           0.16528926E-06
   0.38700000E+01           0.82644628E-06
   0.38800000E+01           0.16528926E-06
   0.38900000E+01           0.00000000E+00
   0.39000000E+01           0.00000000E+00
   0.39100000E+01           0.00000000E+00
   0.39200000E+01           0.16528926E-06
   0.39300000E+01           0.00000000E+00
   0.39400000E+01           0.33057851E-06
   0.39500000E+01           0.00000000E+00
   0.39600000E+01           0.00000000E+00
   0.39700000E+01           0.00000000E+00
   0.39800000E+01           0.00000000E+00
   0.39900000E+01           0.00000000E+00
   0.40000000E+01           0.00000000E+00
 #T=   132.0000
  -0.40000000E+01           0.00000000E+00
  -0.39900000E+01           0.00000000E+00
  -0.39800000E+01           0.00000000E+00
  -0.39700000E+01           0.00000000E+00
  -0.39600000E+01           0.00000000E+00
  -0.39500000E+01           0.00000000E+00
  -0.39400000E+01           0.00000000E+00
  -0.39300000E+01           0.00000000E+00
  -0.39200000E+01           0.00000000E+00
  -0.39100000E+01           0.00000000E+00
  -0.39000000E+01           0.00000000E+00
  -0.38900000E+01           0.00000000E+00
  -0.38800000E+01           0.00000000E+00
  -0.38700000E+01           0.00000000E+00
  -0.38600000E+01           0.00000000E+00
  -0.38500000E+01           0.00000000E+00
  -0.38400000E+01           0.00000000E+00
  -0.38300000E+01           0.00000000E+00
  -0.38200000E+01           0.00000000E+00
  -0.38100000E+01           0.00000000E+00
  -0.38000000E+01           0.00000000E+00
  -0.37900000E+01           0.00000000E+00
  -0.37800000E+01           0.00000000E+00
  -0.37700000E+01           0.00000000E+00
  -0.37600000E+01           0.00000000E+00
  -0.37500000E+01           0.00000000E+00
  -0.37400000E+01           0.00000000E+00
  -0.37300000E+01           0.00000000E+00
  -0.37200000E+01           0.00000000E+00
  -0.37100000E+01           0.00000000E+00
  -0.37000000E+01           0.00000000E+00
  -0.36900000E+01           0.00000000E+00
  -0.36800000E+01           0.00000000E+00
  -0.36700000E+01           0.00000000E+00
  -0.36600000E+01           0.00000000E+00
  -0.36500000E+01           0.00000000E+00
  -0.36400000E+01           0.00000000E+00
  -0.36300000E+01           0.00000000E+00
  -0.36200000E+01           0.00000000E+00
  -0.36100000E+01           0.00000000E+00
  -0.36000000E+01           0.00000000E+00
  -0.35900000E+01           0.00000000E+00
  -0.35800000E+01           0.00000000E+00
  -0.35700000E+01           0.00000000E+00
  -0.35600000E+01           0.00000000E+00
  -0.35500000E+01           0.00000000E+00
  -0.35400000E+01           0.00000000E+00
  -0.35300000E+01           0.00000000E+00
  -0.35200000E+01           0.00000000E+00
  -0.35100000E+01           0.00000000E+00
  -0.35000000E+01           0.00000000E+00
  -0.34900000E+01           0.00000000E+00
  -0.34800000E+01           0.00000000E+00
  -0.34700000E+01           0.00000000E+00
  -0.34600000E+01           0.00000000E+00
  -0.34500000E+01           0.00000000E+00
  -0.34400000E+01           0.00000000E+00
  -0.34300000E+01           0.00000000E+00
  -0.34200000E+01           0.00000000E+00
  -0.34100000E+01           0.00000000E+00
  -0.34000000E+01           0.00000000E+00
  -0.33900000E+01           0.00000000E+00
  -0.33800000E+01           0.00000000E+00
  -0.33700000E+01           0.00000000E+00
  -0.33600000E+01           0.00000000E+00
  -0.33500000E+01           0.00000000E+00
  -0.33400000E+01           0.00000000E+00
  -0.33300000E+01           0.00000000E+00
  -0.33200000E+01           0.00000000E+00
  -0.33100000E+01           0.00000000E+00
  -0.33000000E+01           0.00000000E+00
  -0.32900000E+01           0.00000000E+00
  -0.32800000E+01           0.00000000E+00
  -0.32700000E+01           0.00000000E+00
  -0.32600000E+01           0.00000000E+00
  -0.32500000E+01           0.00000000E+00
  -0.32400000E+01           0.00000000E+00
  -0.32300000E+01           0.00000000E+00
  -0.32200000E+01           0.00000000E+00
  -0.32100000E+01           0.00000000E+00
  -0.32000000E+01           0.00000000E+00
  -0.31900000E+01           0.00000000E+00
  -0.31800000E+01           0.00000000E+00
  -0.31700000E+01           0.00000000E+00
  -0.31600000E+01           0.00000000E+00
  -0.31500000E+01           0.00000000E+00
  -0.31400000E+01           0.00000000E+00
  -0.31300000E+01           0.00000000E+00
  -0.31200000E+01           0.00000000E+00
  -0.31100000E+01           0.00000000E+00
  -0.31000000E+01           0.00000000E+00
  -0.30900000E+01           0.00000000E+00
  -0.30800000E+01           0.00000000E+00
  -0.30700000E+01           0.00000000E+00
  -0.30600000E+01           0.00000000E+00
  -0.30500000E+01           0.00000000E+00
  -0.30400000E+01           0.00000000E+00
  -0.30300000E+01           0.00000000E+00
  -0.30200000E+01           0.00000000E+00
  -0.30100000E+01           0.00000000E+00
  -0.30000000E+01           0.00000000E+00
  -0.29900000E+01           0.00000000E+00
  -0.29800000E+01           0.00000000E+00
  -0.29700000E+01           0.00000000E+00
  -0.29600000E+01           0.00000000E+00
  -0.29500000E+01           0.00000000E+00
  -0.29400000E+01           0.00000000E+00
  -0.29300000E+01           0.00000000E+00
  -0.29200000E+01           0.00000000E+00
  -0.29100000E+01           0.00000000E+00
  -0.29000000E+01           0.00000000E+00
  -0.28900000E+01           0.00000000E+00
  -0.28800000E+01           0.00000000E+00
  -0.28700000E+01           0.00000000E+00
  -0.28600000E+01           0.00000000E+00
  -0.28500000E+01           0.00000000E+00
  -0.28400000E+01           0.00000000E+00
  -0.28300000E+01           0.00000000E+00
  -0.28200000E+01           0.00000000E+00
  -0.28100000E+01           0.00000000E+00
  -0.28000000E+01           0.00000000E+00
  -0.27900000E+01           0.00000000E+00
  -0.27800000E+01           0.00000000E+00
  -0.27700000E+01           0.00000000E+00
  -0.27600000E+01           0.00000000E+00
  -0.27500000E+01           0.00000000E+00
  -0.27400000E+01           0.00000000E+00
  -0.27300000E+01           0.00000000E+00
  -0.27200000E+01           0.00000000E+00
  -0.27100000E+01           0.00000000E+00
  -0.27000000E+01           0.00000000E+00
  -0.26900000E+01           0.00000000E+00
  -0.26800000E+01           0.00000000E+00
  -0.26700000E+01           0.00000000E+00
  -0.26600000E+01           0.00000000E+00
  -0.26500000E+01           0.00000000E+00
  -0.26400000E+01           0.00000000E+00
  -0.26300000E+01           0.00000000E+00
  -0.26200000E+01           0.00000000E+00
  -0.26100000E+01           0.00000000E+00
  -0.26000000E+01           0.00000000E+00
  -0.25900000E+01           0.00000000E+00
  -0.25800000E+01           0.00000000E+00
  -0.25700000E+01           0.00000000E+00
  -0.25600000E+01           0.00000000E+00
  -0.25500000E+01           0.00000000E+00
  -0.25400000E+01           0.00000000E+00
  -0.25300000E+01           0.00000000E+00
  -0.25200000E+01           0.00000000E+00
  -0.25100000E+01           0.00000000E+00
  -0.25000000E+01           0.00000000E+00
  -0.24900000E+01           0.00000000E+00
  -0.24800000E+01           0.00000000E+00
  -0.24700000E+01           0.00000000E+00
  -0.24600000E+01           0.00000000E+00
  -0.24500000E+01           0.00000000E+00
  -0.24400000E+01           0.00000000E+00
  -0.24300000E+01           0.00000000E+00
  -0.24200000E+01           0.00000000E+00
  -0.24100000E+01           0.00000000E+00
  -0.24000000E+01           0.00000000E+00
  -0.23900000E+01           0.00000000E+00
  -0.23800000E+01           0.00000000E+00
  -0.23700000E+01           0.00000000E+00
  -0.23600000E+01           0.00000000E+00
  -0.23500000E+01           0.00000000E+00
  -0.23400000E+01           0.00000000E+00
  -0.23300000E+01           0.00000000E+00
  -0.23200000E+01           0.00000000E+00
  -0.23100000E+01           0.00000000E+00
  -0.23000000E+01           0.00000000E+00
  -0.22900000E+01           0.00000000E+00
  -0.22800000E+01           0.00000000E+00
  -0.22700000E+01           0.00000000E+00
  -0.22600000E+01           0.00000000E+00
  -0.22500000E+01           0.00000000E+00
  -0.22400000E+01           0.00000000E+00
  -0.22300000E+01           0.00000000E+00
  -0.22200000E+01           0.00000000E+00
  -0.22100000E+01           0.00000000E+00
  -0.22000000E+01           0.00000000E+00
  -0.21900000E+01           0.00000000E+00
  -0.21800000E+01           0.00000000E+00
  -0.21700000E+01           0.00000000E+00
  -0.21600000E+01           0.00000000E+00
  -0.21500000E+01           0.00000000E+00
  -0.21400000E+01           0.00000000E+00
  -0.21300000E+01           0.00000000E+00
  -0.21200000E+01           0.00000000E+00
  -0.21100000E+01           0.00000000E+00
  -0.21000000E+01           0.00000000E+00
  -0.20900000E+01           0.00000000E+00
  -0.20800000E+01           0.00000000E+00
  -0.20700000E+01           0.00000000E+00
  -0.20600000E+01           0.00000000E+00
  -0.20500000E+01           0.00000000E+00
  -0.20400000E+01           0.00000000E+00
  -0.20300000E+01           0.00000000E+00
  -0.20200000E+01           0.00000000E+00
  -0.20100000E+01           0.00000000E+00
  -0.20000000E+01           0.00000000E+00
  -0.19900000E+01           0.00000000E+00
  -0.19800000E+01           0.00000000E+00
  -0.19700000E+01           0.00000000E+00
  -0.19600000E+01           0.00000000E+00
  -0.19500000E+01           0.00000000E+00
  -0.19400000E+01           0.00000000E+00
  -0.19300000E+01           0.00000000E+00
  -0.19200000E+01           0.00000000E+00
  -0.19100000E+01           0.00000000E+00
  -0.19000000E+01           0.00000000E+00
  -0.18900000E+01           0.00000000E+00
  -0.18800000E+01           0.00000000E+00
  -0.18700000E+01           0.00000000E+00
  -0.18600000E+01           0.00000000E+00
  -0.18500000E+01           0.00000000E+00
  -0.18400000E+01           0.00000000E+00
  -0.18300000E+01           0.00000000E+00
  -0.18200000E+01           0.00000000E+00
  -0.18100000E+01           0.00000000E+00
  -0.18000000E+01           0.00000000E+00
  -0.17900000E+01           0.00000000E+00
  -0.17800000E+01           0.00000000E+00
  -0.17700000E+01           0.00000000E+00
  -0.17600000E+01           0.00000000E+00
  -0.17500000E+01           0.00000000E+00
  -0.17400000E+01           0.00000000E+00
  -0.17300000E+01           0.00000000E+00
  -0.17200000E+01           0.00000000E+00
  -0.17100000E+01           0.00000000E+00
  -0.17000000E+01           0.00000000E+00
  -0.16900000E+01           0.00000000E+00
  -0.16800000E+01           0.00000000E+00
  -0.16700000E+01           0.00000000E+00
  -0.16600000E+01           0.00000000E+00
  -0.16500000E+01           0.00000000E+00
  -0.16400000E+01           0.00000000E+00
  -0.16300000E+01           0.00000000E+00
  -0.16200000E+01           0.00000000E+00
  -0.16100000E+01           0.00000000E+00
  -0.16000000E+01           0.00000000E+00
  -0.15900000E+01           0.00000000E+00
  -0.15800000E+01           0.00000000E+00
  -0.15700000E+01           0.00000000E+00
  -0.15600000E+01           0.00000000E+00
  -0.15500000E+01           0.00000000E+00
  -0.15400000E+01           0.00000000E+00
  -0.15300000E+01           0.00000000E+00
  -0.15200000E+01           0.00000000E+00
  -0.15100000E+01           0.00000000E+00
  -0.15000000E+01           0.00000000E+00
  -0.14900000E+01           0.00000000E+00
[...]
  -0.64000000E+00           0.00000000E+00
  -0.63000000E+00           0.00000000E+00
  -0.62000000E+00           0.00000000E+00
  -0.61000000E+00           0.00000000E+00
  -0.60000000E+00           0.00000000E+00
  -0.59000000E+00           0.00000000E+00
  -0.58000000E+00           0.00000000E+00
  -0.57000000E+00           0.00000000E+00
  -0.56000000E+00           0.00000000E+00
  -0.55000000E+00           0.00000000E+00
  -0.54000000E+00           0.00000000E+00
  -0.53000000E+00           0.00000000E+00
  -0.52000000E+00           0.00000000E+00
  -0.51000000E+00           0.00000000E+00
  -0.50000000E+00           0.00000000E+00
  -0.49000000E+00           0.00000000E+00
  -0.48000000E+00           0.00000000E+00
  -0.47000000E+00           0.00000000E+00
  -0.46000000E+00           0.00000000E+00
  -0.45000000E+00           0.00000000E+00
  -0.44000000E+00           0.00000000E+00
  -0.43000000E+00           0.00000000E+00
  -0.42000000E+00           0.00000000E+00
  -0.41000000E+00           0.00000000E+00
  -0.40000000E+00           0.00000000E+00
  -0.39000000E+00           0.00000000E+00
  -0.38000000E+00           0.00000000E+00
  -0.37000000E+00           0.00000000E+00
  -0.36000000E+00           0.00000000E+00
  -0.35000000E+00           0.00000000E+00
  -0.34000000E+00           0.00000000E+00
  -0.33000000E+00           0.00000000E+00
  -0.32000000E+00           0.00000000E+00
  -0.31000000E+00           0.00000000E+00
  -0.30000000E+00           0.00000000E+00
  -0.29000000E+00           0.00000000E+00
  -0.28000000E+00           0.00000000E+00
  -0.27000000E+00           0.00000000E+00
  -0.26000000E+00           0.00000000E+00
  -0.25000000E+00           0.00000000E+00
  -0.24000000E+00           0.00000000E+00
  -0.23000000E+00           0.00000000E+00
  -0.22000000E+00           0.00000000E+00
  -0.21000000E+00           0.00000000E+00
  -0.20000000E+00           0.00000000E+00
  -0.19000000E+00           0.00000000E+00
  -0.18000000E+00           0.00000000E+00
  -0.17000000E+00           0.00000000E+00
  -0.16000000E+00           0.00000000E+00
  -0.15000000E+00           0.00000000E+00
  -0.14000000E+00           0.00000000E+00
  -0.13000000E+00           0.00000000E+00
  -0.12000000E+00           0.00000000E+00
  -0.11000000E+00           0.00000000E+00
  -0.10000000E+00           0.00000000E+00
  -0.90000000E-01           0.00000000E+00
  -0.80000000E-01           0.00000000E+00
  -0.70000000E-01           0.00000000E+00
  -0.60000000E-01           0.00000000E+00
  -0.50000000E-01           0.00000000E+00
  -0.40000000E-01           0.00000000E+00
  -0.30000000E-01           0.00000000E+00
  -0.20000000E-01           0.00000000E+00
  -0.10000000E-01           0.00000000E+00
   0.00000000E+00           0.69421488E-05
   0.10000000E-01           0.18743802E-03
   0.20000000E-01           0.72644628E-03
   0.30000000E-01           0.16254545E-02
   0.40000000E-01           0.28538843E-02
   0.50000000E-01           0.43669421E-02
   0.60000000E-01           0.62130579E-02
   0.70000000E-01           0.84748760E-02
   0.80000000E-01           0.10901653E-01
   0.90000000E-01           0.13756694E-01
   0.10000000E+00           0.16756860E-01
   0.11000000E+00           0.20143636E-01
   0.12000000E+00           0.23742479E-01
   0.13000000E+00           0.27577190E-01
   0.14000000E+00           0.31969752E-01
   0.15000000E+00           0.36257851E-01
   0.16000000E+00           0.40909091E-01
   0.17000000E+00           0.45901157E-01
   0.18000000E+00           0.50988430E-01
   0.19000000E+00           0.56275537E-01
   0.20000000E+00           0.61810579E-01
   0.21000000E+00           0.67839174E-01
   0.22000000E+00           0.73747934E-01
   0.23000000E+00           0.79936198E-01
   0.24000000E+00           0.86414711E-01
   0.25000000E+00           0.92789421E-01
   0.26000000E+00           0.99535372E-01
   0.27000000E+00           0.10613124E+00
   0.28000000E+00           0.11327554E+00
   0.29000000E+00           0.12042826E+00
   0.30000000E+00           0.12775355E+00
   0.31000000E+00           0.13496975E+00
   0.32000000E+00           0.14269273E+00
   0.33000000E+00           0.15040298E+00
   0.34000000E+00           0.15830281E+00
   0.35000000E+00           0.16599719E+00
   0.36000000E+00           0.17395917E+00
   0.37000000E+00           0.18194215E+00
   0.38000000E+00           0.19010281E+00
   0.39000000E+00           0.19822479E+00
   0.40000000E+00           0.20663025E+00
   0.41000000E+00           0.21471851E+00
   0.42000000E+00           0.22316215E+00
   0.43000000E+00           0.23124264E+00
   0.44000000E+00           0.23990975E+00
   0.45000000E+00           0.24811901E+00
   0.46000000E+00           0.25666826E+00
   0.47000000E+00           0.26548711E+00
   0.48000000E+00           0.27393653E+00
   0.49000000E+00           0.28231289E+00
   0.50000000E+00           0.29115554E+00
   0.51000000E+00           0.29936595E+00
   0.52000000E+00           0.30806612E+00
   0.53000000E+00           0.31606314E+00
   0.54000000E+00           0.32513157E+00
   0.55000000E+00           0.33355322E+00
   0.56000000E+00           0.34147124E+00
   0.57000000E+00           0.34976612E+00
   0.58000000E+00           0.35875587E+00
   0.59000000E+00           0.36659587E+00
   0.60000000E+00           0.37497752E+00
   0.61000000E+00           0.38293025E+00
   0.62000000E+00           0.39117950E+00
   0.63000000E+00           0.39974446E+00
   0.64000000E+00           0.40721322E+00
   0.65000000E+00           0.41463620E+00
   0.66000000E+00           0.42277372E+00
   0.67000000E+00           0.43047421E+00
   0.68000000E+00           0.43762198E+00
   0.69000000E+00           0.44573174E+00
   0.70000000E+00           0.45318893E+00
   0.71000000E+00           0.46048843E+00
   0.72000000E+00           0.46791091E+00
   0.73000000E+00           0.47471504E+00
   0.74000000E+00           0.48169901E+00
   0.75000000E+00           0.48853917E+00
   0.76000000E+00           0.49571388E+00
   0.77000000E+00           0.50176364E+00
   0.78000000E+00           0.50913041E+00
   0.79000000E+00           0.51544909E+00
   0.80000000E+00           0.52098198E+00
   0.81000000E+00           0.52757736E+00
   0.82000000E+00           0.53309157E+00
   0.83000000E+00           0.53871207E+00
   0.84000000E+00           0.54558942E+00
   0.85000000E+00           0.55063884E+00
   0.86000000E+00           0.55607223E+00
   0.87000000E+00           0.56112231E+00
   0.88000000E+00           0.56586711E+00
   0.89000000E+00           0.57105603E+00
   0.90000000E+00           0.57558116E+00
   0.91000000E+00           0.58057884E+00
   0.92000000E+00           0.58515322E+00
   0.93000000E+00           0.58951256E+00
   0.94000000E+00           0.59372430E+00
   0.95000000E+00           0.59811818E+00
   0.96000000E+00           0.60150926E+00
   0.97000000E+00           0.60556050E+00
   0.98000000E+00           0.60931256E+00
   0.99000000E+00           0.61248298E+00
   0.10000000E+01           0.61586529E+00
   0.10100000E+01           0.61900430E+00
   0.10200000E+01           0.62211736E+00
   0.10300000E+01           0.62488264E+00
   0.10400000E+01           0.62755273E+00
   0.10500000E+01           0.63048975E+00
   0.10600000E+01           0.63243983E+00
   0.10700000E+01           0.63461851E+00
   0.10800000E+01           0.63625124E+00
   0.10900000E+01           0.63892876E+00
   0.11000000E+01           0.63991702E+00
   0.11100000E+01           0.64218694E+00
   0.11200000E+01           0.64314182E+00
   0.11300000E+01           0.64470446E+00
   0.11400000E+01           0.64555818E+00
   0.11500000E+01           0.64616000E+00
   0.11600000E+01           0.64668231E+00
   0.11700000E+01           0.64790298E+00
   0.11800000E+01           0.64823934E+00
   0.11900000E+01           0.64840860E+00
   0.12000000E+01           0.64870116E+00
   0.12100000E+01           0.64869603E+00
   0.12200000E+01           0.64880727E+00
   0.12300000E+01           0.64820099E+00
   0.12400000E+01           0.64815537E+00
   0.12500000E+01           0.64736149E+00
   0.12600000E+01           0.64589736E+00
   0.12700000E+01           0.64589157E+00
   0.12800000E+01           0.64494463E+00
   0.12900000E+01           0.64345388E+00
   0.13000000E+01           0.64276661E+00
   0.13100000E+01           0.64126545E+00
   0.13200000E+01           0.63966876E+00
   0.13300000E+01           0.63804314E+00
   0.13400000E+01           0.63610545E+00
   0.13500000E+01           0.63444066E+00
   0.13600000E+01           0.63187818E+00
   0.13700000E+01           0.63042215E+00
   0.13800000E+01           0.62842992E+00
   0.13900000E+01           0.62522017E+00
   0.14000000E+01           0.62289306E+00
   0.14100000E+01           0.62045471E+00
   0.14200000E+01           0.61714248E+00
   0.14300000E+01           0.61525934E+00
   0.14400000E+01           0.61131124E+00
   0.14500000E+01           0.60902512E+00
   0.14600000E+01           0.60543058E+00
   0.14700000E+01           0.60287752E+00
   0.14800000E+01           0.59886711E+00
   0.14900000E+01           0.59606331E+00
   0.15000000E+01           0.59203669E+00
   0.15100000E+01           0.58830760E+00
   0.15200000E+01           0.58517802E+00
   0.15300000E+01           0.58132876E+00
   0.15400000E+01           0.57732826E+00
   0.15500000E+01           0.57273620E+00
   0.15600000E+01           0.56878992E+00
   0.15700000E+01           0.56478628E+00
   0.15800000E+01           0.56053686E+00
   0.15900000E+01           0.55638182E+00
   0.16000000E+01           0.55206413E+00
   0.16100000E+01           0.54773174E+00
   0.16200000E+01           0.54277983E+00
   0.16300000E+01           0.53860000E+00
   0.16400000E+01           0.53350860E+00
   0.16500000E+01           0.52936793E+00
   0.16600000E+01           0.52481636E+00
   0.16700000E+01           0.51992050E+00
   0.16800000E+01           0.51468876E+00
   0.16900000E+01           0.50960496E+00
   0.17000000E+01           0.50455950E+00
   0.17100000E+01           0.49928182E+00
   0.17200000E+01           0.49490628E+00
   0.17300000E+01           0.49002132E+00
   0.17400000E+01           0.48460083E+00
   0.17500000E+01           0.47901455E+00
   0.17600000E+01           0.47438645E+00
   0.17700000E+01           0.46905058E+00
   0.17800000E+01           0.46312463E+00
   0.17900000E+01           0.45805372E+00
   0.18000000E+01           0.45246612E+00
   0.18100000E+01           0.44721025E+00
   0.18200000E+01           0.44232694E+00
   0.18300000E+01           0.43602248E+00
   0.18400000E+01           0.43101785E+00
   0.18500000E+01           0.42520281E+00
   0.18600000E+01           0.42001802E+00
   0.18700000E+01           0.41403107E+00
   0.18800000E+01           0.40858198E+00
   0.18900000E+01           0.40311587E+00
   0.19000000E+01           0.39786050E+00
   0.19100000E+01           0.39209471E+00
   0.19200000E+01           0.38598694E+00
   0.19300000E+01           0.38064479E+00
   0.19400000E+01           0.37501736E+00
   0.19500000E+01           0.36906661E+00
   0.19600000E+01           0.36406479E+00
   0.19700000E+01           0.35807388E+00
   0.19800000E+01           0.35193702E+00
   0.19900000E+01           0.34737934E+00
   0.20000000E+01           0.34104066E+00
   0.20100000E+01           0.33552810E+00
   0.20200000E+01           0.32957273E+00
   0.20300000E+01           0.32419752E+00
   0.20400000E+01           0.31868446E+00
   0.20500000E+01           0.31323025E+00
   0.20600000E+01           0.30790331E+00
   0.20700000E+01           0.30252579E+00
   0.20800000E+01           0.29700942E+00
   0.20900000E+01           0.29226496E+00
   0.21000000E+01           0.28674215E+00
   0.21100000E+01           0.28162711E+00
   0.21200000E+01           0.27680959E+00
   0.21300000E+01           0.27153785E+00
   0.21400000E+01           0.26686793E+00
   0.21500000E+01           0.26157636E+00
   0.21600000E+01           0.25710860E+00
   0.21700000E+01           0.25195025E+00
   0.21800000E+01           0.24740430E+00
   0.21900000E+01           0.24269653E+00
   0.22000000E+01           0.23784380E+00
   0.22100000E+01           0.23290545E+00
   0.22200000E+01           0.22894843E+00
   0.22300000E+01           0.22500645E+00
   0.22400000E+01           0.22025488E+00
   0.22500000E+01           0.21564364E+00
   0.22600000E+01           0.21165653E+00
   0.22700000E+01           0.20732033E+00
   0.22800000E+01           0.20300727E+00
   0.22900000E+01           0.19890810E+00
   0.23000000E+01           0.19516281E+00
   0.23100000E+01           0.19108182E+00
   0.23200000E+01           0.18699157E+00
   0.23300000E+01           0.18314942E+00
   0.23400000E+01           0.17914678E+00
   0.23500000E+01           0.17528413E+00
   0.23600000E+01           0.17171455E+00
   0.23700000E+01           0.16782678E+00
   0.23800000E+01           0.16418645E+00
   0.23900000E+01           0.16070777E+00
   0.24000000E+01           0.15696545E+00
   0.24100000E+01           0.15366413E+00
   0.24200000E+01           0.15020793E+00
   0.24300000E+01           0.14691207E+00
   0.24400000E+01           0.14383835E+00
   0.24500000E+01           0.14030446E+00
   0.24600000E+01           0.13706793E+00
   0.24700000E+01           0.13407405E+00
   0.24800000E+01           0.13075785E+00
   0.24900000E+01           0.12805091E+00
   0.25000000E+01           0.12481537E+00
   0.25100000E+01           0.12198645E+00
   0.25200000E+01           0.11900132E+00
   0.25300000E+01           0.11614694E+00
   0.25400000E+01           0.11345537E+00
   0.25500000E+01           0.11073702E+00
   0.25600000E+01           0.10784430E+00
   0.25700000E+01           0.10511289E+00
   0.25800000E+01           0.10308545E+00
   0.25900000E+01           0.10017884E+00
   0.26000000E+01           0.97465455E-01
   0.26100000E+01           0.94951570E-01
   0.26200000E+01           0.92942975E-01
   0.26300000E+01           0.90390744E-01
   0.26400000E+01           0.88053058E-01
   0.26500000E+01           0.85515207E-01
   0.26600000E+01           0.83455868E-01
   0.26700000E+01           0.81290909E-01
   0.26800000E+01           0.79112727E-01
   0.26900000E+01           0.77203967E-01
   0.27000000E+01           0.74973719E-01
   0.27100000E+01           0.72824132E-01
   0.27200000E+01           0.70960000E-01
   0.27300000E+01           0.69137190E-01
   0.27400000E+01           0.67053388E-01
   0.27500000E+01           0.65209421E-01
   0.27600000E+01           0.63509091E-01
   0.27700000E+01           0.61782975E-01
   0.27800000E+01           0.59812066E-01
   0.27900000E+01           0.58180661E-01
   0.28000000E+01           0.56417190E-01
   0.28100000E+01           0.54915041E-01
   0.28200000E+01           0.53178182E-01
   0.28300000E+01           0.51731570E-01
   0.28400000E+01           0.50090248E-01
   0.28500000E+01           0.48708099E-01
   0.28600000E+01           0.47242810E-01
   0.28700000E+01           0.45765124E-01
   0.28800000E+01           0.44443306E-01
   0.28900000E+01           0.43195372E-01
   0.29000000E+01           0.41788595E-01
   0.29100000E+01           0.40450909E-01
   0.29200000E+01           0.39234050E-01
   0.29300000E+01           0.37937686E-01
   0.29400000E+01           0.36763471E-01
   0.29500000E+01           0.35449421E-01
   0.29600000E+01           0.34274380E-01
   0.29700000E+01           0.33145124E-01
   0.29800000E+01           0.32253223E-01
   0.29900000E+01           0.31187603E-01
   0.30000000E+01           0.30043306E-01
   0.30100000E+01           0.28980331E-01
   0.30200000E+01           0.28030579E-01
   0.30300000E+01           0.27212727E-01
   0.30400000E+01           0.26237851E-01
   0.30500000E+01           0.25385620E-01
   0.30600000E+01           0.24433884E-01
   0.30700000E+01           0.23556033E-01
   0.30800000E+01           0.22826942E-01
   0.30900000E+01           0.21909587E-01
   0.31000000E+01           0.21155537E-01
   0.31100000E+01           0.20355207E-01
   0.31200000E+01           0.19672397E-01
   0.31300000E+01           0.18962479E-01
   0.31400000E+01           0.18188760E-01
   0.31500000E+01           0.17597025E-01
   0.31600000E+01           0.16791901E-01
   0.31700000E+01           0.16225455E-01
   0.31800000E+01           0.15575702E-01
   0.31900000E+01           0.14952893E-01
   0.32000000E+01           0.14394380E-01
   0.32100000E+01           0.13785289E-01
   0.32200000E+01           0.13265455E-01
   0.32300000E+01           0.12667107E-01
   0.32400000E+01           0.12248430E-01
   0.32500000E+01           0.11667273E-01
   0.32600000E+01           0.11157686E-01
   0.32700000E+01           0.10755868E-01
   0.32800000E+01           0.10295868E-01
   0.32900000E+01           0.98927273E-02
   0.33000000E+01           0.95011570E-02
   0.33100000E+01           0.90085950E-02
   0.33200000E+01           0.86948760E-02
   0.33300000E+01           0.81710744E-02
   0.33400000E+01           0.78469421E-02
   0.33500000E+01           0.75338843E-02
   0.33600000E+01           0.71684298E-02
   0.33700000E+01           0.68477686E-02
   0.33800000E+01           0.64641322E-02
   0.33900000E+01           0.62057851E-02
   0.34000000E+01           0.59642975E-02
   0.34100000E+01           0.56186777E-02
   0.34200000E+01           0.53583471E-02
   0.34300000E+01           0.51003306E-02
   0.34400000E+01           0.48295868E-02
   0.34500000E+01           0.45613223E-02
   0.34600000E+01           0.43393388E-02
   0.34700000E+01           0.41295868E-02
   0.34800000E+01           0.39236364E-02
   0.34900000E+01           0.36833058E-02
   0.35000000E+01           0.34520661E-02
   0.35100000E+01           0.32679339E-02
   0.35200000E+01           0.31128926E-02
   0.35300000E+01           0.29039669E-02
   0.35400000E+01           0.27500826E-02
   0.35500000E+01           0.26074380E-02
   0.35600000E+01           0.23935537E-02
   0.35700000E+01           0.22993388E-02
   0.35800000E+01           0.21252893E-02
   0.35900000E+01           0.20105785E-02
   0.36000000E+01           0.18735537E-02
   0.36100000E+01           0.17464463E-02
   0.36200000E+01           0.16299174E-02
   0.36300000E+01           0.15160331E-02
   0.36400000E+01           0.14014876E-02
   0.36500000E+01           0.13424793E-02
   0.36600000E+01           0.12418182E-02
   0.36700000E+01           0.11419835E-02
   0.36800000E+01           0.10608264E-02
   0.36900000E+01           0.99685950E-03
   0.37000000E+01           0.90049587E-03
   0.37100000E+01           0.81123967E-03
   0.37200000E+01           0.76264463E-03
   0.37300000E+01           0.68578512E-03
   0.37400000E+01           0.62479339E-03
   0.37500000E+01           0.55983471E-03
   0.37600000E+01           0.50082645E-03
   0.37700000E+01           0.45504132E-03
   0.37800000E+01           0.41289256E-03
   0.37900000E+01           0.36958678E-03
   0.38000000E+01           0.32462810E-03
   0.38100000E+01           0.28280992E-03
   0.38200000E+01           0.26247934E-03
   0.38300000E+01           0.23041322E-03
   0.38400000E+01           0.19818182E-03
   0.38500000E+01           0.17305785E-03
   0.38600000E+01           0.14809917E-03
   0.38700000E+01           0.12280992E-03
   0.38800000E+01           0.10049587E-03
   0.38900000E+01           0.83471074E-04
   0.39000000E+01           0.62479339E-04
   0.39100000E+01           0.51900826E-04
   0.39200000E+01           0.42975207E-04
   0.39300000E+01           0.31404959E-04
   0.39400000E+01           0.24132231E-04
   0.39500000E+01           0.15867769E-04
   0.39600000E+01           0.95867769E-05
   0.39700000E+01           0.39669421E-05
   0.39800000E+01           0.26446281E-05
   0.39900000E+01           0.82644628E-06
   0.40000000E+01           0.00000000E+00
