 #written on  6Sep2024 at 22:11:16 
 #----------------------------------------------- MONTECARLO ---------------------------------------------------#
 # Temp      Magnetization     Energy_ave          C_M              Sus              U_E              U_M       #
 #--------------------------------------------------------------------------------------------------------------#
   5.0000   0.96783368E+00  -0.92791608E+02   0.10240317E+01   0.43021157E-03   0.66666486E+00   0.66666527E+00
   6.0000   0.96116722E+00  -0.91760469E+02   0.10281464E+01   0.52302680E-03   0.66666400E+00   0.66666461E+00
   7.0000   0.95442769E+00  -0.90724330E+02   0.10398368E+01   0.62263729E-03   0.66666291E+00   0.66666376E+00
   8.0000   0.94761193E+00  -0.89680279E+02   0.10504050E+01   0.73385922E-03   0.66666159E+00   0.66666270E+00
   9.0000   0.94072577E+00  -0.88631470E+02   0.10547881E+01   0.82720080E-03   0.66666007E+00   0.66666156E+00
  10.0000   0.93373622E+00  -0.87574249E+02   0.10641293E+01   0.93848473E-03   0.66665825E+00   0.66666014E+00
  11.0000   0.92666711E+00  -0.86510538E+02   0.10688252E+01   0.10498825E-02   0.66665618E+00   0.66665851E+00
  12.0000   0.91949670E+00  -0.85438946E+02   0.10784305E+01   0.11763329E-02   0.66665376E+00   0.66665654E+00
  13.0000   0.91219270E+00  -0.84357699E+02   0.10856704E+01   0.12825869E-02   0.66665102E+00   0.66665451E+00
  14.0000   0.90484481E+00  -0.83270692E+02   0.10925171E+01   0.14035350E-02   0.66664793E+00   0.66665211E+00
  15.0000   0.89733478E+00  -0.82172861E+02   0.10957291E+01   0.15415156E-02   0.66664451E+00   0.66664925E+00
  16.0000   0.88972700E+00  -0.81067214E+02   0.11109653E+01   0.16685610E-02   0.66664041E+00   0.66664622E+00
  17.0000   0.88199492E+00  -0.79952680E+02   0.11218017E+01   0.18010245E-02   0.66663589E+00   0.66664280E+00
  18.0000   0.87413347E+00  -0.78824751E+02   0.11296132E+01   0.19502663E-02   0.66663093E+00   0.66663881E+00
  19.0000   0.86612992E+00  -0.77689038E+02   0.11379188E+01   0.20855798E-02   0.66662537E+00   0.66663464E+00
  20.0000   0.85801221E+00  -0.76540814E+02   0.11542377E+01   0.22424595E-02   0.66661885E+00   0.66662973E+00
  21.0000   0.84972305E+00  -0.75382341E+02   0.11645588E+01   0.24253612E-02   0.66661184E+00   0.66662390E+00
  22.0000   0.84126720E+00  -0.74208451E+02   0.11765300E+01   0.25895866E-02   0.66660394E+00   0.66661787E+00
  23.0000   0.83266456E+00  -0.73022713E+02   0.11955332E+01   0.27749370E-02   0.66659471E+00   0.66661087E+00
  24.0000   0.82384522E+00  -0.71821307E+02   0.12034511E+01   0.29673950E-02   0.66658515E+00   0.66660307E+00
  25.0000   0.81482005E+00  -0.70607624E+02   0.12230769E+01   0.31743018E-02   0.66657365E+00   0.66659423E+00
  26.0000   0.80562910E+00  -0.69375374E+02   0.12446453E+01   0.34014984E-02   0.66656063E+00   0.66658410E+00
  27.0000   0.79618475E+00  -0.68124573E+02   0.12599517E+01   0.36392103E-02   0.66654663E+00   0.66657276E+00
  28.0000   0.78649740E+00  -0.66857319E+02   0.12750328E+01   0.38987000E-02   0.66653103E+00   0.66655976E+00
  29.0000   0.77655797E+00  -0.65568722E+02   0.12994096E+01   0.41682541E-02   0.66651251E+00   0.66654524E+00
  30.0000   0.76633024E+00  -0.64261626E+02   0.13211946E+01   0.44344595E-02   0.66649205E+00   0.66652946E+00
  31.0000   0.75583476E+00  -0.62933273E+02   0.13412236E+01   0.47472524E-02   0.66646932E+00   0.66651067E+00
  32.0000   0.74495580E+00  -0.61575153E+02   0.13652282E+01   0.50614377E-02   0.66644309E+00   0.66648995E+00
  33.0000   0.73372962E+00  -0.60194612E+02   0.13923312E+01   0.54523708E-02   0.66641296E+00   0.66646434E+00
  34.0000   0.72212511E+00  -0.58783569E+02   0.14214670E+01   0.58665092E-02   0.66637836E+00   0.66643516E+00
  35.0000   0.71007523E+00  -0.57345653E+02   0.14531639E+01   0.63343690E-02   0.66633851E+00   0.66640061E+00
  36.0000   0.69753539E+00  -0.55876489E+02   0.14831966E+01   0.67970194E-02   0.66629349E+00   0.66636243E+00
  37.0000   0.68452494E+00  -0.54375743E+02   0.15176266E+01   0.73611079E-02   0.66624080E+00   0.66631511E+00
  38.0000   0.67086675E+00  -0.52835309E+02   0.15532162E+01   0.80059444E-02   0.66617981E+00   0.66625800E+00
  39.0000   0.65657707E+00  -0.51258427E+02   0.15926504E+01   0.86745547E-02   0.66610802E+00   0.66619238E+00
  40.0000   0.64163441E+00  -0.49644621E+02   0.16343640E+01   0.95291910E-02   0.66602398E+00   0.66610744E+00
  41.0000   0.62579632E+00  -0.47981548E+02   0.16816023E+01   0.10506276E-01   0.66592297E+00   0.66600262E+00
  42.0000   0.60910741E+00  -0.46276851E+02   0.17261731E+01   0.11579496E-01   0.66580574E+00   0.66587583E+00
  43.0000   0.59141168E+00  -0.44520124E+02   0.17776818E+01   0.12904563E-01   0.66566277E+00   0.66571040E+00
  44.0000   0.57255871E+00  -0.42715817E+02   0.18312810E+01   0.14475461E-01   0.66549099E+00   0.66549698E+00
  45.0000   0.55216871E+00  -0.40848804E+02   0.18986329E+01   0.16517593E-01   0.66527258E+00   0.66520067E+00
  46.0000   0.53019393E+00  -0.38916312E+02   0.19566561E+01   0.18919348E-01   0.66501377E+00   0.66480930E+00
  47.0000   0.50637277E+00  -0.36928877E+02   0.20223008E+01   0.22075490E-01   0.66468716E+00   0.66424580E+00
  48.0000   0.47988543E+00  -0.34854048E+02   0.21141787E+01   0.26633264E-01   0.66424572E+00   0.66336028E+00
  49.0000   0.45048953E+00  -0.32706236E+02   0.22054362E+01   0.32744715E-01   0.66368063E+00   0.66199008E+00
  50.0000   0.41680633E+00  -0.30456868E+02   0.22921674E+01   0.41964552E-01   0.66294383E+00   0.65960841E+00
  51.0000   0.37748430E+00  -0.28109574E+02   0.24092661E+01   0.57652978E-01   0.66189649E+00   0.65490219E+00
  52.0000   0.33024274E+00  -0.25662553E+02   0.24957083E+01   0.85007223E-01   0.66050871E+00   0.64466024E+00
  53.0000   0.27280886E+00  -0.23182323E+02   0.24204461E+01   0.12584701E+00   0.65902706E+00   0.62113101E+00
  54.0000   0.21235905E+00  -0.20946630E+02   0.19863556E+01   0.14788256E+00   0.65860297E+00   0.57908052E+00
  55.0000   0.16452094E+00  -0.19233222E+02   0.14637397E+01   0.12910140E+00   0.65931820E+00   0.53358788E+00
  56.0000   0.13232479E+00  -0.17962527E+02   0.11050100E+01   0.98660857E-01   0.66008645E+00   0.50043936E+00
  57.0000   0.11134336E+00  -0.16972932E+02   0.89210417E+00   0.75191046E-01   0.66052235E+00   0.48041257E+00
  58.0000   0.97046810E-01  -0.16151447E+02   0.75557212E+00   0.58546229E-01   0.66073180E+00   0.46937607E+00
  59.0000   0.86750465E-01  -0.15446088E+02   0.66401445E+00   0.47238635E-01   0.66077332E+00   0.46169633E+00
  60.0000   0.79181404E-01  -0.14819361E+02   0.59264626E+00   0.39195294E-01   0.66076251E+00   0.45786329E+00
  61.0000   0.73143798E-01  -0.14254625E+02   0.53670893E+00   0.33231524E-01   0.66069803E+00   0.45493531E+00
  62.0000   0.68335709E-01  -0.13745197E+02   0.48974126E+00   0.28763152E-01   0.66062065E+00   0.45264328E+00
  63.0000   0.64373705E-01  -0.13274110E+02   0.45195200E+00   0.25208501E-01   0.66049299E+00   0.45139136E+00
  64.0000   0.61028136E-01  -0.12842077E+02   0.41639085E+00   0.22411374E-01   0.66039479E+00   0.45013177E+00
  65.0000   0.58180437E-01  -0.12439987E+02   0.38757611E+00   0.20087712E-01   0.66025141E+00   0.44950275E+00
  66.0000   0.55690636E-01  -0.12065022E+02   0.36100512E+00   0.18188892E-01   0.66011857E+00   0.44807546E+00
  67.0000   0.53570610E-01  -0.11715484E+02   0.33862894E+00   0.16545096E-01   0.65995377E+00   0.44839179E+00
  68.0000   0.51664288E-01  -0.11388501E+02   0.31763882E+00   0.15214504E-01   0.65980757E+00   0.44795893E+00
  69.0000   0.50014367E-01  -0.11081108E+02   0.29879926E+00   0.14067187E-01   0.65964888E+00   0.44744586E+00
  70.0000   0.48468286E-01  -0.10791597E+02   0.28201745E+00   0.13006000E-01   0.65948381E+00   0.44741807E+00
  71.0000   0.47166836E-01  -0.10517691E+02   0.26586871E+00   0.12180055E-01   0.65933102E+00   0.44666316E+00
  72.0000   0.45901132E-01  -0.10257581E+02   0.25207378E+00   0.11342826E-01   0.65915050E+00   0.44739610E+00
  73.0000   0.44839226E-01  -0.10012231E+02   0.23840014E+00   0.10724277E-01   0.65899813E+00   0.44635041E+00
  74.0000   0.43751981E-01  -0.97800688E+01   0.22806866E+00   0.10054708E-01   0.65876615E+00   0.44653561E+00
  75.0000   0.42820655E-01  -0.95575096E+01   0.21560639E+00   0.95309514E-02   0.65863434E+00   0.44584130E+00
  76.0000   0.41980659E-01  -0.93444401E+01   0.20720923E+00   0.90203993E-02   0.65837700E+00   0.44626160E+00
  77.0000   0.41244995E-01  -0.91435017E+01   0.19710677E+00   0.85900815E-02   0.65821274E+00   0.44633881E+00
  78.0000   0.40446359E-01  -0.89523944E+01   0.18857993E+00   0.81651995E-02   0.65801283E+00   0.44597584E+00
  79.0000   0.39754832E-01  -0.87677211E+01   0.18016832E+00   0.77823798E-02   0.65782644E+00   0.44640902E+00
  80.0000   0.39090140E-01  -0.85918692E+01   0.17241430E+00   0.74393597E-02   0.65763464E+00   0.44598803E+00
  81.0000   0.38510022E-01  -0.84211501E+01   0.16579403E+00   0.71314485E-02   0.65739398E+00   0.44578808E+00
  82.0000   0.37930640E-01  -0.82613696E+01   0.15893125E+00   0.68434611E-02   0.65721068E+00   0.44515087E+00
  83.0000   0.37414092E-01  -0.81040115E+01   0.15265406E+00   0.65762069E-02   0.65699965E+00   0.44585808E+00
  84.0000   0.36903009E-01  -0.79542624E+01   0.14676213E+00   0.63200405E-02   0.65678308E+00   0.44554352E+00
  85.0000   0.36440923E-01  -0.78108080E+01   0.14119944E+00   0.61000099E-02   0.65657206E+00   0.44530682E+00
  86.0000   0.35999415E-01  -0.76701955E+01   0.13605220E+00   0.58831272E-02   0.65634462E+00   0.44553451E+00
  87.0000   0.35566690E-01  -0.75369520E+01   0.13151939E+00   0.56719395E-02   0.65608918E+00   0.44532770E+00
  88.0000   0.35171191E-01  -0.74081770E+01   0.12650358E+00   0.54784796E-02   0.65590243E+00   0.44543579E+00
  89.0000   0.34794107E-01  -0.72838649E+01   0.12271002E+00   0.52999956E-02   0.65562084E+00   0.44505205E+00
  90.0000   0.34418016E-01  -0.71635174E+01   0.11816561E+00   0.51449999E-02   0.65541977E+00   0.44474485E+00
  91.0000   0.34066993E-01  -0.70474237E+01   0.11401518E+00   0.49740713E-02   0.65520858E+00   0.44551005E+00
  92.0000   0.33751888E-01  -0.69354995E+01   0.11042270E+00   0.48278455E-02   0.65495759E+00   0.44561971E+00
  93.0000   0.33438817E-01  -0.68273418E+01   0.10677662E+00   0.47050715E-02   0.65473011E+00   0.44506320E+00
  94.0000   0.33138672E-01  -0.67224948E+01   0.10382668E+00   0.45665566E-02   0.65443221E+00   0.44464633E+00
  95.0000   0.32834090E-01  -0.66182689E+01   0.10032240E+00   0.44325625E-02   0.65421794E+00   0.44536442E+00
  96.0000   0.32570391E-01  -0.65208455E+01   0.97130865E-01   0.43152896E-02   0.65399223E+00   0.44497282E+00
  97.0000   0.32317564E-01  -0.64251578E+01   0.94371372E-01   0.42047555E-02   0.65371975E+00   0.44503417E+00
  98.0000   0.32086225E-01  -0.63325401E+01   0.91619624E-01   0.40956733E-02   0.65345838E+00   0.44521120E+00
  99.0000   0.31814264E-01  -0.62412804E+01   0.88974417E-01   0.40017370E-02   0.65319379E+00   0.44447527E+00
 100.0000   0.31604777E-01  -0.61540481E+01   0.86356373E-01   0.38951828E-02   0.65295308E+00   0.44543819E+00
 101.0000   0.31360219E-01  -0.60699430E+01   0.84009680E-01   0.38112858E-02   0.65267803E+00   0.44411829E+00
 102.0000   0.31141550E-01  -0.59868456E+01   0.81679297E-01   0.37161295E-02   0.65241386E+00   0.44482342E+00
 103.0000   0.30929825E-01  -0.59064941E+01   0.79478329E-01   0.36295195E-02   0.65214461E+00   0.44487668E+00
 104.0000   0.30743067E-01  -0.58280016E+01   0.77309082E-01   0.35539557E-02   0.65187884E+00   0.44464563E+00
