 #written on 11Aug2024 at 12:16:29 
 #----------------- MONTECARLO -------------------#
 #        M                      P(M)             #
 #------------------------------------------------#
 #T=     1.0000
  -0.20000000E+01           0.00000000E+00
  -0.19900000E+01           0.00000000E+00
  -0.19800000E+01           0.00000000E+00
  -0.19700000E+01           0.00000000E+00
  -0.19600000E+01           0.00000000E+00
  -0.19500000E+01           0.00000000E+00
  -0.19400000E+01           0.00000000E+00
  -0.19300000E+01           0.00000000E+00
  -0.19200000E+01           0.00000000E+00
  -0.19100000E+01           0.00000000E+00
  -0.19000000E+01           0.00000000E+00
  -0.18900000E+01           0.00000000E+00
  -0.18800000E+01           0.00000000E+00
  -0.18700000E+01           0.00000000E+00
  -0.18600000E+01           0.00000000E+00
  -0.18500000E+01           0.00000000E+00
  -0.18400000E+01           0.00000000E+00
  -0.18300000E+01           0.00000000E+00
  -0.18200000E+01           0.00000000E+00
  -0.18100000E+01           0.00000000E+00
  -0.18000000E+01           0.00000000E+00
  -0.17900000E+01           0.00000000E+00
  -0.17800000E+01           0.00000000E+00
  -0.17700000E+01           0.00000000E+00
  -0.17600000E+01           0.00000000E+00
  -0.17500000E+01           0.00000000E+00
  -0.17400000E+01           0.00000000E+00
  -0.17300000E+01           0.00000000E+00
  -0.17200000E+01           0.00000000E+00
  -0.17100000E+01           0.00000000E+00
  -0.17000000E+01           0.00000000E+00
  -0.16900000E+01           0.00000000E+00
  -0.16800000E+01           0.00000000E+00
  -0.16700000E+01           0.00000000E+00
  -0.16600000E+01           0.00000000E+00
  -0.16500000E+01           0.00000000E+00
  -0.16400000E+01           0.00000000E+00
  -0.16300000E+01           0.00000000E+00
  -0.16200000E+01           0.00000000E+00
  -0.16100000E+01           0.00000000E+00
  -0.16000000E+01           0.00000000E+00
  -0.15900000E+01           0.00000000E+00
  -0.15800000E+01           0.00000000E+00
  -0.15700000E+01           0.00000000E+00
  -0.15600000E+01           0.00000000E+00
  -0.15500000E+01           0.00000000E+00
  -0.15400000E+01           0.00000000E+00
  -0.15300000E+01           0.00000000E+00
  -0.15200000E+01           0.00000000E+00
  -0.15100000E+01           0.00000000E+00
  -0.15000000E+01           0.00000000E+00
  -0.14900000E+01           0.00000000E+00
  -0.14800000E+01           0.00000000E+00
  -0.14700000E+01           0.00000000E+00
  -0.14600000E+01           0.00000000E+00
  -0.14500000E+01           0.00000000E+00
  -0.14400000E+01           0.00000000E+00
  -0.14300000E+01           0.00000000E+00
  -0.14200000E+01           0.00000000E+00
  -0.14100000E+01           0.00000000E+00
  -0.14000000E+01           0.00000000E+00
  -0.13900000E+01           0.00000000E+00
  -0.13800000E+01           0.00000000E+00
  -0.13700000E+01           0.00000000E+00
  -0.13600000E+01           0.00000000E+00
  -0.13500000E+01           0.00000000E+00
  -0.13400000E+01           0.00000000E+00
  -0.13300000E+01           0.00000000E+00
  -0.13200000E+01           0.00000000E+00
  -0.13100000E+01           0.00000000E+00
  -0.13000000E+01           0.00000000E+00
  -0.12900000E+01           0.00000000E+00
  -0.12800000E+01           0.00000000E+00
  -0.12700000E+01           0.00000000E+00
  -0.12600000E+01           0.00000000E+00
  -0.12500000E+01           0.00000000E+00
  -0.12400000E+01           0.00000000E+00
  -0.12300000E+01           0.00000000E+00
  -0.12200000E+01           0.00000000E+00
  -0.12100000E+01           0.00000000E+00
  -0.12000000E+01           0.00000000E+00
  -0.11900000E+01           0.00000000E+00
  -0.11800000E+01           0.00000000E+00
  -0.11700000E+01           0.00000000E+00
  -0.11600000E+01           0.00000000E+00
  -0.11500000E+01           0.00000000E+00
  -0.11400000E+01           0.00000000E+00
  -0.11300000E+01           0.00000000E+00
  -0.11200000E+01           0.00000000E+00
  -0.11100000E+01           0.00000000E+00
  -0.11000000E+01           0.00000000E+00
  -0.10900000E+01           0.00000000E+00
  -0.10800000E+01           0.00000000E+00
  -0.10700000E+01           0.00000000E+00
  -0.10600000E+01           0.00000000E+00
  -0.10500000E+01           0.00000000E+00
  -0.10400000E+01           0.00000000E+00
  -0.10300000E+01           0.00000000E+00
  -0.10200000E+01           0.00000000E+00
  -0.10100000E+01           0.00000000E+00
  -0.10000000E+01           0.00000000E+00
  -0.99000000E+00           0.00000000E+00
  -0.98000000E+00           0.00000000E+00
  -0.97000000E+00           0.00000000E+00
  -0.96000000E+00           0.00000000E+00
  -0.95000000E+00           0.00000000E+00
  -0.94000000E+00           0.00000000E+00
  -0.93000000E+00           0.00000000E+00
  -0.92000000E+00           0.00000000E+00
  -0.91000000E+00           0.00000000E+00
  -0.90000000E+00           0.00000000E+00
  -0.89000000E+00           0.00000000E+00
  -0.88000000E+00           0.00000000E+00
  -0.87000000E+00           0.00000000E+00
  -0.86000000E+00           0.00000000E+00
  -0.85000000E+00           0.00000000E+00
  -0.84000000E+00           0.00000000E+00
  -0.83000000E+00           0.00000000E+00
  -0.82000000E+00           0.00000000E+00
  -0.81000000E+00           0.00000000E+00
  -0.80000000E+00           0.00000000E+00
  -0.79000000E+00           0.00000000E+00
  -0.78000000E+00           0.00000000E+00
  -0.77000000E+00           0.00000000E+00
  -0.76000000E+00           0.00000000E+00
  -0.75000000E+00           0.00000000E+00
  -0.74000000E+00           0.00000000E+00
  -0.73000000E+00           0.00000000E+00
  -0.72000000E+00           0.00000000E+00
  -0.71000000E+00           0.00000000E+00
  -0.70000000E+00           0.00000000E+00
  -0.69000000E+00           0.00000000E+00
  -0.68000000E+00           0.00000000E+00
  -0.67000000E+00           0.00000000E+00
  -0.66000000E+00           0.00000000E+00
  -0.65000000E+00           0.00000000E+00
  -0.64000000E+00           0.00000000E+00
  -0.63000000E+00           0.00000000E+00
  -0.62000000E+00           0.00000000E+00
  -0.61000000E+00           0.00000000E+00
  -0.60000000E+00           0.00000000E+00
  -0.59000000E+00           0.00000000E+00
  -0.58000000E+00           0.00000000E+00
  -0.57000000E+00           0.00000000E+00
  -0.56000000E+00           0.00000000E+00
  -0.55000000E+00           0.00000000E+00
  -0.54000000E+00           0.00000000E+00
  -0.53000000E+00           0.00000000E+00
  -0.52000000E+00           0.00000000E+00
  -0.51000000E+00           0.00000000E+00
  -0.50000000E+00           0.00000000E+00
  -0.49000000E+00           0.00000000E+00
  -0.48000000E+00           0.00000000E+00
  -0.47000000E+00           0.00000000E+00
  -0.46000000E+00           0.00000000E+00
  -0.45000000E+00           0.00000000E+00
  -0.44000000E+00           0.00000000E+00
  -0.43000000E+00           0.00000000E+00
  -0.42000000E+00           0.00000000E+00
  -0.41000000E+00           0.00000000E+00
  -0.40000000E+00           0.00000000E+00
  -0.39000000E+00           0.00000000E+00
  -0.38000000E+00           0.00000000E+00
  -0.37000000E+00           0.00000000E+00
  -0.36000000E+00           0.00000000E+00
  -0.35000000E+00           0.00000000E+00
  -0.34000000E+00           0.00000000E+00
  -0.33000000E+00           0.00000000E+00
  -0.32000000E+00           0.00000000E+00
  -0.31000000E+00           0.00000000E+00
  -0.30000000E+00           0.00000000E+00
  -0.29000000E+00           0.00000000E+00
  -0.28000000E+00           0.00000000E+00
  -0.27000000E+00           0.00000000E+00
  -0.26000000E+00           0.00000000E+00
  -0.25000000E+00           0.00000000E+00
  -0.24000000E+00           0.00000000E+00
  -0.23000000E+00           0.00000000E+00
  -0.22000000E+00           0.00000000E+00
  -0.21000000E+00           0.00000000E+00
  -0.20000000E+00           0.00000000E+00
  -0.19000000E+00           0.00000000E+00
  -0.18000000E+00           0.00000000E+00
  -0.17000000E+00           0.00000000E+00
  -0.16000000E+00           0.00000000E+00
  -0.15000000E+00           0.00000000E+00
  -0.14000000E+00           0.00000000E+00
  -0.13000000E+00           0.00000000E+00
  -0.12000000E+00           0.00000000E+00
  -0.11000000E+00           0.00000000E+00
  -0.10000000E+00           0.00000000E+00
  -0.90000000E-01           0.00000000E+00
  -0.80000000E-01           0.00000000E+00
  -0.70000000E-01           0.00000000E+00
  -0.60000000E-01           0.00000000E+00
  -0.50000000E-01           0.00000000E+00
  -0.40000000E-01           0.00000000E+00
  -0.30000000E-01           0.00000000E+00
  -0.20000000E-01           0.00000000E+00
  -0.10000000E-01           0.00000000E+00
   0.00000000E+00           0.15915071E+00
   0.10000000E-01           0.12650707E+01
   0.20000000E-01           0.24742291E+01
   0.30000000E-01           0.36031883E+01
   0.40000000E-01           0.45929317E+01
   0.50000000E-01           0.54244573E+01
   0.60000000E-01           0.60743984E+01
   0.70000000E-01           0.65127513E+01
   0.80000000E-01           0.67737909E+01
   0.90000000E-01           0.68324724E+01
   0.10000000E+00           0.67323062E+01
   0.11000000E+00           0.64789247E+01
   0.12000000E+00           0.61061525E+01
   0.13000000E+00           0.56467773E+01
   0.14000000E+00           0.51151336E+01
   0.15000000E+00           0.45653086E+01
   0.16000000E+00           0.39977612E+01
   0.17000000E+00           0.34409131E+01
   0.18000000E+00           0.29173184E+01
   0.19000000E+00           0.24325517E+01
   0.20000000E+00           0.19912663E+01
   0.21000000E+00           0.16136994E+01
   0.22000000E+00           0.12855272E+01
   0.23000000E+00           0.10095283E+01
   0.24000000E+00           0.78129965E+00
   0.25000000E+00           0.59480351E+00
   0.26000000E+00           0.44618097E+00
   0.27000000E+00           0.33007449E+00
   0.28000000E+00           0.24165011E+00
   0.29000000E+00           0.17382175E+00
   0.30000000E+00           0.12343305E+00
   0.31000000E+00           0.86397119E-01
   0.32000000E+00           0.59491326E-01
   0.33000000E+00           0.40390092E-01
   0.34000000E+00           0.27205856E-01
   0.35000000E+00           0.17900443E-01
   0.36000000E+00           0.11746470E-01
   0.37000000E+00           0.75310225E-02
   0.38000000E+00           0.47742007E-02
   0.39000000E+00           0.30885090E-02
   0.40000000E+00           0.18197531E-02
   0.41000000E+00           0.11208294E-02
   0.42000000E+00           0.68711618E-03
   0.43000000E+00           0.41975309E-03
   0.44000000E+00           0.23045267E-03
   0.45000000E+00           0.14229186E-03
   0.46000000E+00           0.83570750E-04
   0.47000000E+00           0.42830009E-04
   0.48000000E+00           0.25419437E-04
   0.49000000E+00           0.15289649E-04
   0.50000000E+00           0.67109845E-05
   0.51000000E+00           0.37037037E-05
   0.52000000E+00           0.15827794E-05
   0.53000000E+00           0.10129788E-05
   0.54000000E+00           0.75973409E-06
   0.55000000E+00           0.18993352E-06
   0.56000000E+00           0.00000000E+00
   0.57000000E+00           0.00000000E+00
   0.58000000E+00           0.31655587E-07
   0.59000000E+00           0.37986705E-06
   0.60000000E+00           0.63311174E-07
   0.61000000E+00           0.00000000E+00
   0.62000000E+00           0.00000000E+00
   0.63000000E+00           0.00000000E+00
   0.64000000E+00           0.00000000E+00
   0.65000000E+00           0.00000000E+00
   0.66000000E+00           0.00000000E+00
   0.67000000E+00           0.00000000E+00
   0.68000000E+00           0.00000000E+00
   0.69000000E+00           0.00000000E+00
   0.70000000E+00           0.00000000E+00
   0.71000000E+00           0.00000000E+00
   0.72000000E+00           0.31655587E-07
   0.73000000E+00           0.00000000E+00
   0.74000000E+00           0.00000000E+00
   0.75000000E+00           0.00000000E+00
   0.76000000E+00           0.63311174E-07
   0.77000000E+00           0.00000000E+00
   0.78000000E+00           0.00000000E+00
   0.79000000E+00           0.00000000E+00
   0.80000000E+00           0.00000000E+00
   0.81000000E+00           0.00000000E+00
   0.82000000E+00           0.00000000E+00
   0.83000000E+00           0.00000000E+00
   0.84000000E+00           0.00000000E+00
   0.85000000E+00           0.00000000E+00
   0.86000000E+00           0.00000000E+00
   0.87000000E+00           0.00000000E+00
   0.88000000E+00           0.00000000E+00
   0.89000000E+00           0.00000000E+00
   0.90000000E+00           0.00000000E+00
   0.91000000E+00           0.00000000E+00
   0.92000000E+00           0.00000000E+00
   0.93000000E+00           0.00000000E+00
   0.94000000E+00           0.00000000E+00
   0.95000000E+00           0.31655587E-07
   0.96000000E+00           0.00000000E+00
   0.97000000E+00           0.00000000E+00
   0.98000000E+00           0.00000000E+00
   0.99000000E+00           0.31655587E-07
   0.10000000E+01           0.00000000E+00
   0.10100000E+01           0.00000000E+00
   0.10200000E+01           0.00000000E+00
   0.10300000E+01           0.00000000E+00
   0.10400000E+01           0.00000000E+00
   0.10500000E+01           0.00000000E+00
   0.10600000E+01           0.00000000E+00
   0.10700000E+01           0.00000000E+00
   0.10800000E+01           0.00000000E+00
   0.10900000E+01           0.00000000E+00
   0.11000000E+01           0.00000000E+00
   0.11100000E+01           0.00000000E+00
   0.11200000E+01           0.00000000E+00
   0.11300000E+01           0.00000000E+00
   0.11400000E+01           0.00000000E+00
   0.11500000E+01           0.00000000E+00
   0.11600000E+01           0.00000000E+00
   0.11700000E+01           0.00000000E+00
   0.11800000E+01           0.00000000E+00
   0.11900000E+01           0.00000000E+00
   0.12000000E+01           0.00000000E+00
   0.12100000E+01           0.00000000E+00
   0.12200000E+01           0.00000000E+00
   0.12300000E+01           0.00000000E+00
   0.12400000E+01           0.00000000E+00
   0.12500000E+01           0.00000000E+00
   0.12600000E+01           0.00000000E+00
   0.12700000E+01           0.00000000E+00
   0.12800000E+01           0.31655587E-07
   0.12900000E+01           0.00000000E+00
   0.13000000E+01           0.00000000E+00
   0.13100000E+01           0.00000000E+00
   0.13200000E+01           0.00000000E+00
   0.13300000E+01           0.00000000E+00
   0.13400000E+01           0.00000000E+00
   0.13500000E+01           0.00000000E+00
   0.13600000E+01           0.00000000E+00
   0.13700000E+01           0.00000000E+00
   0.13800000E+01           0.00000000E+00
   0.13900000E+01           0.00000000E+00
   0.14000000E+01           0.00000000E+00
   0.14100000E+01           0.00000000E+00
   0.14200000E+01           0.00000000E+00
   0.14300000E+01           0.00000000E+00
   0.14400000E+01           0.00000000E+00
   0.14500000E+01           0.00000000E+00
   0.14600000E+01           0.00000000E+00
   0.14700000E+01           0.00000000E+00
   0.14800000E+01           0.00000000E+00
   0.14900000E+01           0.00000000E+00
   0.15000000E+01           0.00000000E+00
   0.15100000E+01           0.00000000E+00
   0.15200000E+01           0.00000000E+00
   0.15300000E+01           0.00000000E+00
   0.15400000E+01           0.31655587E-07
   0.15500000E+01           0.31655587E-07
   0.15600000E+01           0.00000000E+00
   0.15700000E+01           0.00000000E+00
   0.15800000E+01           0.00000000E+00
   0.15900000E+01           0.00000000E+00
   0.16000000E+01           0.00000000E+00
   0.16100000E+01           0.00000000E+00
   0.16200000E+01           0.00000000E+00
   0.16300000E+01           0.00000000E+00
   0.16400000E+01           0.00000000E+00
   0.16500000E+01           0.00000000E+00
   0.16600000E+01           0.00000000E+00
   0.16700000E+01           0.00000000E+00
   0.16800000E+01           0.00000000E+00
   0.16900000E+01           0.00000000E+00
   0.17000000E+01           0.00000000E+00
   0.17100000E+01           0.00000000E+00
   0.17200000E+01           0.00000000E+00
   0.17300000E+01           0.00000000E+00
   0.17400000E+01           0.00000000E+00
   0.17500000E+01           0.00000000E+00
   0.17600000E+01           0.00000000E+00
   0.17700000E+01           0.00000000E+00
   0.17800000E+01           0.00000000E+00
   0.17900000E+01           0.00000000E+00
   0.18000000E+01           0.00000000E+00
   0.18100000E+01           0.00000000E+00
   0.18200000E+01           0.00000000E+00
   0.18300000E+01           0.00000000E+00
   0.18400000E+01           0.00000000E+00
   0.18500000E+01           0.00000000E+00
   0.18600000E+01           0.00000000E+00
   0.18700000E+01           0.00000000E+00
   0.18800000E+01           0.00000000E+00
   0.18900000E+01           0.00000000E+00
   0.19000000E+01           0.00000000E+00
   0.19100000E+01           0.00000000E+00
   0.19200000E+01           0.00000000E+00
   0.19300000E+01           0.00000000E+00
   0.19400000E+01           0.00000000E+00
   0.19500000E+01           0.00000000E+00
   0.19600000E+01           0.00000000E+00
   0.19700000E+01           0.00000000E+00
   0.19800000E+01           0.00000000E+00
   0.19900000E+01           0.00000000E+00
   0.20000000E+01           0.00000000E+00
 #T=     2.0000
  -0.20000000E+01           0.00000000E+00
  -0.19900000E+01           0.00000000E+00
  -0.19800000E+01           0.00000000E+00
  -0.19700000E+01           0.00000000E+00
  -0.19600000E+01           0.00000000E+00
  -0.19500000E+01           0.00000000E+00
  -0.19400000E+01           0.00000000E+00
  -0.19300000E+01           0.00000000E+00
  -0.19200000E+01           0.00000000E+00
  -0.19100000E+01           0.00000000E+00
  -0.19000000E+01           0.00000000E+00
  -0.18900000E+01           0.00000000E+00
  -0.18800000E+01           0.00000000E+00
  -0.18700000E+01           0.00000000E+00
  -0.18600000E+01           0.00000000E+00
  -0.18500000E+01           0.00000000E+00
  -0.18400000E+01           0.00000000E+00
  -0.18300000E+01           0.00000000E+00
  -0.18200000E+01           0.00000000E+00
  -0.18100000E+01           0.00000000E+00
  -0.18000000E+01           0.00000000E+00
  -0.17900000E+01           0.00000000E+00
  -0.17800000E+01           0.00000000E+00
  -0.17700000E+01           0.00000000E+00
  -0.17600000E+01           0.00000000E+00
  -0.17500000E+01           0.00000000E+00
  -0.17400000E+01           0.00000000E+00
  -0.17300000E+01           0.00000000E+00
  -0.17200000E+01           0.00000000E+00
  -0.17100000E+01           0.00000000E+00
  -0.17000000E+01           0.00000000E+00
  -0.16900000E+01           0.00000000E+00
  -0.16800000E+01           0.00000000E+00
  -0.16700000E+01           0.00000000E+00
  -0.16600000E+01           0.00000000E+00
  -0.16500000E+01           0.00000000E+00
  -0.16400000E+01           0.00000000E+00
  -0.16300000E+01           0.00000000E+00
  -0.16200000E+01           0.00000000E+00
  -0.16100000E+01           0.00000000E+00
  -0.16000000E+01           0.00000000E+00
  -0.15900000E+01           0.00000000E+00
  -0.15800000E+01           0.00000000E+00
  -0.15700000E+01           0.00000000E+00
  -0.15600000E+01           0.00000000E+00
  -0.15500000E+01           0.00000000E+00
  -0.15400000E+01           0.00000000E+00
  -0.15300000E+01           0.00000000E+00
  -0.15200000E+01           0.00000000E+00
  -0.15100000E+01           0.00000000E+00
  -0.15000000E+01           0.00000000E+00
  -0.14900000E+01           0.00000000E+00
  -0.14800000E+01           0.00000000E+00
  -0.14700000E+01           0.00000000E+00
  -0.14600000E+01           0.00000000E+00
  -0.14500000E+01           0.00000000E+00
  -0.14400000E+01           0.00000000E+00
  -0.14300000E+01           0.00000000E+00
  -0.14200000E+01           0.00000000E+00
  -0.14100000E+01           0.00000000E+00
  -0.14000000E+01           0.00000000E+00
  -0.13900000E+01           0.00000000E+00
  -0.13800000E+01           0.00000000E+00
  -0.13700000E+01           0.00000000E+00
  -0.13600000E+01           0.00000000E+00
  -0.13500000E+01           0.00000000E+00
  -0.13400000E+01           0.00000000E+00
  -0.13300000E+01           0.00000000E+00
  -0.13200000E+01           0.00000000E+00
  -0.13100000E+01           0.00000000E+00
  -0.13000000E+01           0.00000000E+00
  -0.12900000E+01           0.00000000E+00
  -0.12800000E+01           0.00000000E+00
  -0.12700000E+01           0.00000000E+00
  -0.12600000E+01           0.00000000E+00
  -0.12500000E+01           0.00000000E+00
  -0.12400000E+01           0.00000000E+00
  -0.12300000E+01           0.00000000E+00
  -0.12200000E+01           0.00000000E+00
  -0.12100000E+01           0.00000000E+00
  -0.12000000E+01           0.00000000E+00
  -0.11900000E+01           0.00000000E+00
  -0.11800000E+01           0.00000000E+00
  -0.11700000E+01           0.00000000E+00
  -0.11600000E+01           0.00000000E+00
  -0.11500000E+01           0.00000000E+00
  -0.11400000E+01           0.00000000E+00
  -0.11300000E+01           0.00000000E+00
  -0.11200000E+01           0.00000000E+00
  -0.11100000E+01           0.00000000E+00
  -0.11000000E+01           0.00000000E+00
  -0.10900000E+01           0.00000000E+00
  -0.10800000E+01           0.00000000E+00
  -0.10700000E+01           0.00000000E+00
  -0.10600000E+01           0.00000000E+00
  -0.10500000E+01           0.00000000E+00
  -0.10400000E+01           0.00000000E+00
  -0.10300000E+01           0.00000000E+00
  -0.10200000E+01           0.00000000E+00
  -0.10100000E+01           0.00000000E+00
  -0.10000000E+01           0.00000000E+00
  -0.99000000E+00           0.00000000E+00
  -0.98000000E+00           0.00000000E+00
  -0.97000000E+00           0.00000000E+00
  -0.96000000E+00           0.00000000E+00
  -0.95000000E+00           0.00000000E+00
  -0.94000000E+00           0.00000000E+00
  -0.93000000E+00           0.00000000E+00
  -0.92000000E+00           0.00000000E+00
  -0.91000000E+00           0.00000000E+00
  -0.90000000E+00           0.00000000E+00
  -0.89000000E+00           0.00000000E+00
  -0.88000000E+00           0.00000000E+00
  -0.87000000E+00           0.00000000E+00
  -0.86000000E+00           0.00000000E+00
  -0.85000000E+00           0.00000000E+00
  -0.84000000E+00           0.00000000E+00
  -0.83000000E+00           0.00000000E+00
  -0.82000000E+00           0.00000000E+00
  -0.81000000E+00           0.00000000E+00
  -0.80000000E+00           0.00000000E+00
  -0.79000000E+00           0.00000000E+00
  -0.78000000E+00           0.00000000E+00
  -0.77000000E+00           0.00000000E+00
  -0.76000000E+00           0.00000000E+00
  -0.75000000E+00           0.00000000E+00
  -0.74000000E+00           0.00000000E+00
  -0.73000000E+00           0.00000000E+00
  -0.72000000E+00           0.00000000E+00
  -0.71000000E+00           0.00000000E+00
  -0.70000000E+00           0.00000000E+00
  -0.69000000E+00           0.00000000E+00
  -0.68000000E+00           0.00000000E+00
  -0.67000000E+00           0.00000000E+00
  -0.66000000E+00           0.00000000E+00
  -0.65000000E+00           0.00000000E+00
  -0.64000000E+00           0.00000000E+00
  -0.63000000E+00           0.00000000E+00
  -0.62000000E+00           0.00000000E+00
  -0.61000000E+00           0.00000000E+00
  -0.60000000E+00           0.00000000E+00
  -0.59000000E+00           0.00000000E+00
  -0.58000000E+00           0.00000000E+00
  -0.57000000E+00           0.00000000E+00
  -0.56000000E+00           0.00000000E+00
  -0.55000000E+00           0.00000000E+00
  -0.54000000E+00           0.00000000E+00
  -0.53000000E+00           0.00000000E+00
  -0.52000000E+00           0.00000000E+00
  -0.51000000E+00           0.00000000E+00
  -0.50000000E+00           0.00000000E+00
  -0.49000000E+00           0.00000000E+00
  -0.48000000E+00           0.00000000E+00
  -0.47000000E+00           0.00000000E+00
  -0.46000000E+00           0.00000000E+00
  -0.45000000E+00           0.00000000E+00
  -0.44000000E+00           0.00000000E+00
  -0.43000000E+00           0.00000000E+00
  -0.42000000E+00           0.00000000E+00
  -0.41000000E+00           0.00000000E+00
  -0.40000000E+00           0.00000000E+00
  -0.39000000E+00           0.00000000E+00
  -0.38000000E+00           0.00000000E+00
  -0.37000000E+00           0.00000000E+00
  -0.36000000E+00           0.00000000E+00
  -0.35000000E+00           0.00000000E+00
  -0.34000000E+00           0.00000000E+00
  -0.33000000E+00           0.00000000E+00
  -0.32000000E+00           0.00000000E+00
  -0.31000000E+00           0.00000000E+00
  -0.30000000E+00           0.00000000E+00
  -0.29000000E+00           0.00000000E+00
  -0.28000000E+00           0.00000000E+00
  -0.27000000E+00           0.00000000E+00
  -0.26000000E+00           0.00000000E+00
  -0.25000000E+00           0.00000000E+00
  -0.24000000E+00           0.00000000E+00
  -0.23000000E+00           0.00000000E+00
  -0.22000000E+00           0.00000000E+00
  -0.21000000E+00           0.00000000E+00
  -0.20000000E+00           0.00000000E+00
  -0.19000000E+00           0.00000000E+00
  -0.18000000E+00           0.00000000E+00
  -0.17000000E+00           0.00000000E+00
  -0.16000000E+00           0.00000000E+00
  -0.15000000E+00           0.00000000E+00
  -0.14000000E+00           0.00000000E+00
  -0.13000000E+00           0.00000000E+00
  -0.12000000E+00           0.00000000E+00
  -0.11000000E+00           0.00000000E+00
  -0.10000000E+00           0.00000000E+00
  -0.90000000E-01           0.00000000E+00
  -0.80000000E-01           0.00000000E+00
  -0.70000000E-01           0.00000000E+00
  -0.60000000E-01           0.00000000E+00
  -0.50000000E-01           0.00000000E+00
  -0.40000000E-01           0.00000000E+00
  -0.30000000E-01           0.00000000E+00
  -0.20000000E-01           0.00000000E+00
  -0.10000000E-01           0.00000000E+00
   0.00000000E+00           0.78992371E-01
   0.10000000E-01           0.63108215E+00
   0.20000000E-01           0.12512087E+01
   0.30000000E-01           0.18445827E+01
   0.40000000E-01           0.24060398E+01
   0.50000000E-01           0.29246583E+01
   0.60000000E-01           0.33894250E+01
   0.70000000E-01           0.37991389E+01
   0.80000000E-01           0.41372746E+01
   0.90000000E-01           0.44144260E+01
   0.10000000E+00           0.46157044E+01
   0.11000000E+00           0.47533552E+01
   0.12000000E+00           0.48216959E+01
   0.13000000E+00           0.48226930E+01
   0.14000000E+00           0.47718878E+01
   0.15000000E+00           0.46656562E+01
   0.16000000E+00           0.45091820E+01
   0.17000000E+00           0.43131480E+01
   0.18000000E+00           0.40881566E+01
   0.19000000E+00           0.38413969E+01
   0.20000000E+00           0.35718171E+01
   0.21000000E+00           0.32914468E+01
   0.22000000E+00           0.30121923E+01
   0.23000000E+00           0.27295139E+01
   0.24000000E+00           0.24545330E+01
   0.25000000E+00           0.21863524E+01
   0.26000000E+00           0.19340688E+01
   0.27000000E+00           0.16967960E+01
   0.28000000E+00           0.14781014E+01
   0.29000000E+00           0.12767091E+01
   0.30000000E+00           0.10953287E+01
   0.31000000E+00           0.93204131E+00
   0.32000000E+00           0.78797683E+00
   0.33000000E+00           0.65989759E+00
   0.34000000E+00           0.54999513E+00
   0.35000000E+00           0.45426578E+00
   0.36000000E+00           0.37226717E+00
   0.37000000E+00           0.30281421E+00
   0.38000000E+00           0.24531985E+00
   0.39000000E+00           0.19662748E+00
   0.40000000E+00           0.15685828E+00
   0.41000000E+00           0.12363900E+00
   0.42000000E+00           0.96791200E-01
   0.43000000E+00           0.76110700E-01
   0.44000000E+00           0.59025261E-01
   0.45000000E+00           0.45249921E-01
   0.46000000E+00           0.34322602E-01
   0.47000000E+00           0.26098132E-01
   0.48000000E+00           0.19774960E-01
   0.49000000E+00           0.14634505E-01
   0.50000000E+00           0.10961159E-01
   0.51000000E+00           0.81583412E-02
   0.52000000E+00           0.58996201E-02
   0.53000000E+00           0.42787274E-02
   0.54000000E+00           0.30795821E-02
   0.55000000E+00           0.22190567E-02
   0.56000000E+00           0.15662235E-02
   0.57000000E+00           0.10976258E-02
   0.58000000E+00           0.78005698E-03
   0.59000000E+00           0.53260525E-03
   0.60000000E+00           0.37230136E-03
   0.61000000E+00           0.24887623E-03
   0.62000000E+00           0.18328585E-03
   0.63000000E+00           0.12057613E-03
   0.64000000E+00           0.79392213E-04
   0.65000000E+00           0.52611586E-04
   0.66000000E+00           0.31054131E-04
   0.67000000E+00           0.21399177E-04
   0.68000000E+00           0.13706869E-04
   0.69000000E+00           0.11396011E-04
   0.70000000E+00           0.54764166E-05
   0.71000000E+00           0.55080722E-05
   0.72000000E+00           0.31022475E-05
   0.73000000E+00           0.18676796E-05
   0.74000000E+00           0.15827794E-05
   0.75000000E+00           0.41152263E-06
   0.76000000E+00           0.25324470E-06
   0.77000000E+00           0.94966762E-07
   0.78000000E+00           0.12662235E-06
   0.79000000E+00           0.00000000E+00
   0.80000000E+00           0.63311174E-07
   0.81000000E+00           0.00000000E+00
   0.82000000E+00           0.00000000E+00
   0.83000000E+00           0.00000000E+00
   0.84000000E+00           0.00000000E+00
   0.85000000E+00           0.00000000E+00
   0.86000000E+00           0.00000000E+00
   0.87000000E+00           0.00000000E+00
   0.88000000E+00           0.00000000E+00
   0.89000000E+00           0.00000000E+00
   0.90000000E+00           0.00000000E+00
   0.91000000E+00           0.00000000E+00
   0.92000000E+00           0.00000000E+00
   0.93000000E+00           0.00000000E+00
   0.94000000E+00           0.00000000E+00
   0.95000000E+00           0.31655587E-07
   0.96000000E+00           0.00000000E+00
   0.97000000E+00           0.00000000E+00
   0.98000000E+00           0.00000000E+00
   0.99000000E+00           0.00000000E+00
   0.10000000E+01           0.00000000E+00
   0.10100000E+01           0.00000000E+00
   0.10200000E+01           0.00000000E+00
   0.10300000E+01           0.00000000E+00
   0.10400000E+01           0.00000000E+00
   0.10500000E+01           0.00000000E+00
   0.10600000E+01           0.00000000E+00
   0.10700000E+01           0.00000000E+00
   0.10800000E+01           0.00000000E+00
   0.10900000E+01           0.00000000E+00
   0.11000000E+01           0.00000000E+00
   0.11100000E+01           0.00000000E+00
   0.11200000E+01           0.00000000E+00
   0.11300000E+01           0.00000000E+00
   0.11400000E+01           0.00000000E+00
   0.11500000E+01           0.00000000E+00
   0.11600000E+01           0.00000000E+00
   0.11700000E+01           0.00000000E+00
   0.11800000E+01           0.00000000E+00
   0.11900000E+01           0.00000000E+00
   0.12000000E+01           0.00000000E+00
   0.12100000E+01           0.00000000E+00
   0.12200000E+01           0.00000000E+00
   0.12300000E+01           0.00000000E+00
   0.12400000E+01           0.00000000E+00
   0.12500000E+01           0.00000000E+00
   0.12600000E+01           0.00000000E+00
   0.12700000E+01           0.00000000E+00
   0.12800000E+01           0.00000000E+00
   0.12900000E+01           0.00000000E+00
   0.13000000E+01           0.00000000E+00
   0.13100000E+01           0.00000000E+00
   0.13200000E+01           0.00000000E+00
   0.13300000E+01           0.00000000E+00
   0.13400000E+01           0.00000000E+00
   0.13500000E+01           0.00000000E+00
   0.13600000E+01           0.00000000E+00
   0.13700000E+01           0.00000000E+00
   0.13800000E+01           0.00000000E+00
   0.13900000E+01           0.00000000E+00
   0.14000000E+01           0.00000000E+00
   0.14100000E+01           0.00000000E+00
   0.14200000E+01           0.00000000E+00
   0.14300000E+01           0.00000000E+00
   0.14400000E+01           0.00000000E+00
   0.14500000E+01           0.00000000E+00
   0.14600000E+01           0.00000000E+00
   0.14700000E+01           0.00000000E+00
   0.14800000E+01           0.00000000E+00
   0.14900000E+01           0.00000000E+00
   0.15000000E+01           0.00000000E+00
   0.15100000E+01           0.00000000E+00
   0.15200000E+01           0.00000000E+00
   0.15300000E+01           0.00000000E+00
   0.15400000E+01           0.00000000E+00
   0.15500000E+01           0.00000000E+00
   0.15600000E+01           0.00000000E+00
   0.15700000E+01           0.00000000E+00
   0.15800000E+01           0.00000000E+00
   0.15900000E+01           0.00000000E+00
   0.16000000E+01           0.00000000E+00
   0.16100000E+01           0.00000000E+00
   0.16200000E+01           0.00000000E+00
   0.16300000E+01           0.00000000E+00
   0.16400000E+01           0.00000000E+00
   0.16500000E+01           0.00000000E+00
   0.16600000E+01           0.00000000E+00
   0.16700000E+01           0.00000000E+00
   0.16800000E+01           0.00000000E+00
   0.16900000E+01           0.00000000E+00
   0.17000000E+01           0.00000000E+00
   0.17100000E+01           0.00000000E+00
   0.17200000E+01           0.00000000E+00
   0.17300000E+01           0.00000000E+00
   0.17400000E+01           0.00000000E+00
   0.17500000E+01           0.00000000E+00
   0.17600000E+01           0.00000000E+00
   0.17700000E+01           0.00000000E+00
   0.17800000E+01           0.00000000E+00
   0.17900000E+01           0.00000000E+00
   0.18000000E+01           0.00000000E+00
   0.18100000E+01           0.00000000E+00
   0.18200000E+01           0.00000000E+00
   0.18300000E+01           0.00000000E+00
   0.18400000E+01           0.00000000E+00
   0.18500000E+01           0.00000000E+00
   0.18600000E+01           0.00000000E+00
   0.18700000E+01           0.00000000E+00
   0.18800000E+01           0.00000000E+00
   0.18900000E+01           0.00000000E+00
   0.19000000E+01           0.00000000E+00
   0.19100000E+01           0.00000000E+00
   0.19200000E+01           0.00000000E+00
   0.19300000E+01           0.00000000E+00
   0.19400000E+01           0.00000000E+00
   0.19500000E+01           0.00000000E+00
   0.19600000E+01           0.00000000E+00
   0.19700000E+01           0.00000000E+00
   0.19800000E+01           0.31655587E-07
   0.19900000E+01           0.00000000E+00
   0.20000000E+01           0.00000000E+00
 #T=     3.0000
  -0.20000000E+01           0.00000000E+00
  -0.19900000E+01           0.00000000E+00
  -0.19800000E+01           0.00000000E+00
  -0.19700000E+01           0.00000000E+00
  -0.19600000E+01           0.00000000E+00
  -0.19500000E+01           0.00000000E+00
  -0.19400000E+01           0.00000000E+00
  -0.19300000E+01           0.00000000E+00
  -0.19200000E+01           0.00000000E+00
  -0.19100000E+01           0.00000000E+00
  -0.19000000E+01           0.00000000E+00
  -0.18900000E+01           0.00000000E+00
  -0.18800000E+01           0.00000000E+00
  -0.18700000E+01           0.00000000E+00
  -0.18600000E+01           0.00000000E+00
  -0.18500000E+01           0.00000000E+00
  -0.18400000E+01           0.00000000E+00
  -0.18300000E+01           0.00000000E+00
  -0.18200000E+01           0.00000000E+00
  -0.18100000E+01           0.00000000E+00
  -0.18000000E+01           0.00000000E+00
  -0.17900000E+01           0.00000000E+00
  -0.17800000E+01           0.00000000E+00
  -0.17700000E+01           0.00000000E+00
  -0.17600000E+01           0.00000000E+00
  -0.17500000E+01           0.00000000E+00
  -0.17400000E+01           0.00000000E+00
  -0.17300000E+01           0.00000000E+00
  -0.17200000E+01           0.00000000E+00
  -0.17100000E+01           0.00000000E+00
  -0.17000000E+01           0.00000000E+00
  -0.16900000E+01           0.00000000E+00
  -0.16800000E+01           0.00000000E+00
  -0.16700000E+01           0.00000000E+00
  -0.16600000E+01           0.00000000E+00
  -0.16500000E+01           0.00000000E+00
  -0.16400000E+01           0.00000000E+00
  -0.16300000E+01           0.00000000E+00
  -0.16200000E+01           0.00000000E+00
  -0.16100000E+01           0.00000000E+00
  -0.16000000E+01           0.00000000E+00
  -0.15900000E+01           0.00000000E+00
  -0.15800000E+01           0.00000000E+00
  -0.15700000E+01           0.00000000E+00
  -0.15600000E+01           0.00000000E+00
  -0.15500000E+01           0.00000000E+00
  -0.15400000E+01           0.00000000E+00
  -0.15300000E+01           0.00000000E+00
  -0.15200000E+01           0.00000000E+00
  -0.15100000E+01           0.00000000E+00
  -0.15000000E+01           0.00000000E+00
  -0.14900000E+01           0.00000000E+00
  -0.14800000E+01           0.00000000E+00
  -0.14700000E+01           0.00000000E+00
  -0.14600000E+01           0.00000000E+00
  -0.14500000E+01           0.00000000E+00
  -0.14400000E+01           0.00000000E+00
  -0.14300000E+01           0.00000000E+00
  -0.14200000E+01           0.00000000E+00
  -0.14100000E+01           0.00000000E+00
  -0.14000000E+01           0.00000000E+00
  -0.13900000E+01           0.00000000E+00
  -0.13800000E+01           0.00000000E+00
  -0.13700000E+01           0.00000000E+00
  -0.13600000E+01           0.00000000E+00
  -0.13500000E+01           0.00000000E+00
  -0.13400000E+01           0.00000000E+00
  -0.13300000E+01           0.00000000E+00
  -0.13200000E+01           0.00000000E+00
  -0.13100000E+01           0.00000000E+00
  -0.13000000E+01           0.00000000E+00
  -0.12900000E+01           0.00000000E+00
  -0.12800000E+01           0.00000000E+00
  -0.12700000E+01           0.00000000E+00
  -0.12600000E+01           0.00000000E+00
  -0.12500000E+01           0.00000000E+00
  -0.12400000E+01           0.00000000E+00
  -0.12300000E+01           0.00000000E+00
  -0.12200000E+01           0.00000000E+00
  -0.12100000E+01           0.00000000E+00
  -0.12000000E+01           0.00000000E+00
  -0.11900000E+01           0.00000000E+00
  -0.11800000E+01           0.00000000E+00
  -0.11700000E+01           0.00000000E+00
  -0.11600000E+01           0.00000000E+00
  -0.11500000E+01           0.00000000E+00
  -0.11400000E+01           0.00000000E+00
  -0.11300000E+01           0.00000000E+00
  -0.11200000E+01           0.00000000E+00
  -0.11100000E+01           0.00000000E+00
  -0.11000000E+01           0.00000000E+00
  -0.10900000E+01           0.00000000E+00
  -0.10800000E+01           0.00000000E+00
  -0.10700000E+01           0.00000000E+00
  -0.10600000E+01           0.00000000E+00
  -0.10500000E+01           0.00000000E+00
  -0.10400000E+01           0.00000000E+00
  -0.10300000E+01           0.00000000E+00
  -0.10200000E+01           0.00000000E+00
  -0.10100000E+01           0.00000000E+00
  -0.10000000E+01           0.00000000E+00
  -0.99000000E+00           0.00000000E+00
  -0.98000000E+00           0.00000000E+00
  -0.97000000E+00           0.00000000E+00
  -0.96000000E+00           0.00000000E+00
  -0.95000000E+00           0.00000000E+00
  -0.94000000E+00           0.00000000E+00
  -0.93000000E+00           0.00000000E+00
  -0.92000000E+00           0.00000000E+00
  -0.91000000E+00           0.00000000E+00
  -0.90000000E+00           0.00000000E+00
  -0.89000000E+00           0.00000000E+00
  -0.88000000E+00           0.00000000E+00
  -0.87000000E+00           0.00000000E+00
  -0.86000000E+00           0.00000000E+00
  -0.85000000E+00           0.00000000E+00
  -0.84000000E+00           0.00000000E+00
  -0.83000000E+00           0.00000000E+00
  -0.82000000E+00           0.00000000E+00
  -0.81000000E+00           0.00000000E+00
  -0.80000000E+00           0.00000000E+00
  -0.79000000E+00           0.00000000E+00
  -0.78000000E+00           0.00000000E+00
  -0.77000000E+00           0.00000000E+00
  -0.76000000E+00           0.00000000E+00
  -0.75000000E+00           0.00000000E+00
  -0.74000000E+00           0.00000000E+00
  -0.73000000E+00           0.00000000E+00
  -0.72000000E+00           0.00000000E+00
  -0.71000000E+00           0.00000000E+00
  -0.70000000E+00           0.00000000E+00
  -0.69000000E+00           0.00000000E+00
  -0.68000000E+00           0.00000000E+00
  -0.67000000E+00           0.00000000E+00
  -0.66000000E+00           0.00000000E+00
  -0.65000000E+00           0.00000000E+00
  -0.64000000E+00           0.00000000E+00
  -0.63000000E+00           0.00000000E+00
  -0.62000000E+00           0.00000000E+00
  -0.61000000E+00           0.00000000E+00
  -0.60000000E+00           0.00000000E+00
  -0.59000000E+00           0.00000000E+00
  -0.58000000E+00           0.00000000E+00
  -0.57000000E+00           0.00000000E+00
  -0.56000000E+00           0.00000000E+00
  -0.55000000E+00           0.00000000E+00
  -0.54000000E+00           0.00000000E+00
  -0.53000000E+00           0.00000000E+00
  -0.52000000E+00           0.00000000E+00
  -0.51000000E+00           0.00000000E+00
  -0.50000000E+00           0.00000000E+00
  -0.49000000E+00           0.00000000E+00
  -0.48000000E+00           0.00000000E+00
  -0.47000000E+00           0.00000000E+00
  -0.46000000E+00           0.00000000E+00
  -0.45000000E+00           0.00000000E+00
  -0.44000000E+00           0.00000000E+00
  -0.43000000E+00           0.00000000E+00
  -0.42000000E+00           0.00000000E+00
  -0.41000000E+00           0.00000000E+00
  -0.40000000E+00           0.00000000E+00
  -0.39000000E+00           0.00000000E+00
  -0.38000000E+00           0.00000000E+00
  -0.37000000E+00           0.00000000E+00
  -0.36000000E+00           0.00000000E+00
  -0.35000000E+00           0.00000000E+00
  -0.34000000E+00           0.00000000E+00
  -0.33000000E+00           0.00000000E+00
  -0.32000000E+00           0.00000000E+00
  -0.31000000E+00           0.00000000E+00
  -0.30000000E+00           0.00000000E+00
  -0.29000000E+00           0.00000000E+00
  -0.28000000E+00           0.00000000E+00
  -0.27000000E+00           0.00000000E+00
  -0.26000000E+00           0.00000000E+00
  -0.25000000E+00           0.00000000E+00
  -0.24000000E+00           0.00000000E+00
  -0.23000000E+00           0.00000000E+00
  -0.22000000E+00           0.00000000E+00
  -0.21000000E+00           0.00000000E+00
  -0.20000000E+00           0.00000000E+00
  -0.19000000E+00           0.00000000E+00
  -0.18000000E+00           0.00000000E+00
  -0.17000000E+00           0.00000000E+00
  -0.16000000E+00           0.00000000E+00
  -0.15000000E+00           0.00000000E+00
  -0.14000000E+00           0.00000000E+00
  -0.13000000E+00           0.00000000E+00
  -0.12000000E+00           0.00000000E+00
  -0.11000000E+00           0.00000000E+00
  -0.10000000E+00           0.00000000E+00
  -0.90000000E-01           0.00000000E+00
  -0.80000000E-01           0.00000000E+00
  -0.70000000E-01           0.00000000E+00
  -0.60000000E-01           0.00000000E+00
  -0.50000000E-01           0.00000000E+00
  -0.40000000E-01           0.00000000E+00
  -0.30000000E-01           0.00000000E+00
  -0.20000000E-01           0.00000000E+00
  -0.10000000E-01           0.00000000E+00
   0.00000000E+00           0.52433523E-01
   0.10000000E-01           0.41958857E+00
   0.20000000E-01           0.83172871E+00
   0.30000000E-01           0.12384454E+01
   0.40000000E-01           0.16256617E+01
   0.50000000E-01           0.19932872E+01
   0.60000000E-01           0.23381215E+01
   0.70000000E-01           0.26544331E+01
   0.80000000E-01           0.29408293E+01
   0.90000000E-01           0.31912208E+01
   0.10000000E+00           0.34057100E+01
   0.11000000E+00           0.35892946E+01
   0.12000000E+00           0.37313528E+01
   0.13000000E+00           0.38321287E+01
   0.14000000E+00           0.39004616E+01
   0.15000000E+00           0.39329664E+01
   0.16000000E+00           0.39322658E+01
   0.17000000E+00           0.38996091E+01
   0.18000000E+00           0.38354268E+01
   0.19000000E+00           0.37431192E+01
   0.20000000E+00           0.36303557E+01
   0.21000000E+00           0.34980153E+01
   0.22000000E+00           0.33488498E+01
   0.23000000E+00           0.31862879E+01
   0.24000000E+00           0.30099638E+01
   0.25000000E+00           0.28306602E+01
   0.26000000E+00           0.26440714E+01
   0.27000000E+00           0.24556827E+01
   0.28000000E+00           0.22663828E+01
   0.29000000E+00           0.20821965E+01
   0.30000000E+00           0.19018011E+01
   0.31000000E+00           0.17296639E+01
   0.32000000E+00           0.15622626E+01
   0.33000000E+00           0.14059567E+01
   0.34000000E+00           0.12569004E+01
   0.35000000E+00           0.11190950E+01
   0.36000000E+00           0.98967544E+00
   0.37000000E+00           0.87146312E+00
   0.38000000E+00           0.76378389E+00
   0.39000000E+00           0.66501130E+00
   0.40000000E+00           0.57821371E+00
   0.41000000E+00           0.49935552E+00
   0.42000000E+00           0.42857325E+00
   0.43000000E+00           0.36702181E+00
   0.44000000E+00           0.31211773E+00
   0.45000000E+00           0.26385135E+00
   0.46000000E+00           0.22187990E+00
   0.47000000E+00           0.18626860E+00
   0.48000000E+00           0.15530817E+00
   0.49000000E+00           0.12869557E+00
   0.50000000E+00           0.10669253E+00
   0.51000000E+00           0.87375404E-01
   0.52000000E+00           0.71881007E-01
   0.53000000E+00           0.58431592E-01
   0.54000000E+00           0.47430579E-01
   0.55000000E+00           0.38036246E-01
   0.56000000E+00           0.30507028E-01
   0.57000000E+00           0.24513327E-01
   0.58000000E+00           0.19357930E-01
   0.59000000E+00           0.15311871E-01
   0.60000000E+00           0.12080975E-01
   0.61000000E+00           0.94969927E-02
   0.62000000E+00           0.74311174E-02
   0.63000000E+00           0.57180753E-02
   0.64000000E+00           0.44191833E-02
   0.65000000E+00           0.34410890E-02
   0.66000000E+00           0.26320355E-02
   0.67000000E+00           0.19521684E-02
   0.68000000E+00           0.15039886E-02
   0.69000000E+00           0.11218740E-02
   0.70000000E+00           0.83124406E-03
   0.71000000E+00           0.63311174E-03
   0.72000000E+00           0.47625831E-03
   0.73000000E+00           0.35625198E-03
   0.74000000E+00           0.25780310E-03
   0.75000000E+00           0.18521684E-03
   0.76000000E+00           0.13827160E-03
   0.77000000E+00           0.99050332E-04
   0.78000000E+00           0.67141500E-04
   0.79000000E+00           0.49034505E-04
   0.80000000E+00           0.34884457E-04
   0.81000000E+00           0.26748971E-04
   0.82000000E+00           0.17125673E-04
   0.83000000E+00           0.14213359E-04
   0.84000000E+00           0.10161443E-04
   0.85000000E+00           0.60145616E-05
   0.86000000E+00           0.40519152E-05
   0.87000000E+00           0.19309908E-05
   0.88000000E+00           0.18360241E-05
   0.89000000E+00           0.22158911E-05
   0.90000000E+00           0.63311174E-06
   0.91000000E+00           0.25324470E-06
   0.92000000E+00           0.18993352E-06
   0.93000000E+00           0.41152263E-06
   0.94000000E+00           0.31655587E-06
   0.95000000E+00           0.25324470E-06
   0.96000000E+00           0.31655587E-07
   0.97000000E+00           0.00000000E+00
   0.98000000E+00           0.94966762E-07
   0.99000000E+00           0.00000000E+00
   0.10000000E+01           0.94966762E-07
   0.10100000E+01           0.00000000E+00
   0.10200000E+01           0.00000000E+00
   0.10300000E+01           0.00000000E+00
   0.10400000E+01           0.31655587E-07
   0.10500000E+01           0.00000000E+00
   0.10600000E+01           0.00000000E+00
   0.10700000E+01           0.00000000E+00
   0.10800000E+01           0.00000000E+00
   0.10900000E+01           0.00000000E+00
   0.11000000E+01           0.00000000E+00
   0.11100000E+01           0.00000000E+00
   0.11200000E+01           0.00000000E+00
   0.11300000E+01           0.00000000E+00
   0.11400000E+01           0.00000000E+00
   0.11500000E+01           0.31655587E-07
   0.11600000E+01           0.00000000E+00
   0.11700000E+01           0.00000000E+00
   0.11800000E+01           0.00000000E+00
   0.11900000E+01           0.00000000E+00
   0.12000000E+01           0.00000000E+00
   0.12100000E+01           0.00000000E+00
   0.12200000E+01           0.00000000E+00
   0.12300000E+01           0.00000000E+00
   0.12400000E+01           0.00000000E+00
   0.12500000E+01           0.00000000E+00
   0.12600000E+01           0.00000000E+00
   0.12700000E+01           0.00000000E+00
   0.12800000E+01           0.00000000E+00
   0.12900000E+01           0.00000000E+00
   0.13000000E+01           0.00000000E+00
   0.13100000E+01           0.00000000E+00
   0.13200000E+01           0.31655587E-07
   0.13300000E+01           0.00000000E+00
   0.13400000E+01           0.00000000E+00
   0.13500000E+01           0.00000000E+00
   0.13600000E+01           0.00000000E+00
   0.13700000E+01           0.00000000E+00
   0.13800000E+01           0.00000000E+00
   0.13900000E+01           0.00000000E+00
   0.14000000E+01           0.00000000E+00
   0.14100000E+01           0.00000000E+00
   0.14200000E+01           0.00000000E+00
   0.14300000E+01           0.00000000E+00
   0.14400000E+01           0.00000000E+00
   0.14500000E+01           0.00000000E+00
   0.14600000E+01           0.00000000E+00
   0.14700000E+01           0.00000000E+00
   0.14800000E+01           0.00000000E+00
   0.14900000E+01           0.00000000E+00
   0.15000000E+01           0.00000000E+00
   0.15100000E+01           0.00000000E+00
   0.15200000E+01           0.00000000E+00
   0.15300000E+01           0.00000000E+00
   0.15400000E+01           0.00000000E+00
   0.15500000E+01           0.00000000E+00
   0.15600000E+01           0.00000000E+00
   0.15700000E+01           0.00000000E+00
   0.15800000E+01           0.31655587E-07
   0.15900000E+01           0.00000000E+00
   0.16000000E+01           0.00000000E+00
   0.16100000E+01           0.00000000E+00
   0.16200000E+01           0.00000000E+00
   0.16300000E+01           0.00000000E+00
   0.16400000E+01           0.00000000E+00
   0.16500000E+01           0.00000000E+00
   0.16600000E+01           0.00000000E+00
   0.16700000E+01           0.00000000E+00
   0.16800000E+01           0.00000000E+00
   0.16900000E+01           0.00000000E+00
   0.17000000E+01           0.00000000E+00
   0.17100000E+01           0.00000000E+00
   0.17200000E+01           0.00000000E+00
   0.17300000E+01           0.00000000E+00
   0.17400000E+01           0.00000000E+00
   0.17500000E+01           0.00000000E+00
   0.17600000E+01           0.00000000E+00
   0.17700000E+01           0.00000000E+00
   0.17800000E+01           0.00000000E+00
   0.17900000E+01           0.00000000E+00
   0.18000000E+01           0.00000000E+00
   0.18100000E+01           0.00000000E+00
   0.18200000E+01           0.00000000E+00
   0.18300000E+01           0.00000000E+00
   0.18400000E+01           0.00000000E+00
   0.18500000E+01           0.00000000E+00
   0.18600000E+01           0.31655587E-07
   0.18700000E+01           0.00000000E+00
   0.18800000E+01           0.00000000E+00
   0.18900000E+01           0.00000000E+00
   0.19000000E+01           0.00000000E+00
   0.19100000E+01           0.00000000E+00
   0.19200000E+01           0.00000000E+00
   0.19300000E+01           0.00000000E+00
   0.19400000E+01           0.00000000E+00
   0.19500000E+01           0.00000000E+00
   0.19600000E+01           0.00000000E+00
   0.19700000E+01           0.00000000E+00
   0.19800000E+01           0.00000000E+00
   0.19900000E+01           0.00000000E+00
   0.20000000E+01           0.00000000E+00
 #T=     4.0000
  -0.20000000E+01           0.00000000E+00
  -0.19900000E+01           0.00000000E+00
  -0.19800000E+01           0.00000000E+00
  -0.19700000E+01           0.00000000E+00
  -0.19600000E+01           0.00000000E+00
  -0.19500000E+01           0.00000000E+00
  -0.19400000E+01           0.00000000E+00
  -0.19300000E+01           0.00000000E+00
  -0.19200000E+01           0.00000000E+00
  -0.19100000E+01           0.00000000E+00
  -0.19000000E+01           0.00000000E+00
  -0.18900000E+01           0.00000000E+00
  -0.18800000E+01           0.00000000E+00
  -0.18700000E+01           0.00000000E+00
  -0.18600000E+01           0.00000000E+00
  -0.18500000E+01           0.00000000E+00
  -0.18400000E+01           0.00000000E+00
  -0.18300000E+01           0.00000000E+00
  -0.18200000E+01           0.00000000E+00
  -0.18100000E+01           0.00000000E+00
  -0.18000000E+01           0.00000000E+00
  -0.17900000E+01           0.00000000E+00
  -0.17800000E+01           0.00000000E+00
  -0.17700000E+01           0.00000000E+00
  -0.17600000E+01           0.00000000E+00
  -0.17500000E+01           0.00000000E+00
  -0.17400000E+01           0.00000000E+00
  -0.17300000E+01           0.00000000E+00
  -0.17200000E+01           0.00000000E+00
  -0.17100000E+01           0.00000000E+00
  -0.17000000E+01           0.00000000E+00
  -0.16900000E+01           0.00000000E+00
  -0.16800000E+01           0.00000000E+00
  -0.16700000E+01           0.00000000E+00
  -0.16600000E+01           0.00000000E+00
  -0.16500000E+01           0.00000000E+00
  -0.16400000E+01           0.00000000E+00
  -0.16300000E+01           0.00000000E+00
  -0.16200000E+01           0.00000000E+00
  -0.16100000E+01           0.00000000E+00
  -0.16000000E+01           0.00000000E+00
  -0.15900000E+01           0.00000000E+00
  -0.15800000E+01           0.00000000E+00
  -0.15700000E+01           0.00000000E+00
  -0.15600000E+01           0.00000000E+00
  -0.15500000E+01           0.00000000E+00
  -0.15400000E+01           0.00000000E+00
  -0.15300000E+01           0.00000000E+00
  -0.15200000E+01           0.00000000E+00
  -0.15100000E+01           0.00000000E+00
  -0.15000000E+01           0.00000000E+00
  -0.14900000E+01           0.00000000E+00
  -0.14800000E+01           0.00000000E+00
  -0.14700000E+01           0.00000000E+00
  -0.14600000E+01           0.00000000E+00
  -0.14500000E+01           0.00000000E+00
  -0.14400000E+01           0.00000000E+00
  -0.14300000E+01           0.00000000E+00
  -0.14200000E+01           0.00000000E+00
  -0.14100000E+01           0.00000000E+00
  -0.14000000E+01           0.00000000E+00
  -0.13900000E+01           0.00000000E+00
  -0.13800000E+01           0.00000000E+00
  -0.13700000E+01           0.00000000E+00
  -0.13600000E+01           0.00000000E+00
  -0.13500000E+01           0.00000000E+00
  -0.13400000E+01           0.00000000E+00
  -0.13300000E+01           0.00000000E+00
  -0.13200000E+01           0.00000000E+00
  -0.13100000E+01           0.00000000E+00
  -0.13000000E+01           0.00000000E+00
  -0.12900000E+01           0.00000000E+00
  -0.12800000E+01           0.00000000E+00
  -0.12700000E+01           0.00000000E+00
  -0.12600000E+01           0.00000000E+00
  -0.12500000E+01           0.00000000E+00
  -0.12400000E+01           0.00000000E+00
  -0.12300000E+01           0.00000000E+00
  -0.12200000E+01           0.00000000E+00
  -0.12100000E+01           0.00000000E+00
  -0.12000000E+01           0.00000000E+00
  -0.11900000E+01           0.00000000E+00
  -0.11800000E+01           0.00000000E+00
  -0.11700000E+01           0.00000000E+00
  -0.11600000E+01           0.00000000E+00
  -0.11500000E+01           0.00000000E+00
  -0.11400000E+01           0.00000000E+00
  -0.11300000E+01           0.00000000E+00
  -0.11200000E+01           0.00000000E+00
  -0.11100000E+01           0.00000000E+00
  -0.11000000E+01           0.00000000E+00
  -0.10900000E+01           0.00000000E+00
  -0.10800000E+01           0.00000000E+00
  -0.10700000E+01           0.00000000E+00
  -0.10600000E+01           0.00000000E+00
  -0.10500000E+01           0.00000000E+00
  -0.10400000E+01           0.00000000E+00
  -0.10300000E+01           0.00000000E+00
  -0.10200000E+01           0.00000000E+00
  -0.10100000E+01           0.00000000E+00
  -0.10000000E+01           0.00000000E+00
  -0.99000000E+00           0.00000000E+00
  -0.98000000E+00           0.00000000E+00
  -0.97000000E+00           0.00000000E+00
  -0.96000000E+00           0.00000000E+00
  -0.95000000E+00           0.00000000E+00
  -0.94000000E+00           0.00000000E+00
  -0.93000000E+00           0.00000000E+00
  -0.92000000E+00           0.00000000E+00
  -0.91000000E+00           0.00000000E+00
  -0.90000000E+00           0.00000000E+00
  -0.89000000E+00           0.00000000E+00
  -0.88000000E+00           0.00000000E+00
  -0.87000000E+00           0.00000000E+00
  -0.86000000E+00           0.00000000E+00
  -0.85000000E+00           0.00000000E+00
  -0.84000000E+00           0.00000000E+00
  -0.83000000E+00           0.00000000E+00
  -0.82000000E+00           0.00000000E+00
  -0.81000000E+00           0.00000000E+00
  -0.80000000E+00           0.00000000E+00
  -0.79000000E+00           0.00000000E+00
  -0.78000000E+00           0.00000000E+00
  -0.77000000E+00           0.00000000E+00
  -0.76000000E+00           0.00000000E+00
  -0.75000000E+00           0.00000000E+00
  -0.74000000E+00           0.00000000E+00
  -0.73000000E+00           0.00000000E+00
  -0.72000000E+00           0.00000000E+00
  -0.71000000E+00           0.00000000E+00
  -0.70000000E+00           0.00000000E+00
  -0.69000000E+00           0.00000000E+00
  -0.68000000E+00           0.00000000E+00
  -0.67000000E+00           0.00000000E+00
  -0.66000000E+00           0.00000000E+00
  -0.65000000E+00           0.00000000E+00
  -0.64000000E+00           0.00000000E+00
  -0.63000000E+00           0.00000000E+00
  -0.62000000E+00           0.00000000E+00
  -0.61000000E+00           0.00000000E+00
  -0.60000000E+00           0.00000000E+00
  -0.59000000E+00           0.00000000E+00
  -0.58000000E+00           0.00000000E+00
  -0.57000000E+00           0.00000000E+00
  -0.56000000E+00           0.00000000E+00
  -0.55000000E+00           0.00000000E+00
  -0.54000000E+00           0.00000000E+00
  -0.53000000E+00           0.00000000E+00
  -0.52000000E+00           0.00000000E+00
  -0.51000000E+00           0.00000000E+00
  -0.50000000E+00           0.00000000E+00
  -0.49000000E+00           0.00000000E+00
  -0.48000000E+00           0.00000000E+00
  -0.47000000E+00           0.00000000E+00
  -0.46000000E+00           0.00000000E+00
  -0.45000000E+00           0.00000000E+00
  -0.44000000E+00           0.00000000E+00
  -0.43000000E+00           0.00000000E+00
  -0.42000000E+00           0.00000000E+00
  -0.41000000E+00           0.00000000E+00
  -0.40000000E+00           0.00000000E+00
  -0.39000000E+00           0.00000000E+00
  -0.38000000E+00           0.00000000E+00
  -0.37000000E+00           0.00000000E+00
  -0.36000000E+00           0.00000000E+00
  -0.35000000E+00           0.00000000E+00
  -0.34000000E+00           0.00000000E+00
  -0.33000000E+00           0.00000000E+00
  -0.32000000E+00           0.00000000E+00
  -0.31000000E+00           0.00000000E+00
  -0.30000000E+00           0.00000000E+00
  -0.29000000E+00           0.00000000E+00
  -0.28000000E+00           0.00000000E+00
  -0.27000000E+00           0.00000000E+00
  -0.26000000E+00           0.00000000E+00
  -0.25000000E+00           0.00000000E+00
  -0.24000000E+00           0.00000000E+00
  -0.23000000E+00           0.00000000E+00
  -0.22000000E+00           0.00000000E+00
  -0.21000000E+00           0.00000000E+00
  -0.20000000E+00           0.00000000E+00
  -0.19000000E+00           0.00000000E+00
  -0.18000000E+00           0.00000000E+00
  -0.17000000E+00           0.00000000E+00
  -0.16000000E+00           0.00000000E+00
  -0.15000000E+00           0.00000000E+00
  -0.14000000E+00           0.00000000E+00
  -0.13000000E+00           0.00000000E+00
  -0.12000000E+00           0.00000000E+00
  -0.11000000E+00           0.00000000E+00
  -0.10000000E+00           0.00000000E+00
  -0.90000000E-01           0.00000000E+00
  -0.80000000E-01           0.00000000E+00
  -0.70000000E-01           0.00000000E+00
  -0.60000000E-01           0.00000000E+00
  -0.50000000E-01           0.00000000E+00
  -0.40000000E-01           0.00000000E+00
  -0.30000000E-01           0.00000000E+00
  -0.20000000E-01           0.00000000E+00
  -0.10000000E-01           0.00000000E+00
   0.00000000E+00           0.39232320E-01
   0.10000000E-01           0.31363875E+00
   0.20000000E-01           0.62244232E+00
   0.30000000E-01           0.92853989E+00
   0.40000000E-01           0.12246133E+01
   0.50000000E-01           0.15093362E+01
   0.60000000E-01           0.17768929E+01
   0.70000000E-01           0.20364498E+01
   0.80000000E-01           0.22713741E+01
   0.90000000E-01           0.24883827E+01
   0.10000000E+00           0.26821129E+01
   0.11000000E+00           0.28569620E+01
   0.12000000E+00           0.30054608E+01
   0.13000000E+00           0.31312160E+01
   0.14000000E+00           0.32332358E+01
   0.15000000E+00           0.33079927E+01
   0.16000000E+00           0.33652964E+01
   0.17000000E+00           0.33960375E+01
   0.18000000E+00           0.34040686E+01
   0.19000000E+00           0.33907744E+01
   0.20000000E+00           0.33551467E+01
   0.21000000E+00           0.33053952E+01
   0.22000000E+00           0.32381609E+01
   0.23000000E+00           0.31558448E+01
   0.24000000E+00           0.30556787E+01
   0.25000000E+00           0.29469373E+01
   0.26000000E+00           0.28320890E+01
   0.27000000E+00           0.27044921E+01
   0.28000000E+00           0.25739182E+01
   0.29000000E+00           0.24364374E+01
   0.30000000E+00           0.22975255E+01
   0.31000000E+00           0.21577780E+01
   0.32000000E+00           0.20157837E+01
   0.33000000E+00           0.18784149E+01
   0.34000000E+00           0.17406399E+01
   0.35000000E+00           0.16070313E+01
   0.36000000E+00           0.14778445E+01
   0.37000000E+00           0.13553664E+01
   0.38000000E+00           0.12350150E+01
   0.39000000E+00           0.11227837E+01
   0.40000000E+00           0.10165920E+01
   0.41000000E+00           0.91671241E+00
   0.42000000E+00           0.82464340E+00
   0.43000000E+00           0.73647094E+00
   0.44000000E+00           0.65766214E+00
   0.45000000E+00           0.58376686E+00
   0.46000000E+00           0.51635552E+00
   0.47000000E+00           0.45498164E+00
   0.48000000E+00           0.40024236E+00
   0.49000000E+00           0.34997104E+00
   0.50000000E+00           0.30489332E+00
   0.51000000E+00           0.26537819E+00
   0.52000000E+00           0.22917221E+00
   0.53000000E+00           0.19796806E+00
   0.54000000E+00           0.16987452E+00
   0.55000000E+00           0.14528750E+00
   0.56000000E+00           0.12416613E+00
   0.57000000E+00           0.10540025E+00
   0.58000000E+00           0.89037892E-01
   0.59000000E+00           0.75167426E-01
   0.60000000E+00           0.63310351E-01
   0.61000000E+00           0.52979487E-01
   0.62000000E+00           0.44241247E-01
   0.63000000E+00           0.36772080E-01
   0.64000000E+00           0.30531276E-01
   0.65000000E+00           0.25122064E-01
   0.66000000E+00           0.20639063E-01
   0.67000000E+00           0.16882843E-01
   0.68000000E+00           0.13816176E-01
   0.69000000E+00           0.11191263E-01
   0.70000000E+00           0.90846154E-02
   0.71000000E+00           0.72440013E-02
   0.72000000E+00           0.58859449E-02
   0.73000000E+00           0.47025958E-02
   0.74000000E+00           0.37449826E-02
   0.75000000E+00           0.29837923E-02
   0.76000000E+00           0.23863564E-02
   0.77000000E+00           0.18713833E-02
   0.78000000E+00           0.14790123E-02
   0.79000000E+00           0.11563469E-02
   0.80000000E+00           0.91142767E-03
   0.81000000E+00           0.69914530E-03
   0.82000000E+00           0.54878126E-03
   0.83000000E+00           0.41513137E-03
   0.84000000E+00           0.31367521E-03
   0.85000000E+00           0.25080722E-03
   0.86000000E+00           0.18452042E-03
   0.87000000E+00           0.14327319E-03
   0.88000000E+00           0.11003482E-03
   0.89000000E+00           0.82241216E-04
   0.90000000E+00           0.54795821E-04
   0.91000000E+00           0.45584046E-04
   0.92000000E+00           0.34093067E-04
   0.93000000E+00           0.26464071E-04
   0.94000000E+00           0.19626464E-04
   0.95000000E+00           0.13675214E-04
   0.96000000E+00           0.10161443E-04
   0.97000000E+00           0.64577398E-05
   0.98000000E+00           0.52864831E-05
   0.99000000E+00           0.38936372E-05
   0.10000000E+01           0.30389364E-05
   0.10100000E+01           0.18360241E-05
   0.10200000E+01           0.14245014E-05
   0.10300000E+01           0.75973409E-06
   0.10400000E+01           0.63311174E-06
   0.10500000E+01           0.66476733E-06
   0.10600000E+01           0.37986705E-06
   0.10700000E+01           0.28490028E-06
   0.10800000E+01           0.94966762E-07
   0.10900000E+01           0.18993352E-06
   0.11000000E+01           0.63311174E-07
   0.11100000E+01           0.00000000E+00
   0.11200000E+01           0.00000000E+00
   0.11300000E+01           0.00000000E+00
   0.11400000E+01           0.31655587E-07
   0.11500000E+01           0.00000000E+00
   0.11600000E+01           0.00000000E+00
   0.11700000E+01           0.00000000E+00
   0.11800000E+01           0.00000000E+00
   0.11900000E+01           0.31655587E-07
   0.12000000E+01           0.00000000E+00
   0.12100000E+01           0.00000000E+00
   0.12200000E+01           0.00000000E+00
   0.12300000E+01           0.00000000E+00
   0.12400000E+01           0.00000000E+00
   0.12500000E+01           0.00000000E+00
   0.12600000E+01           0.00000000E+00
   0.12700000E+01           0.00000000E+00
   0.12800000E+01           0.00000000E+00
   0.12900000E+01           0.00000000E+00
   0.13000000E+01           0.00000000E+00
   0.13100000E+01           0.00000000E+00
   0.13200000E+01           0.31655587E-07
   0.13300000E+01           0.00000000E+00
   0.13400000E+01           0.00000000E+00
   0.13500000E+01           0.00000000E+00
   0.13600000E+01           0.00000000E+00
   0.13700000E+01           0.00000000E+00
   0.13800000E+01           0.00000000E+00
   0.13900000E+01           0.00000000E+00
   0.14000000E+01           0.00000000E+00
   0.14100000E+01           0.00000000E+00
   0.14200000E+01           0.00000000E+00
   0.14300000E+01           0.00000000E+00
   0.14400000E+01           0.00000000E+00
   0.14500000E+01           0.00000000E+00
   0.14600000E+01           0.00000000E+00
   0.14700000E+01           0.00000000E+00
   0.14800000E+01           0.00000000E+00
   0.14900000E+01           0.00000000E+00
   0.15000000E+01           0.00000000E+00
   0.15100000E+01           0.00000000E+00
   0.15200000E+01           0.00000000E+00
   0.15300000E+01           0.00000000E+00
   0.15400000E+01           0.00000000E+00
   0.15500000E+01           0.00000000E+00
   0.15600000E+01           0.00000000E+00
   0.15700000E+01           0.00000000E+00
   0.15800000E+01           0.00000000E+00
   0.15900000E+01           0.00000000E+00
   0.16000000E+01           0.00000000E+00
   0.16100000E+01           0.00000000E+00
   0.16200000E+01           0.00000000E+00
   0.16300000E+01           0.00000000E+00
   0.16400000E+01           0.00000000E+00
   0.16500000E+01           0.00000000E+00
   0.16600000E+01           0.00000000E+00
   0.16700000E+01           0.00000000E+00
   0.16800000E+01           0.00000000E+00
   0.16900000E+01           0.00000000E+00
   0.17000000E+01           0.00000000E+00
   0.17100000E+01           0.00000000E+00
   0.17200000E+01           0.00000000E+00
   0.17300000E+01           0.00000000E+00
   0.17400000E+01           0.00000000E+00
   0.17500000E+01           0.00000000E+00
   0.17600000E+01           0.00000000E+00
   0.17700000E+01           0.00000000E+00
   0.17800000E+01           0.00000000E+00
   0.17900000E+01           0.00000000E+00
   0.18000000E+01           0.00000000E+00
   0.18100000E+01           0.00000000E+00
   0.18200000E+01           0.00000000E+00
   0.18300000E+01           0.00000000E+00
   0.18400000E+01           0.00000000E+00
   0.18500000E+01           0.00000000E+00
   0.18600000E+01           0.00000000E+00
   0.18700000E+01           0.00000000E+00
   0.18800000E+01           0.00000000E+00
   0.18900000E+01           0.00000000E+00
   0.19000000E+01           0.00000000E+00
   0.19100000E+01           0.00000000E+00
   0.19200000E+01           0.31655587E-07
   0.19300000E+01           0.00000000E+00
   0.19400000E+01           0.00000000E+00
   0.19500000E+01           0.00000000E+00
   0.19600000E+01           0.00000000E+00
   0.19700000E+01           0.00000000E+00
   0.19800000E+01           0.00000000E+00
   0.19900000E+01           0.00000000E+00
   0.20000000E+01           0.00000000E+00
 #T=     5.0000
  -0.20000000E+01           0.00000000E+00
  -0.19900000E+01           0.00000000E+00
  -0.19800000E+01           0.00000000E+00
  -0.19700000E+01           0.00000000E+00
  -0.19600000E+01           0.00000000E+00
  -0.19500000E+01           0.00000000E+00
  -0.19400000E+01           0.00000000E+00
  -0.19300000E+01           0.00000000E+00
  -0.19200000E+01           0.00000000E+00
  -0.19100000E+01           0.00000000E+00
  -0.19000000E+01           0.00000000E+00
  -0.18900000E+01           0.00000000E+00
  -0.18800000E+01           0.00000000E+00
  -0.18700000E+01           0.00000000E+00
  -0.18600000E+01           0.00000000E+00
  -0.18500000E+01           0.00000000E+00
  -0.18400000E+01           0.00000000E+00
  -0.18300000E+01           0.00000000E+00
  -0.18200000E+01           0.00000000E+00
  -0.18100000E+01           0.00000000E+00
  -0.18000000E+01           0.00000000E+00
  -0.17900000E+01           0.00000000E+00
  -0.17800000E+01           0.00000000E+00
  -0.17700000E+01           0.00000000E+00
  -0.17600000E+01           0.00000000E+00
  -0.17500000E+01           0.00000000E+00
  -0.17400000E+01           0.00000000E+00
  -0.17300000E+01           0.00000000E+00
  -0.17200000E+01           0.00000000E+00
  -0.17100000E+01           0.00000000E+00
  -0.17000000E+01           0.00000000E+00
  -0.16900000E+01           0.00000000E+00
  -0.16800000E+01           0.00000000E+00
  -0.16700000E+01           0.00000000E+00
  -0.16600000E+01           0.00000000E+00
  -0.16500000E+01           0.00000000E+00
  -0.16400000E+01           0.00000000E+00
  -0.16300000E+01           0.00000000E+00
  -0.16200000E+01           0.00000000E+00
  -0.16100000E+01           0.00000000E+00
  -0.16000000E+01           0.00000000E+00
  -0.15900000E+01           0.00000000E+00
  -0.15800000E+01           0.00000000E+00
  -0.15700000E+01           0.00000000E+00
  -0.15600000E+01           0.00000000E+00
  -0.15500000E+01           0.00000000E+00
  -0.15400000E+01           0.00000000E+00
  -0.15300000E+01           0.00000000E+00
  -0.15200000E+01           0.00000000E+00
  -0.15100000E+01           0.00000000E+00
  -0.15000000E+01           0.00000000E+00
  -0.14900000E+01           0.00000000E+00
  -0.14800000E+01           0.00000000E+00
  -0.14700000E+01           0.00000000E+00
  -0.14600000E+01           0.00000000E+00
  -0.14500000E+01           0.00000000E+00
  -0.14400000E+01           0.00000000E+00
  -0.14300000E+01           0.00000000E+00
  -0.14200000E+01           0.00000000E+00
  -0.14100000E+01           0.00000000E+00
  -0.14000000E+01           0.00000000E+00
  -0.13900000E+01           0.00000000E+00
  -0.13800000E+01           0.00000000E+00
  -0.13700000E+01           0.00000000E+00
  -0.13600000E+01           0.00000000E+00
  -0.13500000E+01           0.00000000E+00
  -0.13400000E+01           0.00000000E+00
  -0.13300000E+01           0.00000000E+00
  -0.13200000E+01           0.00000000E+00
  -0.13100000E+01           0.00000000E+00
  -0.13000000E+01           0.00000000E+00
  -0.12900000E+01           0.00000000E+00
  -0.12800000E+01           0.00000000E+00
  -0.12700000E+01           0.00000000E+00
  -0.12600000E+01           0.00000000E+00
  -0.12500000E+01           0.00000000E+00
  -0.12400000E+01           0.00000000E+00
  -0.12300000E+01           0.00000000E+00
  -0.12200000E+01           0.00000000E+00
  -0.12100000E+01           0.00000000E+00
  -0.12000000E+01           0.00000000E+00
  -0.11900000E+01           0.00000000E+00
  -0.11800000E+01           0.00000000E+00
  -0.11700000E+01           0.00000000E+00
  -0.11600000E+01           0.00000000E+00
  -0.11500000E+01           0.00000000E+00
  -0.11400000E+01           0.00000000E+00
  -0.11300000E+01           0.00000000E+00
  -0.11200000E+01           0.00000000E+00
  -0.11100000E+01           0.00000000E+00
  -0.11000000E+01           0.00000000E+00
  -0.10900000E+01           0.00000000E+00
  -0.10800000E+01           0.00000000E+00
  -0.10700000E+01           0.00000000E+00
  -0.10600000E+01           0.00000000E+00
  -0.10500000E+01           0.00000000E+00
  -0.10400000E+01           0.00000000E+00
  -0.10300000E+01           0.00000000E+00
  -0.10200000E+01           0.00000000E+00
  -0.10100000E+01           0.00000000E+00
  -0.10000000E+01           0.00000000E+00
  -0.99000000E+00           0.00000000E+00
  -0.98000000E+00           0.00000000E+00
  -0.97000000E+00           0.00000000E+00
  -0.96000000E+00           0.00000000E+00
  -0.95000000E+00           0.00000000E+00
  -0.94000000E+00           0.00000000E+00
  -0.93000000E+00           0.00000000E+00
  -0.92000000E+00           0.00000000E+00
  -0.91000000E+00           0.00000000E+00
  -0.90000000E+00           0.00000000E+00
  -0.89000000E+00           0.00000000E+00
  -0.88000000E+00           0.00000000E+00
  -0.87000000E+00           0.00000000E+00
  -0.86000000E+00           0.00000000E+00
  -0.85000000E+00           0.00000000E+00
  -0.84000000E+00           0.00000000E+00
  -0.83000000E+00           0.00000000E+00
  -0.82000000E+00           0.00000000E+00
  -0.81000000E+00           0.00000000E+00
  -0.80000000E+00           0.00000000E+00
  -0.79000000E+00           0.00000000E+00
  -0.78000000E+00           0.00000000E+00
  -0.77000000E+00           0.00000000E+00
  -0.76000000E+00           0.00000000E+00
  -0.75000000E+00           0.00000000E+00
  -0.74000000E+00           0.00000000E+00
  -0.73000000E+00           0.00000000E+00
  -0.72000000E+00           0.00000000E+00
  -0.71000000E+00           0.00000000E+00
  -0.70000000E+00           0.00000000E+00
  -0.69000000E+00           0.00000000E+00
  -0.68000000E+00           0.00000000E+00
  -0.67000000E+00           0.00000000E+00
  -0.66000000E+00           0.00000000E+00
  -0.65000000E+00           0.00000000E+00
  -0.64000000E+00           0.00000000E+00
  -0.63000000E+00           0.00000000E+00
  -0.62000000E+00           0.00000000E+00
  -0.61000000E+00           0.00000000E+00
  -0.60000000E+00           0.00000000E+00
  -0.59000000E+00           0.00000000E+00
  -0.58000000E+00           0.00000000E+00
  -0.57000000E+00           0.00000000E+00
  -0.56000000E+00           0.00000000E+00
  -0.55000000E+00           0.00000000E+00
  -0.54000000E+00           0.00000000E+00
  -0.53000000E+00           0.00000000E+00
  -0.52000000E+00           0.00000000E+00
  -0.51000000E+00           0.00000000E+00
  -0.50000000E+00           0.00000000E+00
  -0.49000000E+00           0.00000000E+00
  -0.48000000E+00           0.00000000E+00
  -0.47000000E+00           0.00000000E+00
  -0.46000000E+00           0.00000000E+00
  -0.45000000E+00           0.00000000E+00
  -0.44000000E+00           0.00000000E+00
  -0.43000000E+00           0.00000000E+00
  -0.42000000E+00           0.00000000E+00
  -0.41000000E+00           0.00000000E+00
  -0.40000000E+00           0.00000000E+00
  -0.39000000E+00           0.00000000E+00
  -0.38000000E+00           0.00000000E+00
  -0.37000000E+00           0.00000000E+00
  -0.36000000E+00           0.00000000E+00
  -0.35000000E+00           0.00000000E+00
  -0.34000000E+00           0.00000000E+00
  -0.33000000E+00           0.00000000E+00
  -0.32000000E+00           0.00000000E+00
  -0.31000000E+00           0.00000000E+00
  -0.30000000E+00           0.00000000E+00
  -0.29000000E+00           0.00000000E+00
  -0.28000000E+00           0.00000000E+00
  -0.27000000E+00           0.00000000E+00
  -0.26000000E+00           0.00000000E+00
  -0.25000000E+00           0.00000000E+00
  -0.24000000E+00           0.00000000E+00
  -0.23000000E+00           0.00000000E+00
  -0.22000000E+00           0.00000000E+00
  -0.21000000E+00           0.00000000E+00
  -0.20000000E+00           0.00000000E+00
  -0.19000000E+00           0.00000000E+00
  -0.18000000E+00           0.00000000E+00
  -0.17000000E+00           0.00000000E+00
  -0.16000000E+00           0.00000000E+00
  -0.15000000E+00           0.00000000E+00
  -0.14000000E+00           0.00000000E+00
  -0.13000000E+00           0.00000000E+00
  -0.12000000E+00           0.00000000E+00
  -0.11000000E+00           0.00000000E+00
  -0.10000000E+00           0.00000000E+00
  -0.90000000E-01           0.00000000E+00
  -0.80000000E-01           0.00000000E+00
  -0.70000000E-01           0.00000000E+00
  -0.60000000E-01           0.00000000E+00
  -0.50000000E-01           0.00000000E+00
  -0.40000000E-01           0.00000000E+00
  -0.30000000E-01           0.00000000E+00
  -0.20000000E-01           0.00000000E+00
  -0.10000000E-01           0.00000000E+00
   0.00000000E+00           0.31170877E-01
   0.10000000E-01           0.25001263E+00
   0.20000000E-01           0.49673048E+00
   0.30000000E-01           0.74075036E+00
   0.40000000E-01           0.98043830E+00
   0.50000000E-01           0.12103335E+01
   0.60000000E-01           0.14322113E+01
   0.70000000E-01           0.16443866E+01
   0.80000000E-01           0.18449732E+01
   0.90000000E-01           0.20310922E+01
   0.10000000E+00           0.22061489E+01
   0.11000000E+00           0.23635173E+01
   0.12000000E+00           0.25054168E+01
   0.13000000E+00           0.26298661E+01
   0.14000000E+00           0.27403732E+01
   0.15000000E+00           0.28323207E+01
   0.16000000E+00           0.29089050E+01
   0.17000000E+00           0.29649108E+01
   0.18000000E+00           0.30059428E+01
   0.19000000E+00           0.30304360E+01
   0.20000000E+00           0.30369697E+01
   0.21000000E+00           0.30288555E+01
   0.22000000E+00           0.30098742E+01
   0.23000000E+00           0.29772394E+01
   0.24000000E+00           0.29273994E+01
   0.25000000E+00           0.28698061E+01
   0.26000000E+00           0.28000043E+01
   0.27000000E+00           0.27199741E+01
   0.28000000E+00           0.26351149E+01
   0.29000000E+00           0.25416665E+01
   0.30000000E+00           0.24417956E+01
   0.31000000E+00           0.23368588E+01
   0.32000000E+00           0.22311658E+01
   0.33000000E+00           0.21204884E+01
   0.34000000E+00           0.20087525E+01
   0.35000000E+00           0.18966406E+01
   0.36000000E+00           0.17856033E+01
   0.37000000E+00           0.16757736E+01
   0.38000000E+00           0.15648536E+01
   0.39000000E+00           0.14573029E+01
   0.40000000E+00           0.13535528E+01
   0.41000000E+00           0.12543085E+01
   0.42000000E+00           0.11567912E+01
   0.43000000E+00           0.10638138E+01
   0.44000000E+00           0.97694574E+00
   0.45000000E+00           0.89292010E+00
   0.46000000E+00           0.81374865E+00
   0.47000000E+00           0.73926616E+00
   0.48000000E+00           0.66949899E+00
   0.49000000E+00           0.60490393E+00
[...]
   0.13800000E+01           0.68662963E+00
   0.13900000E+01           0.68963716E+00
   0.14000000E+01           0.69212979E+00
   0.14100000E+01           0.69506632E+00
   0.14200000E+01           0.69753498E+00
   0.14300000E+01           0.69995571E+00
   0.14400000E+01           0.70282675E+00
   0.14500000E+01           0.70494486E+00
   0.14600000E+01           0.70773647E+00
   0.14700000E+01           0.71014568E+00
   0.14800000E+01           0.71272333E+00
   0.14900000E+01           0.71486945E+00
   0.15000000E+01           0.71746011E+00
   0.15100000E+01           0.71989674E+00
   0.15200000E+01           0.72220858E+00
   0.15300000E+01           0.72423042E+00
   0.15400000E+01           0.72679642E+00
   0.15500000E+01           0.72876838E+00
   0.15600000E+01           0.73103501E+00
   0.15700000E+01           0.73305717E+00
   0.15800000E+01           0.73513830E+00
   0.15900000E+01           0.73732381E+00
   0.16000000E+01           0.73936971E+00
   0.16100000E+01           0.74139110E+00
   0.16200000E+01           0.74334492E+00
   0.16300000E+01           0.74545831E+00
   0.16400000E+01           0.74722969E+00
   0.16500000E+01           0.74918145E+00
   0.16600000E+01           0.75138500E+00
   0.16700000E+01           0.75325609E+00
   0.16800000E+01           0.75463137E+00
   0.16900000E+01           0.75659753E+00
   0.17000000E+01           0.75827154E+00
   0.17100000E+01           0.75986952E+00
   0.17200000E+01           0.76167832E+00
   0.17300000E+01           0.76358192E+00
   0.17400000E+01           0.76496667E+00
   0.17500000E+01           0.76638170E+00
   0.17600000E+01           0.76820123E+00
   0.17700000E+01           0.76975435E+00
   0.17800000E+01           0.77121377E+00
   0.17900000E+01           0.77259091E+00
   0.18000000E+01           0.77453552E+00
   0.18100000E+01           0.77585663E+00
   0.18200000E+01           0.77758924E+00
   0.18300000E+01           0.77857803E+00
   0.18400000E+01           0.77981165E+00
   0.18500000E+01           0.78137771E+00
   0.18600000E+01           0.78245337E+00
   0.18700000E+01           0.78413938E+00
   0.18800000E+01           0.78481304E+00
   0.18900000E+01           0.78649918E+00
   0.19000000E+01           0.78766540E+00
   0.19100000E+01           0.78889399E+00
   0.19200000E+01           0.79014869E+00
   0.19300000E+01           0.79099348E+00
   0.19400000E+01           0.79259823E+00
   0.19500000E+01           0.79339133E+00
   0.19600000E+01           0.79437404E+00
   0.19700000E+01           0.79533349E+00
   0.19800000E+01           0.79659785E+00
   0.19900000E+01           0.79777221E+00
   0.20000000E+01           0.39904929E+00
 #T=   100.0000
  -0.20000000E+01           0.00000000E+00
  -0.19900000E+01           0.00000000E+00
  -0.19800000E+01           0.00000000E+00
  -0.19700000E+01           0.00000000E+00
  -0.19600000E+01           0.00000000E+00
  -0.19500000E+01           0.00000000E+00
  -0.19400000E+01           0.00000000E+00
  -0.19300000E+01           0.00000000E+00
  -0.19200000E+01           0.00000000E+00
  -0.19100000E+01           0.00000000E+00
  -0.19000000E+01           0.00000000E+00
  -0.18900000E+01           0.00000000E+00
  -0.18800000E+01           0.00000000E+00
  -0.18700000E+01           0.00000000E+00
  -0.18600000E+01           0.00000000E+00
  -0.18500000E+01           0.00000000E+00
  -0.18400000E+01           0.00000000E+00
  -0.18300000E+01           0.00000000E+00
  -0.18200000E+01           0.00000000E+00
  -0.18100000E+01           0.00000000E+00
  -0.18000000E+01           0.00000000E+00
  -0.17900000E+01           0.00000000E+00
  -0.17800000E+01           0.00000000E+00
  -0.17700000E+01           0.00000000E+00
  -0.17600000E+01           0.00000000E+00
  -0.17500000E+01           0.00000000E+00
  -0.17400000E+01           0.00000000E+00
  -0.17300000E+01           0.00000000E+00
  -0.17200000E+01           0.00000000E+00
  -0.17100000E+01           0.00000000E+00
  -0.17000000E+01           0.00000000E+00
  -0.16900000E+01           0.00000000E+00
  -0.16800000E+01           0.00000000E+00
  -0.16700000E+01           0.00000000E+00
  -0.16600000E+01           0.00000000E+00
  -0.16500000E+01           0.00000000E+00
  -0.16400000E+01           0.00000000E+00
  -0.16300000E+01           0.00000000E+00
  -0.16200000E+01           0.00000000E+00
  -0.16100000E+01           0.00000000E+00
  -0.16000000E+01           0.00000000E+00
  -0.15900000E+01           0.00000000E+00
  -0.15800000E+01           0.00000000E+00
  -0.15700000E+01           0.00000000E+00
  -0.15600000E+01           0.00000000E+00
  -0.15500000E+01           0.00000000E+00
  -0.15400000E+01           0.00000000E+00
  -0.15300000E+01           0.00000000E+00
  -0.15200000E+01           0.00000000E+00
  -0.15100000E+01           0.00000000E+00
  -0.15000000E+01           0.00000000E+00
  -0.14900000E+01           0.00000000E+00
  -0.14800000E+01           0.00000000E+00
  -0.14700000E+01           0.00000000E+00
  -0.14600000E+01           0.00000000E+00
  -0.14500000E+01           0.00000000E+00
  -0.14400000E+01           0.00000000E+00
  -0.14300000E+01           0.00000000E+00
  -0.14200000E+01           0.00000000E+00
  -0.14100000E+01           0.00000000E+00
  -0.14000000E+01           0.00000000E+00
  -0.13900000E+01           0.00000000E+00
  -0.13800000E+01           0.00000000E+00
  -0.13700000E+01           0.00000000E+00
  -0.13600000E+01           0.00000000E+00
  -0.13500000E+01           0.00000000E+00
  -0.13400000E+01           0.00000000E+00
  -0.13300000E+01           0.00000000E+00
  -0.13200000E+01           0.00000000E+00
  -0.13100000E+01           0.00000000E+00
  -0.13000000E+01           0.00000000E+00
  -0.12900000E+01           0.00000000E+00
  -0.12800000E+01           0.00000000E+00
  -0.12700000E+01           0.00000000E+00
  -0.12600000E+01           0.00000000E+00
  -0.12500000E+01           0.00000000E+00
  -0.12400000E+01           0.00000000E+00
  -0.12300000E+01           0.00000000E+00
  -0.12200000E+01           0.00000000E+00
  -0.12100000E+01           0.00000000E+00
  -0.12000000E+01           0.00000000E+00
  -0.11900000E+01           0.00000000E+00
  -0.11800000E+01           0.00000000E+00
  -0.11700000E+01           0.00000000E+00
  -0.11600000E+01           0.00000000E+00
  -0.11500000E+01           0.00000000E+00
  -0.11400000E+01           0.00000000E+00
  -0.11300000E+01           0.00000000E+00
  -0.11200000E+01           0.00000000E+00
  -0.11100000E+01           0.00000000E+00
  -0.11000000E+01           0.00000000E+00
  -0.10900000E+01           0.00000000E+00
  -0.10800000E+01           0.00000000E+00
  -0.10700000E+01           0.00000000E+00
  -0.10600000E+01           0.00000000E+00
  -0.10500000E+01           0.00000000E+00
  -0.10400000E+01           0.00000000E+00
  -0.10300000E+01           0.00000000E+00
  -0.10200000E+01           0.00000000E+00
  -0.10100000E+01           0.00000000E+00
  -0.10000000E+01           0.00000000E+00
  -0.99000000E+00           0.00000000E+00
  -0.98000000E+00           0.00000000E+00
  -0.97000000E+00           0.00000000E+00
  -0.96000000E+00           0.00000000E+00
  -0.95000000E+00           0.00000000E+00
  -0.94000000E+00           0.00000000E+00
  -0.93000000E+00           0.00000000E+00
  -0.92000000E+00           0.00000000E+00
  -0.91000000E+00           0.00000000E+00
  -0.90000000E+00           0.00000000E+00
  -0.89000000E+00           0.00000000E+00
  -0.88000000E+00           0.00000000E+00
  -0.87000000E+00           0.00000000E+00
  -0.86000000E+00           0.00000000E+00
  -0.85000000E+00           0.00000000E+00
  -0.84000000E+00           0.00000000E+00
  -0.83000000E+00           0.00000000E+00
  -0.82000000E+00           0.00000000E+00
  -0.81000000E+00           0.00000000E+00
  -0.80000000E+00           0.00000000E+00
  -0.79000000E+00           0.00000000E+00
  -0.78000000E+00           0.00000000E+00
  -0.77000000E+00           0.00000000E+00
  -0.76000000E+00           0.00000000E+00
  -0.75000000E+00           0.00000000E+00
  -0.74000000E+00           0.00000000E+00
  -0.73000000E+00           0.00000000E+00
  -0.72000000E+00           0.00000000E+00
  -0.71000000E+00           0.00000000E+00
  -0.70000000E+00           0.00000000E+00
  -0.69000000E+00           0.00000000E+00
  -0.68000000E+00           0.00000000E+00
  -0.67000000E+00           0.00000000E+00
  -0.66000000E+00           0.00000000E+00
  -0.65000000E+00           0.00000000E+00
  -0.64000000E+00           0.00000000E+00
  -0.63000000E+00           0.00000000E+00
  -0.62000000E+00           0.00000000E+00
  -0.61000000E+00           0.00000000E+00
  -0.60000000E+00           0.00000000E+00
  -0.59000000E+00           0.00000000E+00
  -0.58000000E+00           0.00000000E+00
  -0.57000000E+00           0.00000000E+00
  -0.56000000E+00           0.00000000E+00
  -0.55000000E+00           0.00000000E+00
  -0.54000000E+00           0.00000000E+00
  -0.53000000E+00           0.00000000E+00
  -0.52000000E+00           0.00000000E+00
  -0.51000000E+00           0.00000000E+00
  -0.50000000E+00           0.00000000E+00
  -0.49000000E+00           0.00000000E+00
  -0.48000000E+00           0.00000000E+00
  -0.47000000E+00           0.00000000E+00
  -0.46000000E+00           0.00000000E+00
  -0.45000000E+00           0.00000000E+00
  -0.44000000E+00           0.00000000E+00
  -0.43000000E+00           0.00000000E+00
  -0.42000000E+00           0.00000000E+00
  -0.41000000E+00           0.00000000E+00
  -0.40000000E+00           0.00000000E+00
  -0.39000000E+00           0.00000000E+00
  -0.38000000E+00           0.00000000E+00
  -0.37000000E+00           0.00000000E+00
  -0.36000000E+00           0.00000000E+00
  -0.35000000E+00           0.00000000E+00
  -0.34000000E+00           0.00000000E+00
  -0.33000000E+00           0.00000000E+00
  -0.32000000E+00           0.00000000E+00
  -0.31000000E+00           0.00000000E+00
  -0.30000000E+00           0.00000000E+00
  -0.29000000E+00           0.00000000E+00
  -0.28000000E+00           0.00000000E+00
  -0.27000000E+00           0.00000000E+00
  -0.26000000E+00           0.00000000E+00
  -0.25000000E+00           0.00000000E+00
  -0.24000000E+00           0.00000000E+00
  -0.23000000E+00           0.00000000E+00
  -0.22000000E+00           0.00000000E+00
  -0.21000000E+00           0.00000000E+00
  -0.20000000E+00           0.00000000E+00
  -0.19000000E+00           0.00000000E+00
  -0.18000000E+00           0.00000000E+00
  -0.17000000E+00           0.00000000E+00
  -0.16000000E+00           0.00000000E+00
  -0.15000000E+00           0.00000000E+00
  -0.14000000E+00           0.00000000E+00
  -0.13000000E+00           0.00000000E+00
  -0.12000000E+00           0.00000000E+00
  -0.11000000E+00           0.00000000E+00
  -0.10000000E+00           0.00000000E+00
  -0.90000000E-01           0.00000000E+00
  -0.80000000E-01           0.00000000E+00
  -0.70000000E-01           0.00000000E+00
  -0.60000000E-01           0.00000000E+00
  -0.50000000E-01           0.00000000E+00
  -0.40000000E-01           0.00000000E+00
  -0.30000000E-01           0.00000000E+00
  -0.20000000E-01           0.00000000E+00
  -0.10000000E-01           0.00000000E+00
   0.00000000E+00           0.79192783E-03
   0.10000000E-01           0.62897119E-02
   0.20000000E-01           0.12630263E-01
   0.30000000E-01           0.18916556E-01
   0.40000000E-01           0.25248148E-01
   0.50000000E-01           0.31500380E-01
   0.60000000E-01           0.37825958E-01
   0.70000000E-01           0.44135264E-01
   0.80000000E-01           0.50429725E-01
   0.90000000E-01           0.56729630E-01
   0.10000000E+00           0.63057582E-01
   0.11000000E+00           0.69332415E-01
   0.12000000E+00           0.75623393E-01
   0.13000000E+00           0.81834315E-01
   0.14000000E+00           0.88031022E-01
   0.15000000E+00           0.94368598E-01
   0.16000000E+00           0.10054606E+00
   0.17000000E+00           0.10682805E+00
   0.18000000E+00           0.11307170E+00
   0.19000000E+00           0.11926958E+00
   0.20000000E+00           0.12547236E+00
   0.21000000E+00           0.13176857E+00
   0.22000000E+00           0.13779038E+00
   0.23000000E+00           0.14418936E+00
   0.24000000E+00           0.15024084E+00
   0.25000000E+00           0.15644375E+00
   0.26000000E+00           0.16259136E+00
   0.27000000E+00           0.16887350E+00
   0.28000000E+00           0.17479620E+00
   0.29000000E+00           0.18099158E+00
   0.30000000E+00           0.18712624E+00
   0.31000000E+00           0.19316423E+00
   0.32000000E+00           0.19919588E+00
   0.33000000E+00           0.20525793E+00
   0.34000000E+00           0.21111032E+00
   0.35000000E+00           0.21724106E+00
   0.36000000E+00           0.22325695E+00
   0.37000000E+00           0.22924669E+00
   0.38000000E+00           0.23507521E+00
   0.39000000E+00           0.24107252E+00
   0.40000000E+00           0.24690510E+00
   0.41000000E+00           0.25314093E+00
   0.42000000E+00           0.25886173E+00
   0.43000000E+00           0.26471244E+00
   0.44000000E+00           0.27044989E+00
   0.45000000E+00           0.27631250E+00
   0.46000000E+00           0.28223900E+00
   0.47000000E+00           0.28809671E+00
   0.48000000E+00           0.29386974E+00
   0.49000000E+00           0.29944802E+00
   0.50000000E+00           0.30520386E+00
   0.51000000E+00           0.31070190E+00
   0.52000000E+00           0.31639418E+00
   0.53000000E+00           0.32218085E+00
   0.54000000E+00           0.32806895E+00
   0.55000000E+00           0.33323799E+00
   0.56000000E+00           0.33900456E+00
   0.57000000E+00           0.34442941E+00
   0.58000000E+00           0.35005793E+00
   0.59000000E+00           0.35549193E+00
   0.60000000E+00           0.36101472E+00
   0.61000000E+00           0.36649699E+00
   0.62000000E+00           0.37150681E+00
   0.63000000E+00           0.37710535E+00
   0.64000000E+00           0.38255872E+00
   0.65000000E+00           0.38796499E+00
   0.66000000E+00           0.39318439E+00
   0.67000000E+00           0.39829721E+00
   0.68000000E+00           0.40371013E+00
   0.69000000E+00           0.40896980E+00
   0.70000000E+00           0.41408670E+00
   0.71000000E+00           0.41927316E+00
   0.72000000E+00           0.42423887E+00
   0.73000000E+00           0.42929307E+00
   0.74000000E+00           0.43446781E+00
   0.75000000E+00           0.43948740E+00
   0.76000000E+00           0.44458997E+00
   0.77000000E+00           0.44940506E+00
   0.78000000E+00           0.45447012E+00
   0.79000000E+00           0.45930753E+00
   0.80000000E+00           0.46420931E+00
   0.81000000E+00           0.46918914E+00
   0.82000000E+00           0.47378386E+00
   0.83000000E+00           0.47841551E+00
   0.84000000E+00           0.48321349E+00
   0.85000000E+00           0.48796081E+00
   0.86000000E+00           0.49286113E+00
   0.87000000E+00           0.49739272E+00
   0.88000000E+00           0.50192995E+00
   0.89000000E+00           0.50617923E+00
   0.90000000E+00           0.51089889E+00
   0.91000000E+00           0.51554590E+00
   0.92000000E+00           0.52004603E+00
   0.93000000E+00           0.52435530E+00
   0.94000000E+00           0.52854558E+00
   0.95000000E+00           0.53316980E+00
   0.96000000E+00           0.53753238E+00
   0.97000000E+00           0.54167002E+00
   0.98000000E+00           0.54610709E+00
   0.99000000E+00           0.55023419E+00
   0.10000000E+01           0.55447702E+00
   0.10100000E+01           0.55856125E+00
   0.10200000E+01           0.56265062E+00
   0.10300000E+01           0.56675033E+00
   0.10400000E+01           0.57093742E+00
   0.10500000E+01           0.57474400E+00
   0.10600000E+01           0.57903308E+00
   0.10700000E+01           0.58301073E+00
   0.10800000E+01           0.58642960E+00
   0.10900000E+01           0.59035825E+00
   0.11000000E+01           0.59430234E+00
   0.11100000E+01           0.59818778E+00
   0.11200000E+01           0.60174349E+00
   0.11300000E+01           0.60591861E+00
   0.11400000E+01           0.60922213E+00
   0.11500000E+01           0.61281437E+00
   0.11600000E+01           0.61660402E+00
   0.11700000E+01           0.62018762E+00
   0.11800000E+01           0.62344065E+00
   0.11900000E+01           0.62720551E+00
   0.12000000E+01           0.63057379E+00
   0.12100000E+01           0.63390722E+00
   0.12200000E+01           0.63733153E+00
   0.12300000E+01           0.64079117E+00
   0.12400000E+01           0.64406426E+00
   0.12500000E+01           0.64736110E+00
   0.12600000E+01           0.65051155E+00
   0.12700000E+01           0.65372083E+00
   0.12800000E+01           0.65693644E+00
   0.12900000E+01           0.66016752E+00
   0.13000000E+01           0.66325840E+00
   0.13100000E+01           0.66619706E+00
   0.13200000E+01           0.66950947E+00
   0.13300000E+01           0.67229880E+00
   0.13400000E+01           0.67515435E+00
   0.13500000E+01           0.67816274E+00
   0.13600000E+01           0.68113802E+00
   0.13700000E+01           0.68381336E+00
   0.13800000E+01           0.68680291E+00
   0.13900000E+01           0.68954277E+00
   0.14000000E+01           0.69240285E+00
   0.14100000E+01           0.69495736E+00
   0.14200000E+01           0.69804653E+00
   0.14300000E+01           0.70022925E+00
   0.14400000E+01           0.70304802E+00
   0.14500000E+01           0.70564641E+00
   0.14600000E+01           0.70795682E+00
   0.14700000E+01           0.71048566E+00
   0.14800000E+01           0.71302972E+00
   0.14900000E+01           0.71554299E+00
   0.15000000E+01           0.71780108E+00
   0.15100000E+01           0.72026100E+00
   0.15200000E+01           0.72272466E+00
   0.15300000E+01           0.72485818E+00
   0.15400000E+01           0.72734109E+00
   0.15500000E+01           0.72953052E+00
   0.15600000E+01           0.73172703E+00
   0.15700000E+01           0.73386907E+00
   0.15800000E+01           0.73605451E+00
   0.15900000E+01           0.73781437E+00
   0.16000000E+01           0.73995483E+00
   0.16100000E+01           0.74222830E+00
   0.16200000E+01           0.74438075E+00
   0.16300000E+01           0.74612520E+00
   0.16400000E+01           0.74821551E+00
   0.16500000E+01           0.74997325E+00
   0.16600000E+01           0.75205777E+00
   0.16700000E+01           0.75381747E+00
   0.16800000E+01           0.75609364E+00
   0.16900000E+01           0.75753406E+00
   0.17000000E+01           0.75941846E+00
   0.17100000E+01           0.76113318E+00
   0.17200000E+01           0.76315486E+00
   0.17300000E+01           0.76432406E+00
   0.17400000E+01           0.76636708E+00
   0.17500000E+01           0.76802390E+00
   0.17600000E+01           0.76956337E+00
   0.17700000E+01           0.77112583E+00
   0.17800000E+01           0.77262352E+00
   0.17900000E+01           0.77418772E+00
   0.18000000E+01           0.77570298E+00
   0.18100000E+01           0.77749664E+00
   0.18200000E+01           0.77819104E+00
   0.18300000E+01           0.77995192E+00
   0.18400000E+01           0.78163894E+00
   0.18500000E+01           0.78283406E+00
   0.18600000E+01           0.78407018E+00
   0.18700000E+01           0.78528123E+00
   0.18800000E+01           0.78682409E+00
   0.18900000E+01           0.78816857E+00
   0.19000000E+01           0.78897977E+00
   0.19100000E+01           0.79055052E+00
   0.19200000E+01           0.79185394E+00
   0.19300000E+01           0.79275977E+00
   0.19400000E+01           0.79420266E+00
   0.19500000E+01           0.79530320E+00
   0.19600000E+01           0.79644913E+00
   0.19700000E+01           0.79740795E+00
   0.19800000E+01           0.79848940E+00
   0.19900000E+01           0.79948914E+00
   0.20000000E+01           0.40006097E+00
