 #written on 11Aug2024 at 15:34:59 
 #----------------------------------------------- MONTECARLO ---------------------------------------------------#
 # Temp      Magnetization     Energy_ave          C_M              Sus              U_E              U_M       #
 #--------------------------------------------------------------------------------------------------------------#
  20.0000   0.57081300E-02  -0.10726158E+03   0.11387522E+01   0.80543762E-03   0.66664340E+00   0.38500989E+00
  21.0000   0.58662643E-02  -0.10611736E+03   0.11504991E+01   0.80272008E-03   0.66664018E+00   0.38710129E+00
  22.0000   0.60406402E-02  -0.10496458E+03   0.11576909E+01   0.80672186E-03   0.66663678E+00   0.38882019E+00
  23.0000   0.61864051E-02  -0.10379839E+03   0.11744898E+01   0.80250140E-03   0.66663277E+00   0.39095568E+00
  24.0000   0.63417510E-02  -0.10262259E+03   0.11839251E+01   0.80286402E-03   0.66662861E+00   0.39334206E+00
  25.0000   0.64977173E-02  -0.10142980E+03   0.12068031E+01   0.79986431E-03   0.66662358E+00   0.39604632E+00
  26.0000   0.66526249E-02  -0.10022717E+03   0.12104705E+01   0.80000226E-03   0.66661879E+00   0.39870168E+00
  27.0000   0.67970657E-02  -0.99010355E+02   0.12263366E+01   0.79808717E-03   0.66661307E+00   0.40043457E+00
  28.0000   0.69485093E-02  -0.97775552E+02   0.12419417E+01   0.79837510E-03   0.66660681E+00   0.40256126E+00
  29.0000   0.71005891E-02  -0.96524827E+02   0.12551018E+01   0.79908288E-03   0.66660009E+00   0.40540563E+00
  30.0000   0.72507098E-02  -0.95260155E+02   0.12754584E+01   0.79909556E-03   0.66659233E+00   0.40706631E+00
  31.0000   0.73928752E-02  -0.93972287E+02   0.12994054E+01   0.79796942E-03   0.66658357E+00   0.40974652E+00
  32.0000   0.75448523E-02  -0.92667476E+02   0.13190392E+01   0.79871737E-03   0.66657425E+00   0.41128282E+00
  33.0000   0.76939811E-02  -0.91340531E+02   0.13370943E+01   0.80085663E-03   0.66656412E+00   0.41362344E+00
  34.0000   0.78437118E-02  -0.89990849E+02   0.13618392E+01   0.80221297E-03   0.66655244E+00   0.41534297E+00
  35.0000   0.79912328E-02  -0.88615494E+02   0.13883714E+01   0.80292736E-03   0.66653942E+00   0.41774838E+00
  36.0000   0.81323374E-02  -0.87215180E+02   0.14147623E+01   0.80280565E-03   0.66652504E+00   0.41988849E+00
  37.0000   0.82796395E-02  -0.85786515E+02   0.14453897E+01   0.80546426E-03   0.66650871E+00   0.42100687E+00
  38.0000   0.84232203E-02  -0.84326653E+02   0.14723714E+01   0.80458231E-03   0.66649103E+00   0.42405529E+00
  39.0000   0.85752602E-02  -0.82836723E+02   0.15054886E+01   0.80819372E-03   0.66647064E+00   0.42562148E+00
  40.0000   0.87223861E-02  -0.81313232E+02   0.15421855E+01   0.81285839E-03   0.66644746E+00   0.42665703E+00
  41.0000   0.88695328E-02  -0.79755287E+02   0.15824460E+01   0.81697364E-03   0.66642104E+00   0.42742410E+00
  42.0000   0.90239517E-02  -0.78148297E+02   0.16153641E+01   0.82099395E-03   0.66639265E+00   0.42975533E+00
  43.0000   0.91698045E-02  -0.76507382E+02   0.16658097E+01   0.82192779E-03   0.66635766E+00   0.43193220E+00
  44.0000   0.93204913E-02  -0.74822566E+02   0.17108660E+01   0.82619917E-03   0.66631928E+00   0.43281414E+00
  45.0000   0.94700360E-02  -0.73086795E+02   0.17566989E+01   0.83041602E-03   0.66627571E+00   0.43440775E+00
  46.0000   0.96154283E-02  -0.71297267E+02   0.18121472E+01   0.83409985E-03   0.66622382E+00   0.43562386E+00
  47.0000   0.97728295E-02  -0.69455976E+02   0.18712952E+01   0.84135914E-03   0.66616371E+00   0.43641374E+00
  48.0000   0.99276452E-02  -0.67553812E+02   0.19365155E+01   0.84775513E-03   0.66609289E+00   0.43717301E+00
  49.0000   0.10082294E-01  -0.65590298E+02   0.20001051E+01   0.85469657E-03   0.66601178E+00   0.43803931E+00
  50.0000   0.10238513E-01  -0.63549456E+02   0.20743704E+01   0.85983085E-03   0.66591341E+00   0.44003659E+00
  51.0000   0.10399047E-01  -0.61440891E+02   0.21529001E+01   0.86536237E-03   0.66579676E+00   0.44096638E+00
  52.0000   0.10553663E-01  -0.59246186E+02   0.22381451E+01   0.87414834E-03   0.66565593E+00   0.44107505E+00
  53.0000   0.10698466E-01  -0.56965529E+02   0.23359504E+01   0.87761504E-03   0.66548175E+00   0.44244780E+00
  54.0000   0.10861257E-01  -0.54566787E+02   0.24377449E+01   0.88688201E-03   0.66526830E+00   0.44283096E+00
  55.0000   0.11027205E-01  -0.52060355E+02   0.25744719E+01   0.89850262E-03   0.66498465E+00   0.44277900E+00
  56.0000   0.11204743E-01  -0.49401508E+02   0.27295701E+01   0.90779328E-03   0.66461521E+00   0.44362546E+00
  57.0000   0.11363433E-01  -0.46597698E+02   0.29232787E+01   0.91580871E-03   0.66411115E+00   0.44414300E+00
  58.0000   0.11539840E-01  -0.43540175E+02   0.32002594E+01   0.92811061E-03   0.66335551E+00   0.44452807E+00
  59.0000   0.11726564E-01  -0.40132853E+02   0.36600891E+01   0.94018922E-03   0.66207065E+00   0.44462604E+00
  60.0000   0.11915291E-01  -0.36465392E+02   0.33689536E+01   0.95597207E-03   0.66125421E+00   0.44459568E+00
  61.0000   0.12077123E-01  -0.33862457E+02   0.18926456E+01   0.96486290E-03   0.66296614E+00   0.44467680E+00
  62.0000   0.12189052E-01  -0.32407363E+02   0.11540252E+01   0.96604156E-03   0.66414794E+00   0.44476441E+00
  63.0000   0.12280426E-01  -0.31406948E+02   0.88467019E+00   0.96759812E-03   0.66455915E+00   0.44446659E+00
  64.0000   0.12354648E-01  -0.30595302E+02   0.75101838E+00   0.96303443E-03   0.66472723E+00   0.44440071E+00
  65.0000   0.12439423E-01  -0.29885383E+02   0.67326800E+00   0.96159120E-03   0.66479039E+00   0.44456947E+00
  66.0000   0.12523529E-01  -0.29245145E+02   0.61422605E+00   0.96113664E-03   0.66482503E+00   0.44396020E+00
  67.0000   0.12592140E-01  -0.28655738E+02   0.56857204E+00   0.95632062E-03   0.66483791E+00   0.44432383E+00
  68.0000   0.12673099E-01  -0.28103187E+02   0.53074699E+00   0.95471291E-03   0.66483922E+00   0.44447184E+00
  69.0000   0.12728191E-01  -0.27587448E+02   0.49972508E+00   0.94889483E-03   0.66482842E+00   0.44407960E+00
  70.0000   0.12802822E-01  -0.27101760E+02   0.47239476E+00   0.94576149E-03   0.66481395E+00   0.44418670E+00
  71.0000   0.12874477E-01  -0.26641125E+02   0.44923982E+00   0.94329187E-03   0.66479127E+00   0.44449122E+00
  72.0000   0.12942800E-01  -0.26204549E+02   0.42722171E+00   0.93770757E-03   0.66477103E+00   0.44518053E+00
  73.0000   0.12997533E-01  -0.25787814E+02   0.40654067E+00   0.93502237E-03   0.66475203E+00   0.44417570E+00
  74.0000   0.13061473E-01  -0.25389590E+02   0.38831399E+00   0.93306764E-03   0.66472872E+00   0.44376148E+00
  75.0000   0.13114098E-01  -0.25009900E+02   0.37121231E+00   0.92605478E-03   0.66470548E+00   0.44433487E+00
  76.0000   0.13181136E-01  -0.24646187E+02   0.35721171E+00   0.92361078E-03   0.66467088E+00   0.44446795E+00
  77.0000   0.13244463E-01  -0.24295266E+02   0.34321504E+00   0.91900426E-03   0.66464176E+00   0.44455913E+00
  78.0000   0.13293897E-01  -0.23959190E+02   0.32958830E+00   0.91627591E-03   0.66461518E+00   0.44445701E+00
  79.0000   0.13347483E-01  -0.23637320E+02   0.31680506E+00   0.90875811E-03   0.66458819E+00   0.44475270E+00
  80.0000   0.13406682E-01  -0.23324830E+02   0.30520087E+00   0.90939043E-03   0.66455825E+00   0.44384450E+00
  81.0000   0.13461748E-01  -0.23023163E+02   0.29513621E+00   0.90455305E-03   0.66452143E+00   0.44480920E+00
  82.0000   0.13505308E-01  -0.22733613E+02   0.28537684E+00   0.90028836E-03   0.66448658E+00   0.44361274E+00
  83.0000   0.13555400E-01  -0.22453608E+02   0.27564810E+00   0.89450303E-03   0.66445558E+00   0.44447017E+00
  84.0000   0.13606062E-01  -0.22179881E+02   0.26716269E+00   0.89271601E-03   0.66441717E+00   0.44410549E+00
  85.0000   0.13645468E-01  -0.21918689E+02   0.25862803E+00   0.88563837E-03   0.66438358E+00   0.44394979E+00
  86.0000   0.13699834E-01  -0.21664267E+02   0.25047767E+00   0.88253292E-03   0.66434994E+00   0.44414590E+00
  87.0000   0.13747025E-01  -0.21418253E+02   0.24276763E+00   0.87839206E-03   0.66431535E+00   0.44378139E+00
  88.0000   0.13790575E-01  -0.21178497E+02   0.23560713E+00   0.87472146E-03   0.66427928E+00   0.44385138E+00
  89.0000   0.13841484E-01  -0.20947240E+02   0.22890769E+00   0.87252497E-03   0.66424093E+00   0.44337290E+00
  90.0000   0.13892397E-01  -0.20720455E+02   0.22280278E+00   0.86709966E-03   0.66419941E+00   0.44394348E+00
  91.0000   0.13933320E-01  -0.20500397E+02   0.21635311E+00   0.85981534E-03   0.66416490E+00   0.44496649E+00
  92.0000   0.13970296E-01  -0.20287021E+02   0.21047732E+00   0.85560075E-03   0.66412651E+00   0.44453201E+00
  93.0000   0.14021903E-01  -0.20080503E+02   0.20495504E+00   0.85541847E-03   0.66408713E+00   0.44386476E+00
  94.0000   0.14060993E-01  -0.19878093E+02   0.19937685E+00   0.84922948E-03   0.66405025E+00   0.44451123E+00
  95.0000   0.14095876E-01  -0.19680844E+02   0.19393080E+00   0.84551450E-03   0.66401566E+00   0.44442505E+00
  96.0000   0.14145543E-01  -0.19488313E+02   0.18951113E+00   0.84157420E-03   0.66396861E+00   0.44445872E+00
  97.0000   0.14173358E-01  -0.19303794E+02   0.18467010E+00   0.83666370E-03   0.66393078E+00   0.44420877E+00
  98.0000   0.14214510E-01  -0.19119830E+02   0.18039228E+00   0.83382157E-03   0.66388655E+00   0.44409269E+00
  99.0000   0.14240610E-01  -0.18943082E+02   0.17545335E+00   0.82832450E-03   0.66385599E+00   0.44437106E+00
