 #written on 11Aug2024 at 15:34:59 
 #----------------- MONTECARLO -------------------#
 #        M                      P(M)             #
 #------------------------------------------------#
 #T=    20.0000
  -0.40000000E+01           0.00000000E+00
  -0.39900000E+01           0.00000000E+00
  -0.39800000E+01           0.00000000E+00
  -0.39700000E+01           0.00000000E+00
  -0.39600000E+01           0.00000000E+00
  -0.39500000E+01           0.00000000E+00
  -0.39400000E+01           0.00000000E+00
  -0.39300000E+01           0.00000000E+00
  -0.39200000E+01           0.00000000E+00
  -0.39100000E+01           0.00000000E+00
  -0.39000000E+01           0.00000000E+00
  -0.38900000E+01           0.00000000E+00
  -0.38800000E+01           0.00000000E+00
  -0.38700000E+01           0.00000000E+00
  -0.38600000E+01           0.00000000E+00
  -0.38500000E+01           0.00000000E+00
  -0.38400000E+01           0.00000000E+00
  -0.38300000E+01           0.00000000E+00
  -0.38200000E+01           0.00000000E+00
  -0.38100000E+01           0.00000000E+00
  -0.38000000E+01           0.00000000E+00
  -0.37900000E+01           0.00000000E+00
  -0.37800000E+01           0.00000000E+00
  -0.37700000E+01           0.00000000E+00
  -0.37600000E+01           0.00000000E+00
  -0.37500000E+01           0.00000000E+00
  -0.37400000E+01           0.00000000E+00
  -0.37300000E+01           0.00000000E+00
  -0.37200000E+01           0.00000000E+00
  -0.37100000E+01           0.00000000E+00
  -0.37000000E+01           0.00000000E+00
  -0.36900000E+01           0.00000000E+00
  -0.36800000E+01           0.00000000E+00
  -0.36700000E+01           0.00000000E+00
  -0.36600000E+01           0.00000000E+00
  -0.36500000E+01           0.00000000E+00
  -0.36400000E+01           0.00000000E+00
  -0.36300000E+01           0.00000000E+00
  -0.36200000E+01           0.00000000E+00
  -0.36100000E+01           0.00000000E+00
  -0.36000000E+01           0.00000000E+00
  -0.35900000E+01           0.00000000E+00
  -0.35800000E+01           0.00000000E+00
  -0.35700000E+01           0.00000000E+00
  -0.35600000E+01           0.00000000E+00
  -0.35500000E+01           0.00000000E+00
  -0.35400000E+01           0.00000000E+00
  -0.35300000E+01           0.00000000E+00
  -0.35200000E+01           0.00000000E+00
  -0.35100000E+01           0.00000000E+00
  -0.35000000E+01           0.00000000E+00
  -0.34900000E+01           0.00000000E+00
  -0.34800000E+01           0.00000000E+00
  -0.34700000E+01           0.00000000E+00
  -0.34600000E+01           0.00000000E+00
  -0.34500000E+01           0.00000000E+00
  -0.34400000E+01           0.00000000E+00
  -0.34300000E+01           0.00000000E+00
  -0.34200000E+01           0.00000000E+00
  -0.34100000E+01           0.00000000E+00
  -0.34000000E+01           0.00000000E+00
  -0.33900000E+01           0.00000000E+00
  -0.33800000E+01           0.00000000E+00
  -0.33700000E+01           0.00000000E+00
  -0.33600000E+01           0.00000000E+00
  -0.33500000E+01           0.00000000E+00
  -0.33400000E+01           0.00000000E+00
  -0.33300000E+01           0.00000000E+00
  -0.33200000E+01           0.00000000E+00
  -0.33100000E+01           0.00000000E+00
  -0.33000000E+01           0.00000000E+00
  -0.32900000E+01           0.00000000E+00
  -0.32800000E+01           0.00000000E+00
  -0.32700000E+01           0.00000000E+00
  -0.32600000E+01           0.00000000E+00
  -0.32500000E+01           0.00000000E+00
  -0.32400000E+01           0.00000000E+00
  -0.32300000E+01           0.00000000E+00
  -0.32200000E+01           0.00000000E+00
  -0.32100000E+01           0.00000000E+00
  -0.32000000E+01           0.00000000E+00
  -0.31900000E+01           0.00000000E+00
  -0.31800000E+01           0.00000000E+00
  -0.31700000E+01           0.00000000E+00
  -0.31600000E+01           0.00000000E+00
  -0.31500000E+01           0.00000000E+00
  -0.31400000E+01           0.00000000E+00
  -0.31300000E+01           0.00000000E+00
  -0.31200000E+01           0.00000000E+00
  -0.31100000E+01           0.00000000E+00
  -0.31000000E+01           0.00000000E+00
  -0.30900000E+01           0.00000000E+00
  -0.30800000E+01           0.00000000E+00
  -0.30700000E+01           0.00000000E+00
  -0.30600000E+01           0.00000000E+00
  -0.30500000E+01           0.00000000E+00
  -0.30400000E+01           0.00000000E+00
  -0.30300000E+01           0.00000000E+00
  -0.30200000E+01           0.00000000E+00
  -0.30100000E+01           0.00000000E+00
  -0.30000000E+01           0.00000000E+00
  -0.29900000E+01           0.00000000E+00
  -0.29800000E+01           0.00000000E+00
  -0.29700000E+01           0.00000000E+00
  -0.29600000E+01           0.00000000E+00
  -0.29500000E+01           0.00000000E+00
  -0.29400000E+01           0.00000000E+00
  -0.29300000E+01           0.00000000E+00
  -0.29200000E+01           0.00000000E+00
  -0.29100000E+01           0.00000000E+00
  -0.29000000E+01           0.00000000E+00
  -0.28900000E+01           0.00000000E+00
  -0.28800000E+01           0.00000000E+00
  -0.28700000E+01           0.00000000E+00
  -0.28600000E+01           0.00000000E+00
  -0.28500000E+01           0.00000000E+00
  -0.28400000E+01           0.00000000E+00
  -0.28300000E+01           0.00000000E+00
  -0.28200000E+01           0.00000000E+00
  -0.28100000E+01           0.00000000E+00
  -0.28000000E+01           0.00000000E+00
  -0.27900000E+01           0.00000000E+00
  -0.27800000E+01           0.00000000E+00
  -0.27700000E+01           0.00000000E+00
  -0.27600000E+01           0.00000000E+00
  -0.27500000E+01           0.00000000E+00
  -0.27400000E+01           0.00000000E+00
  -0.27300000E+01           0.00000000E+00
  -0.27200000E+01           0.00000000E+00
  -0.27100000E+01           0.00000000E+00
  -0.27000000E+01           0.00000000E+00
  -0.26900000E+01           0.00000000E+00
  -0.26800000E+01           0.00000000E+00
  -0.26700000E+01           0.00000000E+00
  -0.26600000E+01           0.00000000E+00
  -0.26500000E+01           0.00000000E+00
  -0.26400000E+01           0.00000000E+00
  -0.26300000E+01           0.00000000E+00
  -0.26200000E+01           0.00000000E+00
  -0.26100000E+01           0.00000000E+00
  -0.26000000E+01           0.00000000E+00
  -0.25900000E+01           0.00000000E+00
  -0.25800000E+01           0.00000000E+00
  -0.25700000E+01           0.00000000E+00
  -0.25600000E+01           0.00000000E+00
  -0.25500000E+01           0.00000000E+00
  -0.25400000E+01           0.00000000E+00
  -0.25300000E+01           0.00000000E+00
  -0.25200000E+01           0.00000000E+00
  -0.25100000E+01           0.00000000E+00
  -0.25000000E+01           0.00000000E+00
  -0.24900000E+01           0.00000000E+00
  -0.24800000E+01           0.00000000E+00
  -0.24700000E+01           0.00000000E+00
  -0.24600000E+01           0.00000000E+00
  -0.24500000E+01           0.00000000E+00
  -0.24400000E+01           0.00000000E+00
  -0.24300000E+01           0.00000000E+00
  -0.24200000E+01           0.00000000E+00
  -0.24100000E+01           0.00000000E+00
  -0.24000000E+01           0.00000000E+00
  -0.23900000E+01           0.00000000E+00
  -0.23800000E+01           0.00000000E+00
  -0.23700000E+01           0.00000000E+00
  -0.23600000E+01           0.00000000E+00
  -0.23500000E+01           0.00000000E+00
  -0.23400000E+01           0.00000000E+00
  -0.23300000E+01           0.00000000E+00
  -0.23200000E+01           0.00000000E+00
  -0.23100000E+01           0.00000000E+00
  -0.23000000E+01           0.00000000E+00
  -0.22900000E+01           0.00000000E+00
  -0.22800000E+01           0.00000000E+00
  -0.22700000E+01           0.00000000E+00
  -0.22600000E+01           0.00000000E+00
  -0.22500000E+01           0.00000000E+00
  -0.22400000E+01           0.00000000E+00
  -0.22300000E+01           0.00000000E+00
  -0.22200000E+01           0.00000000E+00
  -0.22100000E+01           0.00000000E+00
  -0.22000000E+01           0.00000000E+00
  -0.21900000E+01           0.00000000E+00
  -0.21800000E+01           0.00000000E+00
  -0.21700000E+01           0.00000000E+00
  -0.21600000E+01           0.00000000E+00
  -0.21500000E+01           0.00000000E+00
  -0.21400000E+01           0.00000000E+00
  -0.21300000E+01           0.00000000E+00
  -0.21200000E+01           0.00000000E+00
  -0.21100000E+01           0.00000000E+00
  -0.21000000E+01           0.00000000E+00
  -0.20900000E+01           0.00000000E+00
  -0.20800000E+01           0.00000000E+00
  -0.20700000E+01           0.00000000E+00
  -0.20600000E+01           0.00000000E+00
  -0.20500000E+01           0.00000000E+00
  -0.20400000E+01           0.00000000E+00
  -0.20300000E+01           0.00000000E+00
  -0.20200000E+01           0.00000000E+00
  -0.20100000E+01           0.00000000E+00
  -0.20000000E+01           0.00000000E+00
  -0.19900000E+01           0.00000000E+00
  -0.19800000E+01           0.00000000E+00
  -0.19700000E+01           0.00000000E+00
  -0.19600000E+01           0.00000000E+00
  -0.19500000E+01           0.00000000E+00
  -0.19400000E+01           0.00000000E+00
  -0.19300000E+01           0.00000000E+00
  -0.19200000E+01           0.00000000E+00
  -0.19100000E+01           0.00000000E+00
  -0.19000000E+01           0.00000000E+00
  -0.18900000E+01           0.00000000E+00
  -0.18800000E+01           0.00000000E+00
  -0.18700000E+01           0.00000000E+00
  -0.18600000E+01           0.00000000E+00
  -0.18500000E+01           0.00000000E+00
  -0.18400000E+01           0.00000000E+00
  -0.18300000E+01           0.00000000E+00
  -0.18200000E+01           0.00000000E+00
  -0.18100000E+01           0.00000000E+00
  -0.18000000E+01           0.00000000E+00
  -0.17900000E+01           0.00000000E+00
  -0.17800000E+01           0.00000000E+00
  -0.17700000E+01           0.00000000E+00
  -0.17600000E+01           0.00000000E+00
  -0.17500000E+01           0.00000000E+00
  -0.17400000E+01           0.00000000E+00
  -0.17300000E+01           0.00000000E+00
  -0.17200000E+01           0.00000000E+00
  -0.17100000E+01           0.00000000E+00
  -0.17000000E+01           0.00000000E+00
  -0.16900000E+01           0.00000000E+00
  -0.16800000E+01           0.00000000E+00
  -0.16700000E+01           0.00000000E+00
  -0.16600000E+01           0.00000000E+00
  -0.16500000E+01           0.00000000E+00
  -0.16400000E+01           0.00000000E+00
  -0.16300000E+01           0.00000000E+00
  -0.16200000E+01           0.00000000E+00
  -0.16100000E+01           0.00000000E+00
  -0.16000000E+01           0.00000000E+00
  -0.15900000E+01           0.00000000E+00
  -0.15800000E+01           0.00000000E+00
  -0.15700000E+01           0.00000000E+00
  -0.15600000E+01           0.00000000E+00
  -0.15500000E+01           0.00000000E+00
  -0.15400000E+01           0.00000000E+00
  -0.15300000E+01           0.00000000E+00
  -0.15200000E+01           0.00000000E+00
  -0.15100000E+01           0.00000000E+00
  -0.15000000E+01           0.00000000E+00
  -0.14900000E+01           0.00000000E+00
  -0.14800000E+01           0.00000000E+00
  -0.14700000E+01           0.00000000E+00
  -0.14600000E+01           0.00000000E+00
  -0.14500000E+01           0.00000000E+00
  -0.14400000E+01           0.00000000E+00
  -0.14300000E+01           0.00000000E+00
  -0.14200000E+01           0.00000000E+00
  -0.14100000E+01           0.00000000E+00
  -0.14000000E+01           0.00000000E+00
  -0.13900000E+01           0.00000000E+00
  -0.13800000E+01           0.00000000E+00
  -0.13700000E+01           0.00000000E+00
  -0.13600000E+01           0.00000000E+00
  -0.13500000E+01           0.00000000E+00
  -0.13400000E+01           0.00000000E+00
  -0.13300000E+01           0.00000000E+00
  -0.13200000E+01           0.00000000E+00
  -0.13100000E+01           0.00000000E+00
  -0.13000000E+01           0.00000000E+00
  -0.12900000E+01           0.00000000E+00
  -0.12800000E+01           0.00000000E+00
  -0.12700000E+01           0.00000000E+00
  -0.12600000E+01           0.00000000E+00
  -0.12500000E+01           0.00000000E+00
  -0.12400000E+01           0.00000000E+00
  -0.12300000E+01           0.00000000E+00
  -0.12200000E+01           0.00000000E+00
  -0.12100000E+01           0.00000000E+00
  -0.12000000E+01           0.00000000E+00
  -0.11900000E+01           0.00000000E+00
  -0.11800000E+01           0.00000000E+00
  -0.11700000E+01           0.00000000E+00
  -0.11600000E+01           0.00000000E+00
  -0.11500000E+01           0.00000000E+00
  -0.11400000E+01           0.00000000E+00
  -0.11300000E+01           0.00000000E+00
  -0.11200000E+01           0.00000000E+00
  -0.11100000E+01           0.00000000E+00
  -0.11000000E+01           0.00000000E+00
  -0.10900000E+01           0.00000000E+00
  -0.10800000E+01           0.00000000E+00
  -0.10700000E+01           0.00000000E+00
  -0.10600000E+01           0.00000000E+00
  -0.10500000E+01           0.00000000E+00
  -0.10400000E+01           0.00000000E+00
  -0.10300000E+01           0.00000000E+00
  -0.10200000E+01           0.00000000E+00
  -0.10100000E+01           0.00000000E+00
  -0.10000000E+01           0.00000000E+00
  -0.99000000E+00           0.00000000E+00
  -0.98000000E+00           0.00000000E+00
  -0.97000000E+00           0.00000000E+00
  -0.96000000E+00           0.00000000E+00
  -0.95000000E+00           0.00000000E+00
  -0.94000000E+00           0.00000000E+00
  -0.93000000E+00           0.00000000E+00
  -0.92000000E+00           0.00000000E+00
  -0.91000000E+00           0.00000000E+00
  -0.90000000E+00           0.00000000E+00
  -0.89000000E+00           0.00000000E+00
  -0.88000000E+00           0.00000000E+00
  -0.87000000E+00           0.00000000E+00
  -0.86000000E+00           0.00000000E+00
  -0.85000000E+00           0.00000000E+00
  -0.84000000E+00           0.00000000E+00
  -0.83000000E+00           0.00000000E+00
  -0.82000000E+00           0.00000000E+00
  -0.81000000E+00           0.00000000E+00
  -0.80000000E+00           0.00000000E+00
  -0.79000000E+00           0.00000000E+00
  -0.78000000E+00           0.00000000E+00
  -0.77000000E+00           0.00000000E+00
  -0.76000000E+00           0.00000000E+00
  -0.75000000E+00           0.00000000E+00
  -0.74000000E+00           0.00000000E+00
  -0.73000000E+00           0.00000000E+00
  -0.72000000E+00           0.00000000E+00
  -0.71000000E+00           0.00000000E+00
  -0.70000000E+00           0.00000000E+00
  -0.69000000E+00           0.00000000E+00
  -0.68000000E+00           0.00000000E+00
  -0.67000000E+00           0.00000000E+00
  -0.66000000E+00           0.00000000E+00
  -0.65000000E+00           0.00000000E+00
  -0.64000000E+00           0.00000000E+00
  -0.63000000E+00           0.00000000E+00
  -0.62000000E+00           0.00000000E+00
  -0.61000000E+00           0.00000000E+00
  -0.60000000E+00           0.00000000E+00
  -0.59000000E+00           0.00000000E+00
  -0.58000000E+00           0.00000000E+00
  -0.57000000E+00           0.00000000E+00
  -0.56000000E+00           0.00000000E+00
  -0.55000000E+00           0.00000000E+00
  -0.54000000E+00           0.00000000E+00
  -0.53000000E+00           0.00000000E+00
  -0.52000000E+00           0.00000000E+00
  -0.51000000E+00           0.00000000E+00
  -0.50000000E+00           0.00000000E+00
  -0.49000000E+00           0.00000000E+00
  -0.48000000E+00           0.00000000E+00
  -0.47000000E+00           0.00000000E+00
  -0.46000000E+00           0.00000000E+00
  -0.45000000E+00           0.00000000E+00
  -0.44000000E+00           0.00000000E+00
  -0.43000000E+00           0.00000000E+00
  -0.42000000E+00           0.00000000E+00
  -0.41000000E+00           0.00000000E+00
  -0.40000000E+00           0.00000000E+00
  -0.39000000E+00           0.00000000E+00
  -0.38000000E+00           0.00000000E+00
  -0.37000000E+00           0.00000000E+00
  -0.36000000E+00           0.00000000E+00
  -0.35000000E+00           0.00000000E+00
  -0.34000000E+00           0.00000000E+00
  -0.33000000E+00           0.00000000E+00
  -0.32000000E+00           0.00000000E+00
  -0.31000000E+00           0.00000000E+00
  -0.30000000E+00           0.00000000E+00
  -0.29000000E+00           0.00000000E+00
  -0.28000000E+00           0.00000000E+00
  -0.27000000E+00           0.00000000E+00
  -0.26000000E+00           0.00000000E+00
  -0.25000000E+00           0.00000000E+00
  -0.24000000E+00           0.00000000E+00
  -0.23000000E+00           0.00000000E+00
  -0.22000000E+00           0.00000000E+00
  -0.21000000E+00           0.00000000E+00
  -0.20000000E+00           0.00000000E+00
  -0.19000000E+00           0.00000000E+00
  -0.18000000E+00           0.00000000E+00
  -0.17000000E+00           0.00000000E+00
  -0.16000000E+00           0.00000000E+00
  -0.15000000E+00           0.00000000E+00
  -0.14000000E+00           0.00000000E+00
  -0.13000000E+00           0.00000000E+00
  -0.12000000E+00           0.00000000E+00
  -0.11000000E+00           0.00000000E+00
  -0.10000000E+00           0.00000000E+00
  -0.90000000E-01           0.00000000E+00
  -0.80000000E-01           0.00000000E+00
  -0.70000000E-01           0.00000000E+00
  -0.60000000E-01           0.00000000E+00
  -0.50000000E-01           0.00000000E+00
  -0.40000000E-01           0.00000000E+00
  -0.30000000E-01           0.00000000E+00
  -0.20000000E-01           0.00000000E+00
  -0.10000000E-01           0.00000000E+00
   0.00000000E+00           0.16490300E-03
   0.10000000E-01           0.42832451E-02
   0.20000000E-01           0.15481481E-01
   0.30000000E-01           0.32764374E-01
   0.40000000E-01           0.55093827E-01
   0.50000000E-01           0.81648148E-01
   0.60000000E-01           0.11164991E+00
   0.70000000E-01           0.14435855E+00
   0.80000000E-01           0.17904709E+00
   0.90000000E-01           0.21612187E+00
   0.10000000E+00           0.25392998E+00
   0.11000000E+00           0.29262787E+00
   0.12000000E+00           0.33335432E+00
   0.13000000E+00           0.37311640E+00
   0.14000000E+00           0.41293933E+00
   0.15000000E+00           0.45272734E+00
   0.16000000E+00           0.49318325E+00
   0.17000000E+00           0.53251446E+00
   0.18000000E+00           0.57078113E+00
   0.19000000E+00           0.60832787E+00
   0.20000000E+00           0.64744797E+00
   0.21000000E+00           0.68332346E+00
   0.22000000E+00           0.71975185E+00
   0.23000000E+00           0.75347848E+00
   0.24000000E+00           0.78637443E+00
   0.25000000E+00           0.82014074E+00
   0.26000000E+00           0.84928307E+00
   0.27000000E+00           0.88161570E+00
   0.28000000E+00           0.91081340E+00
   0.29000000E+00           0.93762734E+00
   0.30000000E+00           0.96499594E+00
   0.31000000E+00           0.99031693E+00
   0.32000000E+00           0.10147869E+01
   0.33000000E+00           0.10380660E+01
   0.34000000E+00           0.10582799E+01
   0.35000000E+00           0.10791631E+01
   0.36000000E+00           0.10967000E+01
   0.37000000E+00           0.11141640E+01
   0.38000000E+00           0.11308764E+01
   0.39000000E+00           0.11456131E+01
   0.40000000E+00           0.11608723E+01
   0.41000000E+00           0.11726194E+01
   0.42000000E+00           0.11848951E+01
   0.43000000E+00           0.11952277E+01
   0.44000000E+00           0.12043623E+01
   0.45000000E+00           0.12117492E+01
   0.46000000E+00           0.12177769E+01
   0.47000000E+00           0.12237501E+01
   0.48000000E+00           0.12273069E+01
   0.49000000E+00           0.12317891E+01
   0.50000000E+00           0.12327388E+01
   0.51000000E+00           0.12334924E+01
   0.52000000E+00           0.12348386E+01
   0.53000000E+00           0.12340864E+01
   0.54000000E+00           0.12318245E+01
   0.55000000E+00           0.12295503E+01
   0.56000000E+00           0.12261409E+01
   0.57000000E+00           0.12217173E+01
   0.58000000E+00           0.12161176E+01
   0.59000000E+00           0.12091212E+01
   0.60000000E+00           0.12028178E+01
   0.61000000E+00           0.11937171E+01
   0.62000000E+00           0.11858277E+01
   0.63000000E+00           0.11759201E+01
   0.64000000E+00           0.11648219E+01
   0.65000000E+00           0.11540910E+01
   0.66000000E+00           0.11420810E+01
   0.67000000E+00           0.11301381E+01
   0.68000000E+00           0.11179353E+01
   0.69000000E+00           0.11050743E+01
   0.70000000E+00           0.10900160E+01
   0.71000000E+00           0.10767718E+01
   0.72000000E+00           0.10620878E+01
   0.73000000E+00           0.10468201E+01
   0.74000000E+00           0.10311924E+01
   0.75000000E+00           0.10158095E+01
   0.76000000E+00           0.99965185E+00
   0.77000000E+00           0.98315203E+00
   0.78000000E+00           0.96591058E+00
   0.79000000E+00           0.94891252E+00
   0.80000000E+00           0.93265397E+00
   0.81000000E+00           0.91419859E+00
   0.82000000E+00           0.89654497E+00
   0.83000000E+00           0.87865556E+00
   0.84000000E+00           0.86053545E+00
   0.85000000E+00           0.84281481E+00
   0.86000000E+00           0.82443051E+00
   0.87000000E+00           0.80623845E+00
   0.88000000E+00           0.78867549E+00
   0.89000000E+00           0.77045044E+00
   0.90000000E+00           0.75231358E+00
   0.91000000E+00           0.73488607E+00
   0.92000000E+00           0.71632892E+00
   0.93000000E+00           0.69800459E+00
   0.94000000E+00           0.68014145E+00
   0.95000000E+00           0.66237919E+00
   0.96000000E+00           0.64561376E+00
   0.97000000E+00           0.62750441E+00
   0.98000000E+00           0.61005220E+00
   0.99000000E+00           0.59337372E+00
   0.10000000E+01           0.57624233E+00
   0.10100000E+01           0.55942998E+00
   0.10200000E+01           0.54236737E+00
   0.10300000E+01           0.52651499E+00
   0.10400000E+01           0.51029506E+00
   0.10500000E+01           0.49505785E+00
   0.10600000E+01           0.47911852E+00
   0.10700000E+01           0.46394674E+00
   0.10800000E+01           0.44832910E+00
   0.10900000E+01           0.43383686E+00
   0.11000000E+01           0.41934727E+00
   0.11100000E+01           0.40578360E+00
   0.11200000E+01           0.39157531E+00
   0.11300000E+01           0.37818836E+00
   0.11400000E+01           0.36439859E+00
   0.11500000E+01           0.35168042E+00
   0.11600000E+01           0.33926596E+00
   0.11700000E+01           0.32693104E+00
   0.11800000E+01           0.31371658E+00
   0.11900000E+01           0.30281393E+00
   0.12000000E+01           0.29123474E+00
   0.12100000E+01           0.27996261E+00
   0.12200000E+01           0.26869418E+00
   0.12300000E+01           0.25858959E+00
   0.12400000E+01           0.24861376E+00
   0.12500000E+01           0.23791182E+00
   0.12600000E+01           0.22822434E+00
   0.12700000E+01           0.21881570E+00
   0.12800000E+01           0.21015926E+00
   0.12900000E+01           0.20087055E+00
   0.13000000E+01           0.19219894E+00
   0.13100000E+01           0.18412628E+00
   0.13200000E+01           0.17626614E+00
   0.13300000E+01           0.16886208E+00
   0.13400000E+01           0.16088713E+00
   0.13500000E+01           0.15370811E+00
   0.13600000E+01           0.14691517E+00
   0.13700000E+01           0.14010106E+00
   0.13800000E+01           0.13360723E+00
   0.13900000E+01           0.12751552E+00
   0.14000000E+01           0.12127637E+00
   0.14100000E+01           0.11558818E+00
   0.14200000E+01           0.11025873E+00
   0.14300000E+01           0.10473069E+00
   0.14400000E+01           0.99947266E-01
   0.14500000E+01           0.94569312E-01
   0.14600000E+01           0.89922575E-01
   0.14700000E+01           0.85437213E-01
   0.14800000E+01           0.81462787E-01
   0.14900000E+01           0.76849912E-01
   0.15000000E+01           0.72846914E-01
   0.15100000E+01           0.69149383E-01
   0.15200000E+01           0.65676190E-01
   0.15300000E+01           0.62238801E-01
   0.15400000E+01           0.59055203E-01
   0.15500000E+01           0.55748501E-01
   0.15600000E+01           0.52742504E-01
   0.15700000E+01           0.49700000E-01
   0.15800000E+01           0.46988007E-01
   0.15900000E+01           0.44296825E-01
   0.16000000E+01           0.41811993E-01
   0.16100000E+01           0.39602822E-01
   0.16200000E+01           0.37274427E-01
   0.16300000E+01           0.35073898E-01
   0.16400000E+01           0.33166138E-01
   0.16500000E+01           0.31188360E-01
   0.16600000E+01           0.29258907E-01
   0.16700000E+01           0.27673898E-01
   0.16800000E+01           0.25982363E-01
   0.16900000E+01           0.24504586E-01
   0.17000000E+01           0.22926984E-01
   0.17100000E+01           0.21507407E-01
   0.17200000E+01           0.20224515E-01
   0.17300000E+01           0.18969489E-01
   0.17400000E+01           0.17778660E-01
   0.17500000E+01           0.16694533E-01
   0.17600000E+01           0.15634568E-01
   0.17700000E+01           0.14646384E-01
   0.17800000E+01           0.13776014E-01
   0.17900000E+01           0.12812346E-01
   0.18000000E+01           0.12040212E-01
   0.18100000E+01           0.11193474E-01
   0.18200000E+01           0.10428748E-01
   0.18300000E+01           0.97652557E-02
   0.18400000E+01           0.91925926E-02
   0.18500000E+01           0.85513228E-02
   0.18600000E+01           0.79643739E-02
   0.18700000E+01           0.73989418E-02
   0.18800000E+01           0.69707231E-02
   0.18900000E+01           0.64310406E-02
   0.19000000E+01           0.59061728E-02
   0.19100000E+01           0.55543210E-02
   0.19200000E+01           0.51957672E-02
   0.19300000E+01           0.47818342E-02
   0.19400000E+01           0.44887125E-02
   0.19500000E+01           0.41194004E-02
   0.19600000E+01           0.38326279E-02
   0.19700000E+01           0.35705467E-02
   0.19800000E+01           0.33477954E-02
   0.19900000E+01           0.30973545E-02
   0.20000000E+01           0.28232804E-02
   0.20100000E+01           0.26347443E-02
   0.20200000E+01           0.23841270E-02
   0.20300000E+01           0.22296296E-02
   0.20400000E+01           0.20712522E-02
   0.20500000E+01           0.18998236E-02
   0.20600000E+01           0.17698413E-02
   0.20700000E+01           0.16292769E-02
   0.20800000E+01           0.15051146E-02
   0.20900000E+01           0.13843034E-02
   0.21000000E+01           0.12807760E-02
   0.21100000E+01           0.11936508E-02
   0.21200000E+01           0.10620811E-02
   0.21300000E+01           0.99823633E-03
   0.21400000E+01           0.92574956E-03
   0.21500000E+01           0.82716049E-03
   0.21600000E+01           0.80105820E-03
   0.21700000E+01           0.71869489E-03
   0.21800000E+01           0.63721340E-03
   0.21900000E+01           0.60070547E-03
   0.22000000E+01           0.53827160E-03
   0.22100000E+01           0.51305115E-03
   0.22200000E+01           0.44938272E-03
   0.22300000E+01           0.44021164E-03
   0.22400000E+01           0.38818342E-03
   0.22500000E+01           0.35855379E-03
   0.22600000E+01           0.33439153E-03
   0.22700000E+01           0.29206349E-03
   0.22800000E+01           0.26102293E-03
   0.22900000E+01           0.24285714E-03
   0.23000000E+01           0.22239859E-03
   0.23100000E+01           0.20546737E-03
   0.23200000E+01           0.19100529E-03
   0.23300000E+01           0.16895944E-03
   0.23400000E+01           0.15555556E-03
   0.23500000E+01           0.14144621E-03
   0.23600000E+01           0.11975309E-03
   0.23700000E+01           0.11534392E-03
   0.23800000E+01           0.11199295E-03
   0.23900000E+01           0.91005291E-04
   0.24000000E+01           0.82539683E-04
   0.24100000E+01           0.79894180E-04
   0.24200000E+01           0.68077601E-04
   0.24300000E+01           0.64902998E-04
   0.24400000E+01           0.57142857E-04
   0.24500000E+01           0.52204586E-04
   0.24600000E+01           0.46208113E-04
   0.24700000E+01           0.41798942E-04
   0.24800000E+01           0.40211640E-04
   0.24900000E+01           0.32980600E-04
   0.25000000E+01           0.33509700E-04
   0.25100000E+01           0.31216931E-04
   0.25200000E+01           0.28218695E-04
   0.25300000E+01           0.25396825E-04
   0.25400000E+01           0.22927690E-04
   0.25500000E+01           0.18518519E-04
   0.25600000E+01           0.17107584E-04
   0.25700000E+01           0.16049383E-04
   0.25800000E+01           0.15696649E-04
   0.25900000E+01           0.14109347E-04
   0.26000000E+01           0.10934744E-04
   0.26100000E+01           0.11992945E-04
   0.26200000E+01           0.12169312E-04
   0.26300000E+01           0.86419753E-05
   0.26400000E+01           0.91710758E-05
   0.26500000E+01           0.51146384E-05
   0.26600000E+01           0.47619048E-05
   0.26700000E+01           0.61728395E-05
   0.26800000E+01           0.56437390E-05
   0.26900000E+01           0.45855379E-05
   0.27000000E+01           0.31746032E-05
   0.27100000E+01           0.29982363E-05
   0.27200000E+01           0.28218695E-05
   0.27300000E+01           0.24691358E-05
   0.27400000E+01           0.21164021E-05
   0.27500000E+01           0.26455026E-05
   0.27600000E+01           0.17636684E-05
   0.27700000E+01           0.17636684E-05
   0.27800000E+01           0.12345679E-05
   0.27900000E+01           0.88183422E-06
   0.28000000E+01           0.70546737E-06
   0.28100000E+01           0.70546737E-06
   0.28200000E+01           0.70546737E-06
   0.28300000E+01           0.10582011E-05
   0.28400000E+01           0.52910053E-06
   0.28500000E+01           0.52910053E-06
   0.28600000E+01           0.52910053E-06
   0.28700000E+01           0.35273369E-06
   0.28800000E+01           0.17636684E-06
   0.28900000E+01           0.17636684E-06
   0.29000000E+01           0.52910053E-06
   0.29100000E+01           0.17636684E-06
   0.29200000E+01           0.17636684E-06
   0.29300000E+01           0.17636684E-06
   0.29400000E+01           0.52910053E-06
   0.29500000E+01           0.00000000E+00
   0.29600000E+01           0.00000000E+00
   0.29700000E+01           0.00000000E+00
   0.29800000E+01           0.00000000E+00
   0.29900000E+01           0.00000000E+00
   0.30000000E+01           0.00000000E+00
   0.30100000E+01           0.17636684E-06
   0.30200000E+01           0.00000000E+00
   0.30300000E+01           0.00000000E+00
   0.30400000E+01           0.17636684E-06
   0.30500000E+01           0.00000000E+00
   0.30600000E+01           0.00000000E+00
   0.30700000E+01           0.00000000E+00
   0.30800000E+01           0.17636684E-06
   0.30900000E+01           0.00000000E+00
   0.31000000E+01           0.00000000E+00
   0.31100000E+01           0.00000000E+00
   0.31200000E+01           0.00000000E+00
   0.31300000E+01           0.00000000E+00
   0.31400000E+01           0.00000000E+00
   0.31500000E+01           0.00000000E+00
   0.31600000E+01           0.00000000E+00
   0.31700000E+01           0.00000000E+00
   0.31800000E+01           0.17636684E-06
   0.31900000E+01           0.00000000E+00
   0.32000000E+01           0.00000000E+00
   0.32100000E+01           0.00000000E+00
   0.32200000E+01           0.00000000E+00
   0.32300000E+01           0.00000000E+00
   0.32400000E+01           0.00000000E+00
   0.32500000E+01           0.00000000E+00
   0.32600000E+01           0.00000000E+00
   0.32700000E+01           0.00000000E+00
   0.32800000E+01           0.00000000E+00
   0.32900000E+01           0.00000000E+00
   0.33000000E+01           0.00000000E+00
   0.33100000E+01           0.00000000E+00
   0.33200000E+01           0.00000000E+00
   0.33300000E+01           0.00000000E+00
   0.33400000E+01           0.00000000E+00
   0.33500000E+01           0.00000000E+00
   0.33600000E+01           0.00000000E+00
   0.33700000E+01           0.00000000E+00
   0.33800000E+01           0.00000000E+00
   0.33900000E+01           0.00000000E+00
   0.34000000E+01           0.00000000E+00
   0.34100000E+01           0.00000000E+00
   0.34200000E+01           0.00000000E+00
   0.34300000E+01           0.00000000E+00
   0.34400000E+01           0.00000000E+00
   0.34500000E+01           0.00000000E+00
   0.34600000E+01           0.00000000E+00
   0.34700000E+01           0.00000000E+00
   0.34800000E+01           0.00000000E+00
   0.34900000E+01           0.00000000E+00
   0.35000000E+01           0.00000000E+00
   0.35100000E+01           0.00000000E+00
   0.35200000E+01           0.00000000E+00
   0.35300000E+01           0.00000000E+00
   0.35400000E+01           0.00000000E+00
   0.35500000E+01           0.00000000E+00
   0.35600000E+01           0.00000000E+00
   0.35700000E+01           0.00000000E+00
   0.35800000E+01           0.00000000E+00
   0.35900000E+01           0.00000000E+00
   0.36000000E+01           0.00000000E+00
   0.36100000E+01           0.00000000E+00
   0.36200000E+01           0.00000000E+00
   0.36300000E+01           0.00000000E+00
   0.36400000E+01           0.00000000E+00
   0.36500000E+01           0.00000000E+00
   0.36600000E+01           0.00000000E+00
   0.36700000E+01           0.00000000E+00
   0.36800000E+01           0.00000000E+00
   0.36900000E+01           0.00000000E+00
   0.37000000E+01           0.00000000E+00
   0.37100000E+01           0.00000000E+00
   0.37200000E+01           0.00000000E+00
   0.37300000E+01           0.00000000E+00
   0.37400000E+01           0.00000000E+00
   0.37500000E+01           0.00000000E+00
   0.37600000E+01           0.00000000E+00
   0.37700000E+01           0.00000000E+00
   0.37800000E+01           0.00000000E+00
   0.37900000E+01           0.00000000E+00
   0.38000000E+01           0.00000000E+00
   0.38100000E+01           0.00000000E+00
   0.38200000E+01           0.00000000E+00
   0.38300000E+01           0.00000000E+00
   0.38400000E+01           0.00000000E+00
   0.38500000E+01           0.00000000E+00
   0.38600000E+01           0.00000000E+00
   0.38700000E+01           0.00000000E+00
   0.38800000E+01           0.00000000E+00
   0.38900000E+01           0.00000000E+00
   0.39000000E+01           0.00000000E+00
   0.39100000E+01           0.00000000E+00
   0.39200000E+01           0.00000000E+00
   0.39300000E+01           0.00000000E+00
   0.39400000E+01           0.00000000E+00
   0.39500000E+01           0.00000000E+00
   0.39600000E+01           0.00000000E+00
   0.39700000E+01           0.00000000E+00
   0.39800000E+01           0.00000000E+00
   0.39900000E+01           0.00000000E+00
   0.40000000E+01           0.00000000E+00
 #T=    21.0000
  -0.40000000E+01           0.00000000E+00
  -0.39900000E+01           0.00000000E+00
  -0.39800000E+01           0.00000000E+00
  -0.39700000E+01           0.00000000E+00
  -0.39600000E+01           0.00000000E+00
  -0.39500000E+01           0.00000000E+00
  -0.39400000E+01           0.00000000E+00
  -0.39300000E+01           0.00000000E+00
  -0.39200000E+01           0.00000000E+00
  -0.39100000E+01           0.00000000E+00
  -0.39000000E+01           0.00000000E+00
  -0.38900000E+01           0.00000000E+00
  -0.38800000E+01           0.00000000E+00
  -0.38700000E+01           0.00000000E+00
  -0.38600000E+01           0.00000000E+00
  -0.38500000E+01           0.00000000E+00
  -0.38400000E+01           0.00000000E+00
  -0.38300000E+01           0.00000000E+00
  -0.38200000E+01           0.00000000E+00
  -0.38100000E+01           0.00000000E+00
  -0.38000000E+01           0.00000000E+00
  -0.37900000E+01           0.00000000E+00
  -0.37800000E+01           0.00000000E+00
  -0.37700000E+01           0.00000000E+00
  -0.37600000E+01           0.00000000E+00
  -0.37500000E+01           0.00000000E+00
  -0.37400000E+01           0.00000000E+00
  -0.37300000E+01           0.00000000E+00
  -0.37200000E+01           0.00000000E+00
  -0.37100000E+01           0.00000000E+00
  -0.37000000E+01           0.00000000E+00
  -0.36900000E+01           0.00000000E+00
  -0.36800000E+01           0.00000000E+00
  -0.36700000E+01           0.00000000E+00
  -0.36600000E+01           0.00000000E+00
  -0.36500000E+01           0.00000000E+00
  -0.36400000E+01           0.00000000E+00
  -0.36300000E+01           0.00000000E+00
  -0.36200000E+01           0.00000000E+00
  -0.36100000E+01           0.00000000E+00
  -0.36000000E+01           0.00000000E+00
  -0.35900000E+01           0.00000000E+00
  -0.35800000E+01           0.00000000E+00
  -0.35700000E+01           0.00000000E+00
  -0.35600000E+01           0.00000000E+00
  -0.35500000E+01           0.00000000E+00
  -0.35400000E+01           0.00000000E+00
  -0.35300000E+01           0.00000000E+00
  -0.35200000E+01           0.00000000E+00
  -0.35100000E+01           0.00000000E+00
  -0.35000000E+01           0.00000000E+00
  -0.34900000E+01           0.00000000E+00
  -0.34800000E+01           0.00000000E+00
  -0.34700000E+01           0.00000000E+00
  -0.34600000E+01           0.00000000E+00
  -0.34500000E+01           0.00000000E+00
  -0.34400000E+01           0.00000000E+00
  -0.34300000E+01           0.00000000E+00
  -0.34200000E+01           0.00000000E+00
  -0.34100000E+01           0.00000000E+00
  -0.34000000E+01           0.00000000E+00
  -0.33900000E+01           0.00000000E+00
  -0.33800000E+01           0.00000000E+00
  -0.33700000E+01           0.00000000E+00
  -0.33600000E+01           0.00000000E+00
  -0.33500000E+01           0.00000000E+00
  -0.33400000E+01           0.00000000E+00
  -0.33300000E+01           0.00000000E+00
  -0.33200000E+01           0.00000000E+00
  -0.33100000E+01           0.00000000E+00
  -0.33000000E+01           0.00000000E+00
  -0.32900000E+01           0.00000000E+00
  -0.32800000E+01           0.00000000E+00
  -0.32700000E+01           0.00000000E+00
  -0.32600000E+01           0.00000000E+00
  -0.32500000E+01           0.00000000E+00
  -0.32400000E+01           0.00000000E+00
  -0.32300000E+01           0.00000000E+00
  -0.32200000E+01           0.00000000E+00
  -0.32100000E+01           0.00000000E+00
  -0.32000000E+01           0.00000000E+00
  -0.31900000E+01           0.00000000E+00
  -0.31800000E+01           0.00000000E+00
  -0.31700000E+01           0.00000000E+00
  -0.31600000E+01           0.00000000E+00
  -0.31500000E+01           0.00000000E+00
  -0.31400000E+01           0.00000000E+00
  -0.31300000E+01           0.00000000E+00
  -0.31200000E+01           0.00000000E+00
  -0.31100000E+01           0.00000000E+00
  -0.31000000E+01           0.00000000E+00
  -0.30900000E+01           0.00000000E+00
  -0.30800000E+01           0.00000000E+00
  -0.30700000E+01           0.00000000E+00
  -0.30600000E+01           0.00000000E+00
  -0.30500000E+01           0.00000000E+00
  -0.30400000E+01           0.00000000E+00
  -0.30300000E+01           0.00000000E+00
  -0.30200000E+01           0.00000000E+00
  -0.30100000E+01           0.00000000E+00
  -0.30000000E+01           0.00000000E+00
  -0.29900000E+01           0.00000000E+00
  -0.29800000E+01           0.00000000E+00
  -0.29700000E+01           0.00000000E+00
  -0.29600000E+01           0.00000000E+00
  -0.29500000E+01           0.00000000E+00
  -0.29400000E+01           0.00000000E+00
  -0.29300000E+01           0.00000000E+00
  -0.29200000E+01           0.00000000E+00
  -0.29100000E+01           0.00000000E+00
  -0.29000000E+01           0.00000000E+00
  -0.28900000E+01           0.00000000E+00
  -0.28800000E+01           0.00000000E+00
  -0.28700000E+01           0.00000000E+00
  -0.28600000E+01           0.00000000E+00
  -0.28500000E+01           0.00000000E+00
  -0.28400000E+01           0.00000000E+00
  -0.28300000E+01           0.00000000E+00
  -0.28200000E+01           0.00000000E+00
  -0.28100000E+01           0.00000000E+00
  -0.28000000E+01           0.00000000E+00
  -0.27900000E+01           0.00000000E+00
  -0.27800000E+01           0.00000000E+00
  -0.27700000E+01           0.00000000E+00
  -0.27600000E+01           0.00000000E+00
  -0.27500000E+01           0.00000000E+00
  -0.27400000E+01           0.00000000E+00
  -0.27300000E+01           0.00000000E+00
  -0.27200000E+01           0.00000000E+00
  -0.27100000E+01           0.00000000E+00
  -0.27000000E+01           0.00000000E+00
  -0.26900000E+01           0.00000000E+00
  -0.26800000E+01           0.00000000E+00
  -0.26700000E+01           0.00000000E+00
  -0.26600000E+01           0.00000000E+00
  -0.26500000E+01           0.00000000E+00
  -0.26400000E+01           0.00000000E+00
  -0.26300000E+01           0.00000000E+00
  -0.26200000E+01           0.00000000E+00
  -0.26100000E+01           0.00000000E+00
  -0.26000000E+01           0.00000000E+00
  -0.25900000E+01           0.00000000E+00
  -0.25800000E+01           0.00000000E+00
  -0.25700000E+01           0.00000000E+00
  -0.25600000E+01           0.00000000E+00
  -0.25500000E+01           0.00000000E+00
  -0.25400000E+01           0.00000000E+00
  -0.25300000E+01           0.00000000E+00
  -0.25200000E+01           0.00000000E+00
  -0.25100000E+01           0.00000000E+00
  -0.25000000E+01           0.00000000E+00
  -0.24900000E+01           0.00000000E+00
  -0.24800000E+01           0.00000000E+00
  -0.24700000E+01           0.00000000E+00
  -0.24600000E+01           0.00000000E+00
  -0.24500000E+01           0.00000000E+00
  -0.24400000E+01           0.00000000E+00
  -0.24300000E+01           0.00000000E+00
  -0.24200000E+01           0.00000000E+00
  -0.24100000E+01           0.00000000E+00
  -0.24000000E+01           0.00000000E+00
  -0.23900000E+01           0.00000000E+00
  -0.23800000E+01           0.00000000E+00
  -0.23700000E+01           0.00000000E+00
  -0.23600000E+01           0.00000000E+00
  -0.23500000E+01           0.00000000E+00
  -0.23400000E+01           0.00000000E+00
  -0.23300000E+01           0.00000000E+00
  -0.23200000E+01           0.00000000E+00
  -0.23100000E+01           0.00000000E+00
  -0.23000000E+01           0.00000000E+00
  -0.22900000E+01           0.00000000E+00
  -0.22800000E+01           0.00000000E+00
  -0.22700000E+01           0.00000000E+00
  -0.22600000E+01           0.00000000E+00
  -0.22500000E+01           0.00000000E+00
  -0.22400000E+01           0.00000000E+00
  -0.22300000E+01           0.00000000E+00
  -0.22200000E+01           0.00000000E+00
  -0.22100000E+01           0.00000000E+00
  -0.22000000E+01           0.00000000E+00
  -0.21900000E+01           0.00000000E+00
  -0.21800000E+01           0.00000000E+00
  -0.21700000E+01           0.00000000E+00
  -0.21600000E+01           0.00000000E+00
  -0.21500000E+01           0.00000000E+00
  -0.21400000E+01           0.00000000E+00
  -0.21300000E+01           0.00000000E+00
  -0.21200000E+01           0.00000000E+00
  -0.21100000E+01           0.00000000E+00
  -0.21000000E+01           0.00000000E+00
  -0.20900000E+01           0.00000000E+00
  -0.20800000E+01           0.00000000E+00
  -0.20700000E+01           0.00000000E+00
  -0.20600000E+01           0.00000000E+00
  -0.20500000E+01           0.00000000E+00
  -0.20400000E+01           0.00000000E+00
  -0.20300000E+01           0.00000000E+00
  -0.20200000E+01           0.00000000E+00
  -0.20100000E+01           0.00000000E+00
  -0.20000000E+01           0.00000000E+00
  -0.19900000E+01           0.00000000E+00
  -0.19800000E+01           0.00000000E+00
  -0.19700000E+01           0.00000000E+00
  -0.19600000E+01           0.00000000E+00
  -0.19500000E+01           0.00000000E+00
  -0.19400000E+01           0.00000000E+00
  -0.19300000E+01           0.00000000E+00
  -0.19200000E+01           0.00000000E+00
  -0.19100000E+01           0.00000000E+00
  -0.19000000E+01           0.00000000E+00
  -0.18900000E+01           0.00000000E+00
  -0.18800000E+01           0.00000000E+00
  -0.18700000E+01           0.00000000E+00
  -0.18600000E+01           0.00000000E+00
  -0.18500000E+01           0.00000000E+00
  -0.18400000E+01           0.00000000E+00
  -0.18300000E+01           0.00000000E+00
  -0.18200000E+01           0.00000000E+00
  -0.18100000E+01           0.00000000E+00
  -0.18000000E+01           0.00000000E+00
  -0.17900000E+01           0.00000000E+00
  -0.17800000E+01           0.00000000E+00
  -0.17700000E+01           0.00000000E+00
  -0.17600000E+01           0.00000000E+00
  -0.17500000E+01           0.00000000E+00
  -0.17400000E+01           0.00000000E+00
  -0.17300000E+01           0.00000000E+00
  -0.17200000E+01           0.00000000E+00
  -0.17100000E+01           0.00000000E+00
  -0.17000000E+01           0.00000000E+00
  -0.16900000E+01           0.00000000E+00
  -0.16800000E+01           0.00000000E+00
  -0.16700000E+01           0.00000000E+00
  -0.16600000E+01           0.00000000E+00
  -0.16500000E+01           0.00000000E+00
  -0.16400000E+01           0.00000000E+00
  -0.16300000E+01           0.00000000E+00
  -0.16200000E+01           0.00000000E+00
  -0.16100000E+01           0.00000000E+00
  -0.16000000E+01           0.00000000E+00
  -0.15900000E+01           0.00000000E+00
  -0.15800000E+01           0.00000000E+00
  -0.15700000E+01           0.00000000E+00
  -0.15600000E+01           0.00000000E+00
  -0.15500000E+01           0.00000000E+00
  -0.15400000E+01           0.00000000E+00
  -0.15300000E+01           0.00000000E+00
  -0.15200000E+01           0.00000000E+00
  -0.15100000E+01           0.00000000E+00
  -0.15000000E+01           0.00000000E+00
  -0.14900000E+01           0.00000000E+00
  -0.14800000E+01           0.00000000E+00
  -0.14700000E+01           0.00000000E+00
  -0.14600000E+01           0.00000000E+00
  -0.14500000E+01           0.00000000E+00
  -0.14400000E+01           0.00000000E+00
  -0.14300000E+01           0.00000000E+00
  -0.14200000E+01           0.00000000E+00
  -0.14100000E+01           0.00000000E+00
  -0.14000000E+01           0.00000000E+00
  -0.13900000E+01           0.00000000E+00
  -0.13800000E+01           0.00000000E+00
  -0.13700000E+01           0.00000000E+00
  -0.13600000E+01           0.00000000E+00
  -0.13500000E+01           0.00000000E+00
  -0.13400000E+01           0.00000000E+00
  -0.13300000E+01           0.00000000E+00
  -0.13200000E+01           0.00000000E+00
  -0.13100000E+01           0.00000000E+00
  -0.13000000E+01           0.00000000E+00
  -0.12900000E+01           0.00000000E+00
  -0.12800000E+01           0.00000000E+00
  -0.12700000E+01           0.00000000E+00
  -0.12600000E+01           0.00000000E+00
  -0.12500000E+01           0.00000000E+00
  -0.12400000E+01           0.00000000E+00
  -0.12300000E+01           0.00000000E+00
  -0.12200000E+01           0.00000000E+00
  -0.12100000E+01           0.00000000E+00
  -0.12000000E+01           0.00000000E+00
  -0.11900000E+01           0.00000000E+00
  -0.11800000E+01           0.00000000E+00
  -0.11700000E+01           0.00000000E+00
  -0.11600000E+01           0.00000000E+00
  -0.11500000E+01           0.00000000E+00
  -0.11400000E+01           0.00000000E+00
  -0.11300000E+01           0.00000000E+00
  -0.11200000E+01           0.00000000E+00
  -0.11100000E+01           0.00000000E+00
  -0.11000000E+01           0.00000000E+00
  -0.10900000E+01           0.00000000E+00
  -0.10800000E+01           0.00000000E+00
  -0.10700000E+01           0.00000000E+00
  -0.10600000E+01           0.00000000E+00
  -0.10500000E+01           0.00000000E+00
  -0.10400000E+01           0.00000000E+00
  -0.10300000E+01           0.00000000E+00
  -0.10200000E+01           0.00000000E+00
  -0.10100000E+01           0.00000000E+00
  -0.10000000E+01           0.00000000E+00
  -0.99000000E+00           0.00000000E+00
  -0.98000000E+00           0.00000000E+00
  -0.97000000E+00           0.00000000E+00
  -0.96000000E+00           0.00000000E+00
  -0.95000000E+00           0.00000000E+00
  -0.94000000E+00           0.00000000E+00
  -0.93000000E+00           0.00000000E+00
  -0.92000000E+00           0.00000000E+00
  -0.91000000E+00           0.00000000E+00
  -0.90000000E+00           0.00000000E+00
  -0.89000000E+00           0.00000000E+00
  -0.88000000E+00           0.00000000E+00
  -0.87000000E+00           0.00000000E+00
  -0.86000000E+00           0.00000000E+00
  -0.85000000E+00           0.00000000E+00
  -0.84000000E+00           0.00000000E+00
  -0.83000000E+00           0.00000000E+00
  -0.82000000E+00           0.00000000E+00
  -0.81000000E+00           0.00000000E+00
  -0.80000000E+00           0.00000000E+00
  -0.79000000E+00           0.00000000E+00
  -0.78000000E+00           0.00000000E+00
  -0.77000000E+00           0.00000000E+00
  -0.76000000E+00           0.00000000E+00
  -0.75000000E+00           0.00000000E+00
  -0.74000000E+00           0.00000000E+00
  -0.73000000E+00           0.00000000E+00
  -0.72000000E+00           0.00000000E+00
  -0.71000000E+00           0.00000000E+00
  -0.70000000E+00           0.00000000E+00
  -0.69000000E+00           0.00000000E+00
  -0.68000000E+00           0.00000000E+00
  -0.67000000E+00           0.00000000E+00
  -0.66000000E+00           0.00000000E+00
  -0.65000000E+00           0.00000000E+00
  -0.64000000E+00           0.00000000E+00
  -0.63000000E+00           0.00000000E+00
  -0.62000000E+00           0.00000000E+00
  -0.61000000E+00           0.00000000E+00
  -0.60000000E+00           0.00000000E+00
  -0.59000000E+00           0.00000000E+00
  -0.58000000E+00           0.00000000E+00
  -0.57000000E+00           0.00000000E+00
  -0.56000000E+00           0.00000000E+00
  -0.55000000E+00           0.00000000E+00
  -0.54000000E+00           0.00000000E+00
  -0.53000000E+00           0.00000000E+00
  -0.52000000E+00           0.00000000E+00
  -0.51000000E+00           0.00000000E+00
  -0.50000000E+00           0.00000000E+00
  -0.49000000E+00           0.00000000E+00
  -0.48000000E+00           0.00000000E+00
  -0.47000000E+00           0.00000000E+00
  -0.46000000E+00           0.00000000E+00
  -0.45000000E+00           0.00000000E+00
  -0.44000000E+00           0.00000000E+00
  -0.43000000E+00           0.00000000E+00
  -0.42000000E+00           0.00000000E+00
  -0.41000000E+00           0.00000000E+00
  -0.40000000E+00           0.00000000E+00
  -0.39000000E+00           0.00000000E+00
  -0.38000000E+00           0.00000000E+00
  -0.37000000E+00           0.00000000E+00
  -0.36000000E+00           0.00000000E+00
  -0.35000000E+00           0.00000000E+00
  -0.34000000E+00           0.00000000E+00
  -0.33000000E+00           0.00000000E+00
  -0.32000000E+00           0.00000000E+00
  -0.31000000E+00           0.00000000E+00
  -0.30000000E+00           0.00000000E+00
  -0.29000000E+00           0.00000000E+00
  -0.28000000E+00           0.00000000E+00
  -0.27000000E+00           0.00000000E+00
  -0.26000000E+00           0.00000000E+00
  -0.25000000E+00           0.00000000E+00
  -0.24000000E+00           0.00000000E+00
  -0.23000000E+00           0.00000000E+00
  -0.22000000E+00           0.00000000E+00
  -0.21000000E+00           0.00000000E+00
  -0.20000000E+00           0.00000000E+00
  -0.19000000E+00           0.00000000E+00
  -0.18000000E+00           0.00000000E+00
  -0.17000000E+00           0.00000000E+00
  -0.16000000E+00           0.00000000E+00
  -0.15000000E+00           0.00000000E+00
  -0.14000000E+00           0.00000000E+00
  -0.13000000E+00           0.00000000E+00
  -0.12000000E+00           0.00000000E+00
  -0.11000000E+00           0.00000000E+00
  -0.10000000E+00           0.00000000E+00
  -0.90000000E-01           0.00000000E+00
  -0.80000000E-01           0.00000000E+00
  -0.70000000E-01           0.00000000E+00
  -0.60000000E-01           0.00000000E+00
  -0.50000000E-01           0.00000000E+00
  -0.40000000E-01           0.00000000E+00
  -0.30000000E-01           0.00000000E+00
  -0.20000000E-01           0.00000000E+00
  -0.10000000E-01           0.00000000E+00
   0.00000000E+00           0.16613757E-03
   0.10000000E-01           0.38887125E-02
   0.20000000E-01           0.13974603E-01
   0.30000000E-01           0.29703175E-01
   0.40000000E-01           0.50174603E-01
   0.50000000E-01           0.74268430E-01
   0.60000000E-01           0.10171287E+00
   0.70000000E-01           0.13197072E+00
   0.80000000E-01           0.16429048E+00
   0.90000000E-01           0.19839118E+00
   0.10000000E+00           0.23457019E+00
   0.11000000E+00           0.27047690E+00
   0.12000000E+00           0.30779330E+00
   0.13000000E+00           0.34589189E+00
   0.14000000E+00           0.38383474E+00
   0.15000000E+00           0.42080723E+00
   0.16000000E+00           0.45893739E+00
   0.17000000E+00           0.49617760E+00
   0.18000000E+00           0.53431164E+00
   0.19000000E+00           0.57057160E+00
   0.20000000E+00           0.60611693E+00
   0.21000000E+00           0.64132787E+00
   0.22000000E+00           0.67573192E+00
   0.23000000E+00           0.70987690E+00
   0.24000000E+00           0.74354868E+00
   0.25000000E+00           0.77358483E+00
   0.26000000E+00           0.80485908E+00
   0.27000000E+00           0.83432134E+00
   0.28000000E+00           0.86268818E+00
   0.29000000E+00           0.89083898E+00
   0.30000000E+00           0.91651058E+00
   0.31000000E+00           0.94195785E+00
   0.32000000E+00           0.96546543E+00
   0.33000000E+00           0.98873333E+00
   0.34000000E+00           0.10104829E+01
   0.35000000E+00           0.10310935E+01
   0.36000000E+00           0.10506778E+01
   0.37000000E+00           0.10686910E+01
   0.38000000E+00           0.10851210E+01
   0.39000000E+00           0.11023272E+01
   0.40000000E+00           0.11154272E+01
   0.41000000E+00           0.11293827E+01
   0.42000000E+00           0.11420199E+01
   0.43000000E+00           0.11536873E+01
   0.44000000E+00           0.11626257E+01
   0.45000000E+00           0.11704982E+01
   0.46000000E+00           0.11801058E+01
   0.47000000E+00           0.11856153E+01
   0.48000000E+00           0.11916150E+01
   0.49000000E+00           0.11966293E+01
   0.50000000E+00           0.12006427E+01
   0.51000000E+00           0.12027931E+01
   0.52000000E+00           0.12034875E+01
   0.53000000E+00           0.12062356E+01
   0.54000000E+00           0.12047741E+01
   0.55000000E+00           0.12025922E+01
   0.56000000E+00           0.12016743E+01
   0.57000000E+00           0.11985862E+01
   0.58000000E+00           0.11938219E+01
   0.59000000E+00           0.11892111E+01
   0.60000000E+00           0.11841088E+01
   0.61000000E+00           0.11769016E+01
   0.62000000E+00           0.11702705E+01
   0.63000000E+00           0.11623635E+01
   0.64000000E+00           0.11537169E+01
   0.65000000E+00           0.11443076E+01
   0.66000000E+00           0.11347981E+01
   0.67000000E+00           0.11235845E+01
   0.68000000E+00           0.11133697E+01
   0.69000000E+00           0.11017268E+01
   0.70000000E+00           0.10899841E+01
   0.71000000E+00           0.10763811E+01
   0.72000000E+00           0.10632998E+01
   0.73000000E+00           0.10504855E+01
   0.74000000E+00           0.10358547E+01
   0.75000000E+00           0.10211307E+01
   0.76000000E+00           0.10076619E+01
   0.77000000E+00           0.99133686E+00
   0.78000000E+00           0.97599982E+00
   0.79000000E+00           0.96044268E+00
   0.80000000E+00           0.94492751E+00
   0.81000000E+00           0.92837037E+00
   0.82000000E+00           0.91216684E+00
   0.83000000E+00           0.89508413E+00
   0.84000000E+00           0.87794092E+00
   0.85000000E+00           0.86097460E+00
   0.86000000E+00           0.84496878E+00
   0.87000000E+00           0.82773386E+00
   0.88000000E+00           0.81028660E+00
   0.89000000E+00           0.79243845E+00
   0.90000000E+00           0.77611587E+00
   0.91000000E+00           0.75805203E+00
   0.92000000E+00           0.74146790E+00
   0.93000000E+00           0.72390882E+00
   0.94000000E+00           0.70716173E+00
   0.95000000E+00           0.68918131E+00
   0.96000000E+00           0.67314092E+00
   0.97000000E+00           0.65573086E+00
   0.98000000E+00           0.63886332E+00
   0.99000000E+00           0.62106561E+00
   0.10000000E+01           0.60569418E+00
   0.10100000E+01           0.58889153E+00
   0.10200000E+01           0.57314815E+00
   0.10300000E+01           0.55695679E+00
   0.10400000E+01           0.54082804E+00
   0.10500000E+01           0.52530547E+00
   0.10600000E+01           0.50964392E+00
   0.10700000E+01           0.49484056E+00
   0.10800000E+01           0.47979541E+00
   0.10900000E+01           0.46494709E+00
   0.11000000E+01           0.45002822E+00
   0.11100000E+01           0.43558060E+00
   0.11200000E+01           0.42269083E+00
   0.11300000E+01           0.40848483E+00
   0.11400000E+01           0.39484727E+00
   0.11500000E+01           0.38131146E+00
   0.11600000E+01           0.36867601E+00
   0.11700000E+01           0.35594356E+00
   0.11800000E+01           0.34353404E+00
   0.11900000E+01           0.33220370E+00
   0.12000000E+01           0.31954162E+00
   0.12100000E+01           0.30801076E+00
   0.12200000E+01           0.29713845E+00
   0.12300000E+01           0.28564586E+00
   0.12400000E+01           0.27501446E+00
   0.12500000E+01           0.26486878E+00
   0.12600000E+01           0.25460582E+00
   0.12700000E+01           0.24425750E+00
   0.12800000E+01           0.23465732E+00
   0.12900000E+01           0.22565926E+00
   0.13000000E+01           0.21676402E+00
   0.13100000E+01           0.20823228E+00
   0.13200000E+01           0.19953968E+00
   0.13300000E+01           0.19095820E+00
   0.13400000E+01           0.18322099E+00
   0.13500000E+01           0.17540776E+00
   0.13600000E+01           0.16794956E+00
   0.13700000E+01           0.16070071E+00
   0.13800000E+01           0.15400335E+00
   0.13900000E+01           0.14675556E+00
   0.14000000E+01           0.13993228E+00
   0.14100000E+01           0.13394444E+00
   0.14200000E+01           0.12825309E+00
   0.14300000E+01           0.12213228E+00
   0.14400000E+01           0.11662046E+00
   0.14500000E+01           0.11110688E+00
   0.14600000E+01           0.10579277E+00
   0.14700000E+01           0.10082945E+00
   0.14800000E+01           0.96012522E-01
   0.14900000E+01           0.91464550E-01
   0.15000000E+01           0.86684303E-01
   0.15100000E+01           0.82663316E-01
   0.15200000E+01           0.78541270E-01
   0.15300000E+01           0.74792416E-01
   0.15400000E+01           0.70900882E-01
   0.15500000E+01           0.67366843E-01
   0.15600000E+01           0.63662963E-01
   0.15700000E+01           0.60683422E-01
   0.15800000E+01           0.57448677E-01
   0.15900000E+01           0.54416049E-01
   0.16000000E+01           0.51598589E-01
   0.16100000E+01           0.48909877E-01
   0.16200000E+01           0.46171781E-01
   0.16300000E+01           0.43640917E-01
   0.16400000E+01           0.41323280E-01
   0.16500000E+01           0.38910758E-01
   0.16600000E+01           0.36863492E-01
   0.16700000E+01           0.34705644E-01
   0.16800000E+01           0.32882892E-01
   0.16900000E+01           0.31014991E-01
   0.17000000E+01           0.29186596E-01
   0.17100000E+01           0.27454321E-01
   0.17200000E+01           0.25888007E-01
   0.17300000E+01           0.24398765E-01
   0.17400000E+01           0.22851146E-01
   0.17500000E+01           0.21591182E-01
   0.17600000E+01           0.20248854E-01
   0.17700000E+01           0.19135273E-01
   0.17800000E+01           0.17858730E-01
   0.17900000E+01           0.16901058E-01
   0.18000000E+01           0.15749383E-01
   0.18100000E+01           0.14787654E-01
   0.18200000E+01           0.13936861E-01
   0.18300000E+01           0.13019929E-01
   0.18400000E+01           0.12222222E-01
   0.18500000E+01           0.11391358E-01
   0.18600000E+01           0.10761376E-01
   0.18700000E+01           0.99941799E-02
   0.18800000E+01           0.92821869E-02
   0.18900000E+01           0.87537919E-02
   0.19000000E+01           0.81366843E-02
   0.19100000E+01           0.75982363E-02
   0.19200000E+01           0.71303351E-02
   0.19300000E+01           0.66656085E-02
   0.19400000E+01           0.61783069E-02
   0.19500000E+01           0.57793651E-02
   0.19600000E+01           0.53839506E-02
   0.19700000E+01           0.50121693E-02
   0.19800000E+01           0.46700176E-02
   0.19900000E+01           0.43218695E-02
   0.20000000E+01           0.40437390E-02
   0.20100000E+01           0.37596120E-02
   0.20200000E+01           0.34825397E-02
   0.20300000E+01           0.32433862E-02
   0.20400000E+01           0.30389771E-02
   0.20500000E+01           0.27996473E-02
   0.20600000E+01           0.26197531E-02
   0.20700000E+01           0.23964727E-02
   0.20800000E+01           0.22541446E-02
   0.20900000E+01           0.20513228E-02
   0.21000000E+01           0.19232804E-02
   0.21100000E+01           0.17714286E-02
   0.21200000E+01           0.16082892E-02
   0.21300000E+01           0.15201058E-02
   0.21400000E+01           0.13587302E-02
   0.21500000E+01           0.12911817E-02
   0.21600000E+01           0.11772487E-02
   0.21700000E+01           0.10996473E-02
   0.21800000E+01           0.98853616E-03
   0.21900000E+01           0.93350970E-03
   0.22000000E+01           0.84726631E-03
   0.22100000E+01           0.78659612E-03
   0.22200000E+01           0.74514991E-03
   0.22300000E+01           0.67707231E-03
   0.22400000E+01           0.60828924E-03
   0.22500000E+01           0.56261023E-03
   0.22600000E+01           0.50828924E-03
   0.22700000E+01           0.48465608E-03
   0.22800000E+01           0.43015873E-03
   0.22900000E+01           0.39629630E-03
   0.23000000E+01           0.35820106E-03
   0.23100000E+01           0.33668430E-03
   0.23200000E+01           0.30035273E-03
   0.23300000E+01           0.27654321E-03
   0.23400000E+01           0.25961199E-03
   0.23500000E+01           0.24691358E-03
   0.23600000E+01           0.21322751E-03
   0.23700000E+01           0.19259259E-03
   0.23800000E+01           0.18800705E-03
   0.23900000E+01           0.17160494E-03
   0.24000000E+01           0.14603175E-03
   0.24100000E+01           0.13139330E-03
   0.24200000E+01           0.11657848E-03
   0.24300000E+01           0.11834215E-03
   0.24400000E+01           0.10264550E-03
   0.24500000E+01           0.93650794E-04
   0.24600000E+01           0.88888889E-04
   0.24700000E+01           0.75837743E-04
   0.24800000E+01           0.71604938E-04
   0.24900000E+01           0.64197531E-04
   0.25000000E+01           0.60670194E-04
   0.25100000E+01           0.51499118E-04
   0.25200000E+01           0.46913580E-04
   0.25300000E+01           0.41446208E-04
   0.25400000E+01           0.41622575E-04
   0.25500000E+01           0.33509700E-04
   0.25600000E+01           0.34567901E-04
   0.25700000E+01           0.22574956E-04
   0.25800000E+01           0.28571429E-04
   0.25900000E+01           0.23280423E-04
   0.26000000E+01           0.21516755E-04
   0.26100000E+01           0.19223986E-04
   0.26200000E+01           0.15520282E-04
   0.26300000E+01           0.17989418E-04
   0.26400000E+01           0.12874780E-04
   0.26500000E+01           0.16049383E-04
   0.26600000E+01           0.11111111E-04
   0.26700000E+01           0.10052910E-04
   0.26800000E+01           0.98765432E-05
   0.26900000E+01           0.88183422E-05
   0.27000000E+01           0.75837743E-05
   0.27100000E+01           0.67019400E-05
   0.27200000E+01           0.56437390E-05
   0.27300000E+01           0.52910053E-05
   0.27400000E+01           0.42328042E-05
   0.27500000E+01           0.33509700E-05
   0.27600000E+01           0.45855379E-05
   0.27700000E+01           0.33509700E-05
   0.27800000E+01           0.31746032E-05
   0.27900000E+01           0.35273369E-05
   0.28000000E+01           0.19400353E-05
   0.28100000E+01           0.24691358E-05
   0.28200000E+01           0.17636684E-05
   0.28300000E+01           0.19400353E-05
   0.28400000E+01           0.17636684E-05
   0.28500000E+01           0.10582011E-05
   0.28600000E+01           0.15873016E-05
   0.28700000E+01           0.88183422E-06
   0.28800000E+01           0.70546737E-06
   0.28900000E+01           0.88183422E-06
   0.29000000E+01           0.52910053E-06
   0.29100000E+01           0.52910053E-06
   0.29200000E+01           0.17636684E-06
   0.29300000E+01           0.70546737E-06
   0.29400000E+01           0.17636684E-06
   0.29500000E+01           0.52910053E-06
   0.29600000E+01           0.17636684E-06
   0.29700000E+01           0.52910053E-06
   0.29800000E+01           0.00000000E+00
   0.29900000E+01           0.17636684E-06
   0.30000000E+01           0.17636684E-06
   0.30100000E+01           0.52910053E-06
   0.30200000E+01           0.00000000E+00
   0.30300000E+01           0.17636684E-06
   0.30400000E+01           0.00000000E+00
   0.30500000E+01           0.00000000E+00
   0.30600000E+01           0.00000000E+00
   0.30700000E+01           0.00000000E+00
   0.30800000E+01           0.00000000E+00
   0.30900000E+01           0.00000000E+00
   0.31000000E+01           0.00000000E+00
   0.31100000E+01           0.17636684E-06
   0.31200000E+01           0.35273369E-06
   0.31300000E+01           0.00000000E+00
   0.31400000E+01           0.00000000E+00
   0.31500000E+01           0.17636684E-06
   0.31600000E+01           0.00000000E+00
   0.31700000E+01           0.17636684E-06
   0.31800000E+01           0.00000000E+00
   0.31900000E+01           0.00000000E+00
   0.32000000E+01           0.00000000E+00
   0.32100000E+01           0.00000000E+00
   0.32200000E+01           0.00000000E+00
   0.32300000E+01           0.00000000E+00
   0.32400000E+01           0.00000000E+00
   0.32500000E+01           0.00000000E+00
   0.32600000E+01           0.00000000E+00
   0.32700000E+01           0.17636684E-06
   0.32800000E+01           0.00000000E+00
   0.32900000E+01           0.00000000E+00
   0.33000000E+01           0.00000000E+00
   0.33100000E+01           0.00000000E+00
   0.33200000E+01           0.00000000E+00
   0.33300000E+01           0.00000000E+00
   0.33400000E+01           0.00000000E+00
   0.33500000E+01           0.00000000E+00
   0.33600000E+01           0.00000000E+00
   0.33700000E+01           0.00000000E+00
   0.33800000E+01           0.00000000E+00
   0.33900000E+01           0.00000000E+00
   0.34000000E+01           0.00000000E+00
   0.34100000E+01           0.00000000E+00
   0.34200000E+01           0.00000000E+00
   0.34300000E+01           0.00000000E+00
   0.34400000E+01           0.00000000E+00
   0.34500000E+01           0.00000000E+00
   0.34600000E+01           0.00000000E+00
   0.34700000E+01           0.00000000E+00
   0.34800000E+01           0.00000000E+00
   0.34900000E+01           0.00000000E+00
   0.35000000E+01           0.00000000E+00
   0.35100000E+01           0.00000000E+00
   0.35200000E+01           0.00000000E+00
   0.35300000E+01           0.00000000E+00
   0.35400000E+01           0.00000000E+00
   0.35500000E+01           0.00000000E+00
   0.35600000E+01           0.00000000E+00
   0.35700000E+01           0.00000000E+00
   0.35800000E+01           0.00000000E+00
   0.35900000E+01           0.00000000E+00
   0.36000000E+01           0.00000000E+00
   0.36100000E+01           0.00000000E+00
   0.36200000E+01           0.00000000E+00
   0.36300000E+01           0.00000000E+00
   0.36400000E+01           0.00000000E+00
   0.36500000E+01           0.00000000E+00
   0.36600000E+01           0.00000000E+00
   0.36700000E+01           0.00000000E+00
   0.36800000E+01           0.00000000E+00
   0.36900000E+01           0.00000000E+00
   0.37000000E+01           0.00000000E+00
   0.37100000E+01           0.00000000E+00
   0.37200000E+01           0.00000000E+00
   0.37300000E+01           0.00000000E+00
   0.37400000E+01           0.00000000E+00
   0.37500000E+01           0.00000000E+00
   0.37600000E+01           0.00000000E+00
   0.37700000E+01           0.00000000E+00
   0.37800000E+01           0.00000000E+00
   0.37900000E+01           0.00000000E+00
   0.38000000E+01           0.00000000E+00
   0.38100000E+01           0.00000000E+00
   0.38200000E+01           0.00000000E+00
   0.38300000E+01           0.00000000E+00
   0.38400000E+01           0.00000000E+00
   0.38500000E+01           0.00000000E+00
   0.38600000E+01           0.00000000E+00
   0.38700000E+01           0.00000000E+00
   0.38800000E+01           0.00000000E+00
   0.38900000E+01           0.00000000E+00
   0.39000000E+01           0.00000000E+00
   0.39100000E+01           0.00000000E+00
   0.39200000E+01           0.00000000E+00
   0.39300000E+01           0.00000000E+00
   0.39400000E+01           0.00000000E+00
   0.39500000E+01           0.00000000E+00
   0.39600000E+01           0.00000000E+00
   0.39700000E+01           0.00000000E+00
   0.39800000E+01           0.00000000E+00
   0.39900000E+01           0.00000000E+00
   0.40000000E+01           0.00000000E+00
 #T=    22.0000
  -0.40000000E+01           0.00000000E+00
  -0.39900000E+01           0.00000000E+00
  -0.39800000E+01           0.00000000E+00
  -0.39700000E+01           0.00000000E+00
  -0.39600000E+01           0.00000000E+00
  -0.39500000E+01           0.00000000E+00
  -0.39400000E+01           0.00000000E+00
  -0.39300000E+01           0.00000000E+00
  -0.39200000E+01           0.00000000E+00
  -0.39100000E+01           0.00000000E+00
  -0.39000000E+01           0.00000000E+00
  -0.38900000E+01           0.00000000E+00
  -0.38800000E+01           0.00000000E+00
  -0.38700000E+01           0.00000000E+00
  -0.38600000E+01           0.00000000E+00
  -0.38500000E+01           0.00000000E+00
  -0.38400000E+01           0.00000000E+00
  -0.38300000E+01           0.00000000E+00
  -0.38200000E+01           0.00000000E+00
  -0.38100000E+01           0.00000000E+00
  -0.38000000E+01           0.00000000E+00
  -0.37900000E+01           0.00000000E+00
  -0.37800000E+01           0.00000000E+00
  -0.37700000E+01           0.00000000E+00
  -0.37600000E+01           0.00000000E+00
  -0.37500000E+01           0.00000000E+00
  -0.37400000E+01           0.00000000E+00
  -0.37300000E+01           0.00000000E+00
  -0.37200000E+01           0.00000000E+00
  -0.37100000E+01           0.00000000E+00
  -0.37000000E+01           0.00000000E+00
  -0.36900000E+01           0.00000000E+00
  -0.36800000E+01           0.00000000E+00
  -0.36700000E+01           0.00000000E+00
  -0.36600000E+01           0.00000000E+00
  -0.36500000E+01           0.00000000E+00
  -0.36400000E+01           0.00000000E+00
  -0.36300000E+01           0.00000000E+00
  -0.36200000E+01           0.00000000E+00
  -0.36100000E+01           0.00000000E+00
  -0.36000000E+01           0.00000000E+00
  -0.35900000E+01           0.00000000E+00
  -0.35800000E+01           0.00000000E+00
  -0.35700000E+01           0.00000000E+00
  -0.35600000E+01           0.00000000E+00
  -0.35500000E+01           0.00000000E+00
  -0.35400000E+01           0.00000000E+00
  -0.35300000E+01           0.00000000E+00
  -0.35200000E+01           0.00000000E+00
  -0.35100000E+01           0.00000000E+00
  -0.35000000E+01           0.00000000E+00
  -0.34900000E+01           0.00000000E+00
  -0.34800000E+01           0.00000000E+00
  -0.34700000E+01           0.00000000E+00
  -0.34600000E+01           0.00000000E+00
  -0.34500000E+01           0.00000000E+00
  -0.34400000E+01           0.00000000E+00
  -0.34300000E+01           0.00000000E+00
  -0.34200000E+01           0.00000000E+00
  -0.34100000E+01           0.00000000E+00
  -0.34000000E+01           0.00000000E+00
  -0.33900000E+01           0.00000000E+00
  -0.33800000E+01           0.00000000E+00
  -0.33700000E+01           0.00000000E+00
  -0.33600000E+01           0.00000000E+00
  -0.33500000E+01           0.00000000E+00
  -0.33400000E+01           0.00000000E+00
  -0.33300000E+01           0.00000000E+00
  -0.33200000E+01           0.00000000E+00
  -0.33100000E+01           0.00000000E+00
  -0.33000000E+01           0.00000000E+00
  -0.32900000E+01           0.00000000E+00
  -0.32800000E+01           0.00000000E+00
  -0.32700000E+01           0.00000000E+00
  -0.32600000E+01           0.00000000E+00
  -0.32500000E+01           0.00000000E+00
  -0.32400000E+01           0.00000000E+00
  -0.32300000E+01           0.00000000E+00
  -0.32200000E+01           0.00000000E+00
  -0.32100000E+01           0.00000000E+00
  -0.32000000E+01           0.00000000E+00
  -0.31900000E+01           0.00000000E+00
  -0.31800000E+01           0.00000000E+00
  -0.31700000E+01           0.00000000E+00
  -0.31600000E+01           0.00000000E+00
  -0.31500000E+01           0.00000000E+00
  -0.31400000E+01           0.00000000E+00
  -0.31300000E+01           0.00000000E+00
  -0.31200000E+01           0.00000000E+00
  -0.31100000E+01           0.00000000E+00
  -0.31000000E+01           0.00000000E+00
  -0.30900000E+01           0.00000000E+00
  -0.30800000E+01           0.00000000E+00
  -0.30700000E+01           0.00000000E+00
  -0.30600000E+01           0.00000000E+00
  -0.30500000E+01           0.00000000E+00
  -0.30400000E+01           0.00000000E+00
  -0.30300000E+01           0.00000000E+00
  -0.30200000E+01           0.00000000E+00
  -0.30100000E+01           0.00000000E+00
  -0.30000000E+01           0.00000000E+00
  -0.29900000E+01           0.00000000E+00
  -0.29800000E+01           0.00000000E+00
  -0.29700000E+01           0.00000000E+00
  -0.29600000E+01           0.00000000E+00
  -0.29500000E+01           0.00000000E+00
  -0.29400000E+01           0.00000000E+00
  -0.29300000E+01           0.00000000E+00
  -0.29200000E+01           0.00000000E+00
  -0.29100000E+01           0.00000000E+00
  -0.29000000E+01           0.00000000E+00
  -0.28900000E+01           0.00000000E+00
  -0.28800000E+01           0.00000000E+00
  -0.28700000E+01           0.00000000E+00
  -0.28600000E+01           0.00000000E+00
  -0.28500000E+01           0.00000000E+00
  -0.28400000E+01           0.00000000E+00
  -0.28300000E+01           0.00000000E+00
  -0.28200000E+01           0.00000000E+00
  -0.28100000E+01           0.00000000E+00
  -0.28000000E+01           0.00000000E+00
  -0.27900000E+01           0.00000000E+00
  -0.27800000E+01           0.00000000E+00
  -0.27700000E+01           0.00000000E+00
  -0.27600000E+01           0.00000000E+00
  -0.27500000E+01           0.00000000E+00
  -0.27400000E+01           0.00000000E+00
  -0.27300000E+01           0.00000000E+00
  -0.27200000E+01           0.00000000E+00
  -0.27100000E+01           0.00000000E+00
  -0.27000000E+01           0.00000000E+00
  -0.26900000E+01           0.00000000E+00
  -0.26800000E+01           0.00000000E+00
  -0.26700000E+01           0.00000000E+00
  -0.26600000E+01           0.00000000E+00
  -0.26500000E+01           0.00000000E+00
  -0.26400000E+01           0.00000000E+00
  -0.26300000E+01           0.00000000E+00
  -0.26200000E+01           0.00000000E+00
  -0.26100000E+01           0.00000000E+00
  -0.26000000E+01           0.00000000E+00
  -0.25900000E+01           0.00000000E+00
  -0.25800000E+01           0.00000000E+00
  -0.25700000E+01           0.00000000E+00
  -0.25600000E+01           0.00000000E+00
  -0.25500000E+01           0.00000000E+00
  -0.25400000E+01           0.00000000E+00
  -0.25300000E+01           0.00000000E+00
  -0.25200000E+01           0.00000000E+00
  -0.25100000E+01           0.00000000E+00
  -0.25000000E+01           0.00000000E+00
  -0.24900000E+01           0.00000000E+00
  -0.24800000E+01           0.00000000E+00
  -0.24700000E+01           0.00000000E+00
  -0.24600000E+01           0.00000000E+00
  -0.24500000E+01           0.00000000E+00
  -0.24400000E+01           0.00000000E+00
  -0.24300000E+01           0.00000000E+00
  -0.24200000E+01           0.00000000E+00
  -0.24100000E+01           0.00000000E+00
  -0.24000000E+01           0.00000000E+00
  -0.23900000E+01           0.00000000E+00
  -0.23800000E+01           0.00000000E+00
  -0.23700000E+01           0.00000000E+00
  -0.23600000E+01           0.00000000E+00
  -0.23500000E+01           0.00000000E+00
  -0.23400000E+01           0.00000000E+00
  -0.23300000E+01           0.00000000E+00
  -0.23200000E+01           0.00000000E+00
  -0.23100000E+01           0.00000000E+00
  -0.23000000E+01           0.00000000E+00
  -0.22900000E+01           0.00000000E+00
  -0.22800000E+01           0.00000000E+00
  -0.22700000E+01           0.00000000E+00
  -0.22600000E+01           0.00000000E+00
  -0.22500000E+01           0.00000000E+00
  -0.22400000E+01           0.00000000E+00
  -0.22300000E+01           0.00000000E+00
  -0.22200000E+01           0.00000000E+00
  -0.22100000E+01           0.00000000E+00
  -0.22000000E+01           0.00000000E+00
  -0.21900000E+01           0.00000000E+00
  -0.21800000E+01           0.00000000E+00
  -0.21700000E+01           0.00000000E+00
  -0.21600000E+01           0.00000000E+00
  -0.21500000E+01           0.00000000E+00
  -0.21400000E+01           0.00000000E+00
  -0.21300000E+01           0.00000000E+00
  -0.21200000E+01           0.00000000E+00
  -0.21100000E+01           0.00000000E+00
  -0.21000000E+01           0.00000000E+00
  -0.20900000E+01           0.00000000E+00
  -0.20800000E+01           0.00000000E+00
  -0.20700000E+01           0.00000000E+00
  -0.20600000E+01           0.00000000E+00
  -0.20500000E+01           0.00000000E+00
  -0.20400000E+01           0.00000000E+00
  -0.20300000E+01           0.00000000E+00
  -0.20200000E+01           0.00000000E+00
  -0.20100000E+01           0.00000000E+00
  -0.20000000E+01           0.00000000E+00
  -0.19900000E+01           0.00000000E+00
  -0.19800000E+01           0.00000000E+00
  -0.19700000E+01           0.00000000E+00
  -0.19600000E+01           0.00000000E+00
  -0.19500000E+01           0.00000000E+00
  -0.19400000E+01           0.00000000E+00
  -0.19300000E+01           0.00000000E+00
  -0.19200000E+01           0.00000000E+00
  -0.19100000E+01           0.00000000E+00
  -0.19000000E+01           0.00000000E+00
  -0.18900000E+01           0.00000000E+00
  -0.18800000E+01           0.00000000E+00
  -0.18700000E+01           0.00000000E+00
  -0.18600000E+01           0.00000000E+00
  -0.18500000E+01           0.00000000E+00
  -0.18400000E+01           0.00000000E+00
  -0.18300000E+01           0.00000000E+00
  -0.18200000E+01           0.00000000E+00
  -0.18100000E+01           0.00000000E+00
  -0.18000000E+01           0.00000000E+00
  -0.17900000E+01           0.00000000E+00
  -0.17800000E+01           0.00000000E+00
  -0.17700000E+01           0.00000000E+00
  -0.17600000E+01           0.00000000E+00
  -0.17500000E+01           0.00000000E+00
  -0.17400000E+01           0.00000000E+00
  -0.17300000E+01           0.00000000E+00
  -0.17200000E+01           0.00000000E+00
  -0.17100000E+01           0.00000000E+00
  -0.17000000E+01           0.00000000E+00
  -0.16900000E+01           0.00000000E+00
  -0.16800000E+01           0.00000000E+00
  -0.16700000E+01           0.00000000E+00
  -0.16600000E+01           0.00000000E+00
  -0.16500000E+01           0.00000000E+00
  -0.16400000E+01           0.00000000E+00
  -0.16300000E+01           0.00000000E+00
  -0.16200000E+01           0.00000000E+00
  -0.16100000E+01           0.00000000E+00
  -0.16000000E+01           0.00000000E+00
  -0.15900000E+01           0.00000000E+00
  -0.15800000E+01           0.00000000E+00
  -0.15700000E+01           0.00000000E+00
  -0.15600000E+01           0.00000000E+00
  -0.15500000E+01           0.00000000E+00
  -0.15400000E+01           0.00000000E+00
  -0.15300000E+01           0.00000000E+00
  -0.15200000E+01           0.00000000E+00
  -0.15100000E+01           0.00000000E+00
  -0.15000000E+01           0.00000000E+00
  -0.14900000E+01           0.00000000E+00
[...]
  -0.64000000E+00           0.00000000E+00
  -0.63000000E+00           0.00000000E+00
  -0.62000000E+00           0.00000000E+00
  -0.61000000E+00           0.00000000E+00
  -0.60000000E+00           0.00000000E+00
  -0.59000000E+00           0.00000000E+00
  -0.58000000E+00           0.00000000E+00
  -0.57000000E+00           0.00000000E+00
  -0.56000000E+00           0.00000000E+00
  -0.55000000E+00           0.00000000E+00
  -0.54000000E+00           0.00000000E+00
  -0.53000000E+00           0.00000000E+00
  -0.52000000E+00           0.00000000E+00
  -0.51000000E+00           0.00000000E+00
  -0.50000000E+00           0.00000000E+00
  -0.49000000E+00           0.00000000E+00
  -0.48000000E+00           0.00000000E+00
  -0.47000000E+00           0.00000000E+00
  -0.46000000E+00           0.00000000E+00
  -0.45000000E+00           0.00000000E+00
  -0.44000000E+00           0.00000000E+00
  -0.43000000E+00           0.00000000E+00
  -0.42000000E+00           0.00000000E+00
  -0.41000000E+00           0.00000000E+00
  -0.40000000E+00           0.00000000E+00
  -0.39000000E+00           0.00000000E+00
  -0.38000000E+00           0.00000000E+00
  -0.37000000E+00           0.00000000E+00
  -0.36000000E+00           0.00000000E+00
  -0.35000000E+00           0.00000000E+00
  -0.34000000E+00           0.00000000E+00
  -0.33000000E+00           0.00000000E+00
  -0.32000000E+00           0.00000000E+00
  -0.31000000E+00           0.00000000E+00
  -0.30000000E+00           0.00000000E+00
  -0.29000000E+00           0.00000000E+00
  -0.28000000E+00           0.00000000E+00
  -0.27000000E+00           0.00000000E+00
  -0.26000000E+00           0.00000000E+00
  -0.25000000E+00           0.00000000E+00
  -0.24000000E+00           0.00000000E+00
  -0.23000000E+00           0.00000000E+00
  -0.22000000E+00           0.00000000E+00
  -0.21000000E+00           0.00000000E+00
  -0.20000000E+00           0.00000000E+00
  -0.19000000E+00           0.00000000E+00
  -0.18000000E+00           0.00000000E+00
  -0.17000000E+00           0.00000000E+00
  -0.16000000E+00           0.00000000E+00
  -0.15000000E+00           0.00000000E+00
  -0.14000000E+00           0.00000000E+00
  -0.13000000E+00           0.00000000E+00
  -0.12000000E+00           0.00000000E+00
  -0.11000000E+00           0.00000000E+00
  -0.10000000E+00           0.00000000E+00
  -0.90000000E-01           0.00000000E+00
  -0.80000000E-01           0.00000000E+00
  -0.70000000E-01           0.00000000E+00
  -0.60000000E-01           0.00000000E+00
  -0.50000000E-01           0.00000000E+00
  -0.40000000E-01           0.00000000E+00
  -0.30000000E-01           0.00000000E+00
  -0.20000000E-01           0.00000000E+00
  -0.10000000E-01           0.00000000E+00
   0.00000000E+00           0.26455026E-05
   0.10000000E-01           0.92239859E-04
   0.20000000E-01           0.36472663E-03
   0.30000000E-01           0.80141093E-03
   0.40000000E-01           0.13945326E-02
   0.50000000E-01           0.21915344E-02
   0.60000000E-01           0.31379189E-02
   0.70000000E-01           0.42405644E-02
   0.80000000E-01           0.55229277E-02
   0.90000000E-01           0.69827160E-02
   0.10000000E+00           0.84992945E-02
   0.11000000E+00           0.10302998E-01
   0.12000000E+00           0.12182187E-01
   0.13000000E+00           0.14232451E-01
   0.14000000E+00           0.16500176E-01
   0.15000000E+00           0.18755732E-01
   0.16000000E+00           0.21165432E-01
   0.17000000E+00           0.23802469E-01
   0.18000000E+00           0.26458730E-01
   0.19000000E+00           0.29343739E-01
   0.20000000E+00           0.32440212E-01
   0.21000000E+00           0.35428395E-01
   0.22000000E+00           0.38848148E-01
   0.23000000E+00           0.42265785E-01
   0.24000000E+00           0.45735097E-01
   0.25000000E+00           0.49247443E-01
   0.26000000E+00           0.52814991E-01
   0.27000000E+00           0.56814462E-01
   0.28000000E+00           0.60727160E-01
   0.29000000E+00           0.64583774E-01
   0.30000000E+00           0.68962610E-01
   0.31000000E+00           0.73232451E-01
   0.32000000E+00           0.77508466E-01
   0.33000000E+00           0.81762434E-01
   0.34000000E+00           0.86202293E-01
   0.35000000E+00           0.91056261E-01
   0.36000000E+00           0.95843563E-01
   0.37000000E+00           0.10025450E+00
   0.38000000E+00           0.10527725E+00
   0.39000000E+00           0.11030635E+00
   0.40000000E+00           0.11530476E+00
   0.41000000E+00           0.12037954E+00
   0.42000000E+00           0.12536649E+00
   0.43000000E+00           0.13064198E+00
   0.44000000E+00           0.13590370E+00
   0.45000000E+00           0.14143228E+00
   0.46000000E+00           0.14652963E+00
   0.47000000E+00           0.15203386E+00
   0.48000000E+00           0.15778501E+00
   0.49000000E+00           0.16272646E+00
   0.50000000E+00           0.16873810E+00
   0.51000000E+00           0.17433827E+00
   0.52000000E+00           0.17997496E+00
   0.53000000E+00           0.18561799E+00
   0.54000000E+00           0.19145009E+00
   0.55000000E+00           0.19705556E+00
   0.56000000E+00           0.20307372E+00
   0.57000000E+00           0.20899153E+00
   0.58000000E+00           0.21465238E+00
   0.59000000E+00           0.22046261E+00
   0.60000000E+00           0.22579506E+00
   0.61000000E+00           0.23242628E+00
   0.62000000E+00           0.23853810E+00
   0.63000000E+00           0.24379894E+00
   0.64000000E+00           0.25018554E+00
   0.65000000E+00           0.25607848E+00
   0.66000000E+00           0.26234427E+00
   0.67000000E+00           0.26823228E+00
   0.68000000E+00           0.27406631E+00
   0.69000000E+00           0.27977319E+00
   0.70000000E+00           0.28598377E+00
   0.71000000E+00           0.29184092E+00
   0.72000000E+00           0.29819065E+00
   0.73000000E+00           0.30415679E+00
   0.74000000E+00           0.30981111E+00
   0.75000000E+00           0.31584356E+00
   0.76000000E+00           0.32148395E+00
   0.77000000E+00           0.32769330E+00
   0.78000000E+00           0.33350141E+00
   0.79000000E+00           0.33891305E+00
   0.80000000E+00           0.34510018E+00
   0.81000000E+00           0.35030476E+00
   0.82000000E+00           0.35601799E+00
   0.83000000E+00           0.36232046E+00
   0.84000000E+00           0.36768871E+00
   0.85000000E+00           0.37397284E+00
   0.86000000E+00           0.37899400E+00
   0.87000000E+00           0.38451940E+00
   0.88000000E+00           0.39016861E+00
   0.89000000E+00           0.39564780E+00
   0.90000000E+00           0.40106190E+00
   0.91000000E+00           0.40595079E+00
   0.92000000E+00           0.41146843E+00
   0.93000000E+00           0.41752434E+00
   0.94000000E+00           0.42240758E+00
   0.95000000E+00           0.42802945E+00
   0.96000000E+00           0.43249136E+00
   0.97000000E+00           0.43761217E+00
   0.98000000E+00           0.44214303E+00
   0.99000000E+00           0.44731587E+00
   0.10000000E+01           0.45270159E+00
   0.10100000E+01           0.45701411E+00
   0.10200000E+01           0.46184974E+00
   0.10300000E+01           0.46675926E+00
   0.10400000E+01           0.47094586E+00
   0.10500000E+01           0.47512857E+00
   0.10600000E+01           0.48030106E+00
   0.10700000E+01           0.48438042E+00
   0.10800000E+01           0.48855238E+00
   0.10900000E+01           0.49301429E+00
   0.11000000E+01           0.49708289E+00
   0.11100000E+01           0.50110441E+00
   0.11200000E+01           0.50485168E+00
   0.11300000E+01           0.50862046E+00
   0.11400000E+01           0.51292787E+00
   0.11500000E+01           0.51603563E+00
   0.11600000E+01           0.51988554E+00
   0.11700000E+01           0.52338183E+00
   0.11800000E+01           0.52719735E+00
   0.11900000E+01           0.52973369E+00
   0.12000000E+01           0.53339683E+00
   0.12100000E+01           0.53665661E+00
   0.12200000E+01           0.53933210E+00
   0.12300000E+01           0.54191076E+00
   0.12400000E+01           0.54574868E+00
   0.12500000E+01           0.54824850E+00
   0.12600000E+01           0.55125115E+00
   0.12700000E+01           0.55334268E+00
   0.12800000E+01           0.55638677E+00
   0.12900000E+01           0.55811111E+00
   0.13000000E+01           0.56044409E+00
   0.13100000E+01           0.56237989E+00
   0.13200000E+01           0.56466861E+00
   0.13300000E+01           0.56659753E+00
   0.13400000E+01           0.56913157E+00
   0.13500000E+01           0.57119665E+00
   0.13600000E+01           0.57175238E+00
   0.13700000E+01           0.57380917E+00
   0.13800000E+01           0.57631464E+00
   0.13900000E+01           0.57660106E+00
   0.14000000E+01           0.57797901E+00
   0.14100000E+01           0.57847690E+00
   0.14200000E+01           0.58049153E+00
   0.14300000E+01           0.58155626E+00
   0.14400000E+01           0.58178166E+00
   0.14500000E+01           0.58293457E+00
   0.14600000E+01           0.58381358E+00
   0.14700000E+01           0.58357478E+00
   0.14800000E+01           0.58534056E+00
   0.14900000E+01           0.58486702E+00
   0.15000000E+01           0.58418219E+00
   0.15100000E+01           0.58477619E+00
   0.15200000E+01           0.58508783E+00
   0.15300000E+01           0.58481869E+00
   0.15400000E+01           0.58422910E+00
   0.15500000E+01           0.58421693E+00
   0.15600000E+01           0.58372892E+00
   0.15700000E+01           0.58261534E+00
   0.15800000E+01           0.58311323E+00
   0.15900000E+01           0.58114885E+00
   0.16000000E+01           0.58092222E+00
   0.16100000E+01           0.57976561E+00
   0.16200000E+01           0.57854074E+00
   0.16300000E+01           0.57756455E+00
   0.16400000E+01           0.57550582E+00
   0.16500000E+01           0.57484762E+00
   0.16600000E+01           0.57297760E+00
   0.16700000E+01           0.57154586E+00
   0.16800000E+01           0.56968466E+00
   0.16900000E+01           0.56787496E+00
   0.17000000E+01           0.56625503E+00
   0.17100000E+01           0.56316120E+00
   0.17200000E+01           0.56159647E+00
   0.17300000E+01           0.55968642E+00
   0.17400000E+01           0.55679347E+00
   0.17500000E+01           0.55444462E+00
   0.17600000E+01           0.55154215E+00
   0.17700000E+01           0.54855591E+00
   0.17800000E+01           0.54568413E+00
   0.17900000E+01           0.54378554E+00
   0.18000000E+01           0.54067848E+00
   0.18100000E+01           0.53689683E+00
   0.18200000E+01           0.53409101E+00
   0.18300000E+01           0.53055256E+00
   0.18400000E+01           0.52700106E+00
   0.18500000E+01           0.52384268E+00
   0.18600000E+01           0.52003527E+00
   0.18700000E+01           0.51617954E+00
   0.18800000E+01           0.51268183E+00
   0.18900000E+01           0.50803492E+00
   0.19000000E+01           0.50455644E+00
   0.19100000E+01           0.50082663E+00
   0.19200000E+01           0.49605644E+00
   0.19300000E+01           0.49190194E+00
   0.19400000E+01           0.48756808E+00
   0.19500000E+01           0.48340935E+00
   0.19600000E+01           0.47878642E+00
   0.19700000E+01           0.47401852E+00
   0.19800000E+01           0.46975820E+00
   0.19900000E+01           0.46465397E+00
   0.20000000E+01           0.45948113E+00
   0.20100000E+01           0.45440952E+00
   0.20200000E+01           0.45035185E+00
   0.20300000E+01           0.44500212E+00
   0.20400000E+01           0.44014568E+00
   0.20500000E+01           0.43459594E+00
   0.20600000E+01           0.43014744E+00
   0.20700000E+01           0.42499947E+00
   0.20800000E+01           0.42037372E+00
   0.20900000E+01           0.41481041E+00
   0.21000000E+01           0.41020494E+00
   0.21100000E+01           0.40585009E+00
   0.21200000E+01           0.40117002E+00
   0.21300000E+01           0.39611323E+00
   0.21400000E+01           0.39128448E+00
   0.21500000E+01           0.38674109E+00
   0.21600000E+01           0.38160547E+00
   0.21700000E+01           0.37660882E+00
   0.21800000E+01           0.37182099E+00
   0.21900000E+01           0.36776684E+00
   0.22000000E+01           0.36202222E+00
   0.22100000E+01           0.35774797E+00
   0.22200000E+01           0.35309541E+00
   0.22300000E+01           0.34902522E+00
   0.22400000E+01           0.34420476E+00
   0.22500000E+01           0.33959453E+00
   0.22600000E+01           0.33524868E+00
   0.22700000E+01           0.33078818E+00
   0.22800000E+01           0.32623774E+00
   0.22900000E+01           0.32194744E+00
   0.23000000E+01           0.31724868E+00
   0.23100000E+01           0.31289118E+00
   0.23200000E+01           0.30873422E+00
   0.23300000E+01           0.30329735E+00
   0.23400000E+01           0.29973175E+00
   0.23500000E+01           0.29532328E+00
   0.23600000E+01           0.29087937E+00
   0.23700000E+01           0.28685944E+00
   0.23800000E+01           0.28315485E+00
   0.23900000E+01           0.27809489E+00
   0.24000000E+01           0.27411005E+00
   0.24100000E+01           0.26981411E+00
   0.24200000E+01           0.26575273E+00
   0.24300000E+01           0.26150459E+00
   0.24400000E+01           0.25744180E+00
   0.24500000E+01           0.25333598E+00
   0.24600000E+01           0.24932240E+00
   0.24700000E+01           0.24554815E+00
   0.24800000E+01           0.24189665E+00
   0.24900000E+01           0.23804515E+00
   0.25000000E+01           0.23402469E+00
   0.25100000E+01           0.23006402E+00
   0.25200000E+01           0.22637037E+00
   0.25300000E+01           0.22277425E+00
   0.25400000E+01           0.21848695E+00
   0.25500000E+01           0.21503175E+00
   0.25600000E+01           0.21150018E+00
   0.25700000E+01           0.20811182E+00
   0.25800000E+01           0.20394180E+00
   0.25900000E+01           0.20059206E+00
   0.26000000E+01           0.19727954E+00
   0.26100000E+01           0.19334991E+00
   0.26200000E+01           0.18978183E+00
   0.26300000E+01           0.18653210E+00
   0.26400000E+01           0.18344903E+00
   0.26500000E+01           0.17980882E+00
   0.26600000E+01           0.17646490E+00
   0.26700000E+01           0.17310141E+00
   0.26800000E+01           0.17002116E+00
   0.26900000E+01           0.16673827E+00
   0.27000000E+01           0.16342099E+00
   0.27100000E+01           0.16034974E+00
   0.27200000E+01           0.15753228E+00
   0.27300000E+01           0.15424956E+00
   0.27400000E+01           0.15129277E+00
   0.27500000E+01           0.14807531E+00
   0.27600000E+01           0.14531235E+00
   0.27700000E+01           0.14232416E+00
   0.27800000E+01           0.13969312E+00
   0.27900000E+01           0.13661182E+00
   0.28000000E+01           0.13385785E+00
   0.28100000E+01           0.13093422E+00
   0.28200000E+01           0.12840459E+00
   0.28300000E+01           0.12559136E+00
   0.28400000E+01           0.12291058E+00
   0.28500000E+01           0.12021376E+00
   0.28600000E+01           0.11750300E+00
   0.28700000E+01           0.11506420E+00
   0.28800000E+01           0.11254656E+00
   0.28900000E+01           0.10996349E+00
   0.29000000E+01           0.10757372E+00
   0.29100000E+01           0.10502857E+00
   0.29200000E+01           0.10258430E+00
   0.29300000E+01           0.10009982E+00
   0.29400000E+01           0.97886420E-01
   0.29500000E+01           0.95707937E-01
   0.29600000E+01           0.93216049E-01
   0.29700000E+01           0.90940564E-01
   0.29800000E+01           0.88929806E-01
   0.29900000E+01           0.86836332E-01
   0.30000000E+01           0.84409171E-01
   0.30100000E+01           0.82504938E-01
   0.30200000E+01           0.80315520E-01
   0.30300000E+01           0.78408113E-01
   0.30400000E+01           0.76320282E-01
   0.30500000E+01           0.74476720E-01
   0.30600000E+01           0.72538977E-01
   0.30700000E+01           0.70536508E-01
   0.30800000E+01           0.68771958E-01
   0.30900000E+01           0.66943034E-01
   0.31000000E+01           0.65035097E-01
   0.31100000E+01           0.63169312E-01
   0.31200000E+01           0.61595944E-01
   0.31300000E+01           0.59866490E-01
   0.31400000E+01           0.58069665E-01
   0.31500000E+01           0.56341270E-01
   0.31600000E+01           0.54872663E-01
   0.31700000E+01           0.53144268E-01
   0.31800000E+01           0.51774780E-01
   0.31900000E+01           0.50097707E-01
   0.32000000E+01           0.48559436E-01
   0.32100000E+01           0.47189947E-01
   0.32200000E+01           0.45700705E-01
   0.32300000E+01           0.44179718E-01
   0.32400000E+01           0.42700529E-01
   0.32500000E+01           0.41428042E-01
   0.32600000E+01           0.40187302E-01
   0.32700000E+01           0.38877601E-01
   0.32800000E+01           0.37505644E-01
   0.32900000E+01           0.36364727E-01
   0.33000000E+01           0.35150794E-01
   0.33100000E+01           0.33932628E-01
   0.33200000E+01           0.32719929E-01
   0.33300000E+01           0.31498765E-01
   0.33400000E+01           0.30508818E-01
   0.33500000E+01           0.29448854E-01
   0.33600000E+01           0.28350794E-01
   0.33700000E+01           0.27308818E-01
   0.33800000E+01           0.26208113E-01
   0.33900000E+01           0.25257496E-01
   0.34000000E+01           0.24270899E-01
   0.34100000E+01           0.23308289E-01
   0.34200000E+01           0.22325750E-01
   0.34300000E+01           0.21617813E-01
   0.34400000E+01           0.20537743E-01
   0.34500000E+01           0.19667725E-01
   0.34600000E+01           0.18858201E-01
   0.34700000E+01           0.17987831E-01
   0.34800000E+01           0.17195591E-01
   0.34900000E+01           0.16468254E-01
   0.35000000E+01           0.15786243E-01
   0.35100000E+01           0.15138448E-01
   0.35200000E+01           0.14276543E-01
   0.35300000E+01           0.13725220E-01
   0.35400000E+01           0.12973721E-01
   0.35500000E+01           0.12368959E-01
   0.35600000E+01           0.11708289E-01
   0.35700000E+01           0.11211640E-01
   0.35800000E+01           0.10526455E-01
   0.35900000E+01           0.10035802E-01
   0.36000000E+01           0.95264550E-02
   0.36100000E+01           0.89068783E-02
   0.36200000E+01           0.83758377E-02
   0.36300000E+01           0.78797178E-02
   0.36400000E+01           0.74511464E-02
   0.36500000E+01           0.69657848E-02
   0.36600000E+01           0.66121693E-02
   0.36700000E+01           0.61479718E-02
   0.36800000E+01           0.57354497E-02
   0.36900000E+01           0.53335097E-02
   0.37000000E+01           0.48970018E-02
   0.37100000E+01           0.45970018E-02
   0.37200000E+01           0.42320988E-02
   0.37300000E+01           0.39493827E-02
   0.37400000E+01           0.36000000E-02
   0.37500000E+01           0.33317460E-02
   0.37600000E+01           0.30578483E-02
   0.37700000E+01           0.27495591E-02
   0.37800000E+01           0.25100529E-02
   0.37900000E+01           0.22682540E-02
   0.38000000E+01           0.20668430E-02
   0.38100000E+01           0.18319224E-02
   0.38200000E+01           0.16093474E-02
   0.38300000E+01           0.14899471E-02
   0.38400000E+01           0.12837743E-02
   0.38500000E+01           0.11137566E-02
   0.38600000E+01           0.97336861E-03
   0.38700000E+01           0.80617284E-03
   0.38800000E+01           0.70917108E-03
   0.38900000E+01           0.58977072E-03
   0.39000000E+01           0.46560847E-03
   0.39100000E+01           0.38571429E-03
   0.39200000E+01           0.29241623E-03
   0.39300000E+01           0.22945326E-03
   0.39400000E+01           0.16437390E-03
   0.39500000E+01           0.11446208E-03
   0.39600000E+01           0.71957672E-04
   0.39700000E+01           0.38624339E-04
   0.39800000E+01           0.19576720E-04
   0.39900000E+01           0.44091711E-05
   0.40000000E+01           0.00000000E+00
