 #written on 24Jan2025 at 20:34:21 
 #----------------------------------------------- MONTECARLO ---------------------------------------------------#
 # Temp      Magnetization     Energy_ave          C_M              Sus              U_E              U_M       #
 #--------------------------------------------------------------------------------------------------------------#
   6.0000   0.63188076E+00  -0.22519733E+03   0.10050996E+01   0.12447877E-02   0.66666627E+00   0.66665628E+00
   7.0000   0.62884675E+00  -0.22417453E+03   0.10258703E+01   0.12787462E-02   0.66666611E+00   0.66665410E+00
   8.0000   0.62577330E+00  -0.22314824E+03   0.10258061E+01   0.13165597E-02   0.66666593E+00   0.66665173E+00
   9.0000   0.62268704E+00  -0.22212011E+03   0.10254556E+01   0.13637765E-02   0.66666573E+00   0.66664909E+00
  10.0000   0.61957878E+00  -0.22108579E+03   0.10308210E+01   0.13912727E-02   0.66666550E+00   0.66664654E+00
  11.0000   0.61642023E+00  -0.22004747E+03   0.10384048E+01   0.14245295E-02   0.66666523E+00   0.66664377E+00
  12.0000   0.61323221E+00  -0.21900557E+03   0.10476991E+01   0.14707811E-02   0.66666492E+00   0.66664061E+00
  13.0000   0.61000046E+00  -0.21796163E+03   0.10440232E+01   0.15150208E-02   0.66666460E+00   0.66663728E+00
  14.0000   0.60674998E+00  -0.21690784E+03   0.10489232E+01   0.15307169E-02   0.66666424E+00   0.66663435E+00
  15.0000   0.60345824E+00  -0.21585137E+03   0.10692802E+01   0.15938287E-02   0.66666380E+00   0.66663022E+00
  16.0000   0.60015148E+00  -0.21479036E+03   0.10661504E+01   0.16369179E-02   0.66666338E+00   0.66662630E+00
  17.0000   0.59674092E+00  -0.21372760E+03   0.10691173E+01   0.16927569E-02   0.66666291E+00   0.66662181E+00
  18.0000   0.59336107E+00  -0.21265571E+03   0.10781828E+01   0.17301098E-02   0.66666238E+00   0.66661756E+00
  19.0000   0.58989040E+00  -0.21158015E+03   0.10859321E+01   0.17983080E-02   0.66666180E+00   0.66661216E+00
  20.0000   0.58636700E+00  -0.21049774E+03   0.10885709E+01   0.18409139E-02   0.66666121E+00   0.66660723E+00
  21.0000   0.58282551E+00  -0.20940858E+03   0.10927765E+01   0.18844632E-02   0.66666056E+00   0.66660200E+00
  22.0000   0.57920381E+00  -0.20831320E+03   0.10928224E+01   0.19445881E-02   0.66665990E+00   0.66659589E+00
  23.0000   0.57554002E+00  -0.20721515E+03   0.11064409E+01   0.20018131E-02   0.66665910E+00   0.66658952E+00
  24.0000   0.57184427E+00  -0.20610784E+03   0.11093010E+01   0.20559349E-02   0.66665831E+00   0.66658293E+00
  25.0000   0.56807335E+00  -0.20499522E+03   0.11189467E+01   0.21190103E-02   0.66665743E+00   0.66657556E+00
  26.0000   0.56419447E+00  -0.20386808E+03   0.11276340E+01   0.21974917E-02   0.66665648E+00   0.66656706E+00
  27.0000   0.56031788E+00  -0.20273917E+03   0.11306091E+01   0.22737697E-02   0.66665553E+00   0.66655815E+00
  28.0000   0.55637194E+00  -0.20160245E+03   0.11455705E+01   0.23500105E-02   0.66665440E+00   0.66654872E+00
  29.0000   0.55236785E+00  -0.20045880E+03   0.11503210E+01   0.24263056E-02   0.66665330E+00   0.66653872E+00
  30.0000   0.54817953E+00  -0.19929888E+03   0.11608664E+01   0.24977828E-02   0.66665206E+00   0.66652832E+00
  31.0000   0.54400476E+00  -0.19813416E+03   0.11705516E+01   0.25950912E-02   0.66665076E+00   0.66651587E+00
  32.0000   0.53971423E+00  -0.19695899E+03   0.11800132E+01   0.26758207E-02   0.66664937E+00   0.66650360E+00
  33.0000   0.53532423E+00  -0.19577148E+03   0.11925133E+01   0.27706465E-02   0.66664785E+00   0.66648970E+00
  34.0000   0.53080782E+00  -0.19457078E+03   0.12015238E+01   0.28869857E-02   0.66664630E+00   0.66647347E+00
  35.0000   0.52619325E+00  -0.19335786E+03   0.12175969E+01   0.29947950E-02   0.66664452E+00   0.66645674E+00
  36.0000   0.52150350E+00  -0.19213365E+03   0.12340356E+01   0.31263897E-02   0.66664261E+00   0.66643719E+00
  37.0000   0.51669203E+00  -0.19089865E+03   0.12461026E+01   0.32319790E-02   0.66664068E+00   0.66641833E+00
  38.0000   0.51172385E+00  -0.18964442E+03   0.12618506E+01   0.33573827E-02   0.66663854E+00   0.66639657E+00
  39.0000   0.50661410E+00  -0.18837659E+03   0.12810001E+01   0.35255798E-02   0.66663618E+00   0.66636972E+00
  40.0000   0.50129710E+00  -0.18708931E+03   0.12912381E+01   0.36736022E-02   0.66663390E+00   0.66634262E+00
  41.0000   0.49591064E+00  -0.18579116E+03   0.13157586E+01   0.38602299E-02   0.66663109E+00   0.66631011E+00
  42.0000   0.49032914E+00  -0.18446662E+03   0.13314247E+01   0.40469659E-02   0.66662835E+00   0.66627508E+00
  43.0000   0.48448810E+00  -0.18312538E+03   0.13556163E+01   0.42509896E-02   0.66662517E+00   0.66623540E+00
  44.0000   0.47846047E+00  -0.18176084E+03   0.13797090E+01   0.44821888E-02   0.66662178E+00   0.66618969E+00
  45.0000   0.47215872E+00  -0.18037351E+03   0.14026505E+01   0.47262503E-02   0.66661820E+00   0.66613856E+00
  46.0000   0.46569102E+00  -0.17896573E+03   0.14289828E+01   0.50263455E-02   0.66661426E+00   0.66607679E+00
  47.0000   0.45879111E+00  -0.17751726E+03   0.14471442E+01   0.53363042E-02   0.66661035E+00   0.66600759E+00
  48.0000   0.45170901E+00  -0.17604441E+03   0.14844980E+01   0.57023025E-02   0.66660541E+00   0.66592489E+00
  49.0000   0.44413087E+00  -0.17453954E+03   0.15152188E+01   0.61200695E-02   0.66660038E+00   0.66582655E+00
  50.0000   0.43635050E+00  -0.17301221E+03   0.15547798E+01   0.65610005E-02   0.66659459E+00   0.66571513E+00
  51.0000   0.42800639E+00  -0.17143206E+03   0.15916798E+01   0.71625388E-02   0.66658848E+00   0.66556631E+00
  52.0000   0.41911967E+00  -0.16981917E+03   0.16399632E+01   0.78652721E-02   0.66658132E+00   0.66538338E+00
  53.0000   0.40956673E+00  -0.16815131E+03   0.16944786E+01   0.86474233E-02   0.66657324E+00   0.66516331E+00
  54.0000   0.39923262E+00  -0.16642120E+03   0.17450374E+01   0.95718924E-02   0.66656470E+00   0.66488380E+00
  55.0000   0.38818803E+00  -0.16464978E+03   0.18082142E+01   0.10782038E-01   0.66655469E+00   0.66450809E+00
  56.0000   0.37608902E+00  -0.16281201E+03   0.18926707E+01   0.12496080E-01   0.66654242E+00   0.66396298E+00
  57.0000   0.36242274E+00  -0.16088199E+03   0.19767912E+01   0.14698048E-01   0.66652899E+00   0.66319627E+00
  58.0000   0.34684479E+00  -0.15883603E+03   0.21066868E+01   0.18055227E-01   0.66651083E+00   0.66196404E+00
  59.0000   0.32852113E+00  -0.15665848E+03   0.22837132E+01   0.23512278E-01   0.66648707E+00   0.65984321E+00
  60.0000   0.30514342E+00  -0.15424894E+03   0.26000807E+01   0.34723247E-01   0.66644869E+00   0.65524346E+00
  61.0000   0.27074036E+00  -0.15139423E+03   0.31219174E+01   0.64803213E-01   0.66638585E+00   0.64150532E+00
  62.0000   0.22214203E+00  -0.14826427E+03   0.30397805E+01   0.10445675E+00   0.66637097E+00   0.60825304E+00
  63.0000   0.17580823E+00  -0.14562553E+03   0.22351358E+01   0.10800851E+00   0.66643363E+00   0.56717765E+00
  64.0000   0.14473767E+00  -0.14368168E+03   0.17061285E+01   0.91248448E-01   0.66647836E+00   0.53755756E+00
  65.0000   0.12396264E+00  -0.14210181E+03   0.14746688E+01   0.76001134E-01   0.66649519E+00   0.51493083E+00
  66.0000   0.10926208E+00  -0.14069911E+03   0.13435421E+01   0.62960690E-01   0.66650244E+00   0.49883419E+00
  67.0000   0.98690370E-01  -0.13939499E+03   0.12649016E+01   0.53272253E-01   0.66650436E+00   0.48745636E+00
  68.0000   0.90484298E-01  -0.13815777E+03   0.12108635E+01   0.45948157E-01   0.66650378E+00   0.47766910E+00
  69.0000   0.84000885E-01  -0.13697918E+03   0.11645065E+01   0.39613031E-01   0.66650259E+00   0.47378402E+00
  70.0000   0.78564930E-01  -0.13582870E+03   0.11341149E+01   0.34786105E-01   0.66649942E+00   0.46862402E+00
  71.0000   0.74085569E-01  -0.13470812E+03   0.10982515E+01   0.30992583E-01   0.66649728E+00   0.46482071E+00
  72.0000   0.70286554E-01  -0.13362827E+03   0.10700941E+01   0.27813897E-01   0.66649419E+00   0.46110540E+00
  73.0000   0.67017145E-01  -0.13256961E+03   0.10409511E+01   0.25102830E-01   0.66649143E+00   0.45933514E+00
  74.0000   0.64363044E-01  -0.13154209E+03   0.10204362E+01   0.23002422E-01   0.66648738E+00   0.45706919E+00
  75.0000   0.61874489E-01  -0.13053209E+03   0.99596657E+00   0.21101306E-01   0.66648413E+00   0.45534826E+00
  76.0000   0.59636040E-01  -0.12954423E+03   0.97923222E+00   0.19348802E-01   0.66647958E+00   0.45500409E+00
  77.0000   0.57671719E-01  -0.12857420E+03   0.96113838E+00   0.17892199E-01   0.66647530E+00   0.45443165E+00
  78.0000   0.55955615E-01  -0.12762482E+03   0.94006965E+00   0.16717736E-01   0.66647174E+00   0.45224789E+00
  79.0000   0.54293905E-01  -0.12669533E+03   0.92375362E+00   0.15560996E-01   0.66646730E+00   0.45240604E+00
  80.0000   0.52917802E-01  -0.12577732E+03   0.90675970E+00   0.14605807E-01   0.66646303E+00   0.45171918E+00
  81.0000   0.51555529E-01  -0.12488074E+03   0.89055898E+00   0.13779509E-01   0.66645870E+00   0.45073919E+00
  82.0000   0.50310107E-01  -0.12399494E+03   0.87652746E+00   0.12970577E-01   0.66645388E+00   0.44998677E+00
  83.0000   0.49121485E-01  -0.12312934E+03   0.86427223E+00   0.12181721E-01   0.66644868E+00   0.45102978E+00
  84.0000   0.48112843E-01  -0.12227287E+03   0.84690858E+00   0.11571137E-01   0.66644479E+00   0.45006569E+00
  85.0000   0.46992060E-01  -0.12143060E+03   0.83758086E+00   0.10974630E-01   0.66643886E+00   0.44861610E+00
