 #written on 25Nov2024 at 12:08:00 
 #----------------- MONTECARLO -------------------#
 #        M                      P(M)             #
 #------------------------------------------------#
 #T=     0.5000
  -0.20000000E+01           0.00000000E+00
  -0.19900000E+01           0.00000000E+00
  -0.19800000E+01           0.00000000E+00
  -0.19700000E+01           0.00000000E+00
  -0.19600000E+01           0.00000000E+00
  -0.19500000E+01           0.00000000E+00
  -0.19400000E+01           0.00000000E+00
  -0.19300000E+01           0.00000000E+00
  -0.19200000E+01           0.00000000E+00
  -0.19100000E+01           0.00000000E+00
  -0.19000000E+01           0.00000000E+00
  -0.18900000E+01           0.00000000E+00
  -0.18800000E+01           0.00000000E+00
  -0.18700000E+01           0.00000000E+00
  -0.18600000E+01           0.00000000E+00
  -0.18500000E+01           0.00000000E+00
  -0.18400000E+01           0.00000000E+00
  -0.18300000E+01           0.00000000E+00
  -0.18200000E+01           0.00000000E+00
  -0.18100000E+01           0.00000000E+00
  -0.18000000E+01           0.00000000E+00
  -0.17900000E+01           0.00000000E+00
  -0.17800000E+01           0.00000000E+00
  -0.17700000E+01           0.00000000E+00
  -0.17600000E+01           0.00000000E+00
  -0.17500000E+01           0.00000000E+00
  -0.17400000E+01           0.00000000E+00
  -0.17300000E+01           0.00000000E+00
  -0.17200000E+01           0.00000000E+00
  -0.17100000E+01           0.00000000E+00
  -0.17000000E+01           0.00000000E+00
  -0.16900000E+01           0.00000000E+00
  -0.16800000E+01           0.00000000E+00
  -0.16700000E+01           0.00000000E+00
  -0.16600000E+01           0.00000000E+00
  -0.16500000E+01           0.00000000E+00
  -0.16400000E+01           0.00000000E+00
  -0.16300000E+01           0.00000000E+00
  -0.16200000E+01           0.00000000E+00
  -0.16100000E+01           0.00000000E+00
  -0.16000000E+01           0.00000000E+00
  -0.15900000E+01           0.00000000E+00
  -0.15800000E+01           0.00000000E+00
  -0.15700000E+01           0.00000000E+00
  -0.15600000E+01           0.00000000E+00
  -0.15500000E+01           0.00000000E+00
  -0.15400000E+01           0.00000000E+00
  -0.15300000E+01           0.00000000E+00
  -0.15200000E+01           0.00000000E+00
  -0.15100000E+01           0.00000000E+00
  -0.15000000E+01           0.00000000E+00
  -0.14900000E+01           0.00000000E+00
  -0.14800000E+01           0.00000000E+00
  -0.14700000E+01           0.00000000E+00
  -0.14600000E+01           0.00000000E+00
  -0.14500000E+01           0.00000000E+00
  -0.14400000E+01           0.00000000E+00
  -0.14300000E+01           0.00000000E+00
  -0.14200000E+01           0.00000000E+00
  -0.14100000E+01           0.00000000E+00
  -0.14000000E+01           0.00000000E+00
  -0.13900000E+01           0.00000000E+00
  -0.13800000E+01           0.00000000E+00
  -0.13700000E+01           0.00000000E+00
  -0.13600000E+01           0.00000000E+00
  -0.13500000E+01           0.00000000E+00
  -0.13400000E+01           0.00000000E+00
  -0.13300000E+01           0.00000000E+00
  -0.13200000E+01           0.00000000E+00
  -0.13100000E+01           0.00000000E+00
  -0.13000000E+01           0.00000000E+00
  -0.12900000E+01           0.00000000E+00
  -0.12800000E+01           0.00000000E+00
  -0.12700000E+01           0.00000000E+00
  -0.12600000E+01           0.00000000E+00
  -0.12500000E+01           0.00000000E+00
  -0.12400000E+01           0.00000000E+00
  -0.12300000E+01           0.00000000E+00
  -0.12200000E+01           0.00000000E+00
  -0.12100000E+01           0.00000000E+00
  -0.12000000E+01           0.00000000E+00
  -0.11900000E+01           0.00000000E+00
  -0.11800000E+01           0.00000000E+00
  -0.11700000E+01           0.00000000E+00
  -0.11600000E+01           0.00000000E+00
  -0.11500000E+01           0.00000000E+00
  -0.11400000E+01           0.00000000E+00
  -0.11300000E+01           0.00000000E+00
  -0.11200000E+01           0.00000000E+00
  -0.11100000E+01           0.00000000E+00
  -0.11000000E+01           0.00000000E+00
  -0.10900000E+01           0.00000000E+00
  -0.10800000E+01           0.00000000E+00
  -0.10700000E+01           0.00000000E+00
  -0.10600000E+01           0.00000000E+00
  -0.10500000E+01           0.00000000E+00
  -0.10400000E+01           0.00000000E+00
  -0.10300000E+01           0.00000000E+00
  -0.10200000E+01           0.00000000E+00
  -0.10100000E+01           0.00000000E+00
  -0.10000000E+01           0.00000000E+00
  -0.99000000E+00           0.00000000E+00
  -0.98000000E+00           0.00000000E+00
  -0.97000000E+00           0.00000000E+00
  -0.96000000E+00           0.00000000E+00
  -0.95000000E+00           0.00000000E+00
  -0.94000000E+00           0.00000000E+00
  -0.93000000E+00           0.00000000E+00
  -0.92000000E+00           0.00000000E+00
  -0.91000000E+00           0.00000000E+00
  -0.90000000E+00           0.00000000E+00
  -0.89000000E+00           0.00000000E+00
  -0.88000000E+00           0.00000000E+00
  -0.87000000E+00           0.00000000E+00
  -0.86000000E+00           0.00000000E+00
  -0.85000000E+00           0.00000000E+00
  -0.84000000E+00           0.00000000E+00
  -0.83000000E+00           0.00000000E+00
  -0.82000000E+00           0.00000000E+00
  -0.81000000E+00           0.00000000E+00
  -0.80000000E+00           0.00000000E+00
  -0.79000000E+00           0.00000000E+00
  -0.78000000E+00           0.00000000E+00
  -0.77000000E+00           0.00000000E+00
  -0.76000000E+00           0.00000000E+00
  -0.75000000E+00           0.00000000E+00
  -0.74000000E+00           0.00000000E+00
  -0.73000000E+00           0.00000000E+00
  -0.72000000E+00           0.00000000E+00
  -0.71000000E+00           0.00000000E+00
  -0.70000000E+00           0.00000000E+00
  -0.69000000E+00           0.00000000E+00
  -0.68000000E+00           0.00000000E+00
  -0.67000000E+00           0.00000000E+00
  -0.66000000E+00           0.00000000E+00
  -0.65000000E+00           0.00000000E+00
  -0.64000000E+00           0.00000000E+00
  -0.63000000E+00           0.00000000E+00
  -0.62000000E+00           0.00000000E+00
  -0.61000000E+00           0.00000000E+00
  -0.60000000E+00           0.00000000E+00
  -0.59000000E+00           0.00000000E+00
  -0.58000000E+00           0.00000000E+00
  -0.57000000E+00           0.00000000E+00
  -0.56000000E+00           0.00000000E+00
  -0.55000000E+00           0.00000000E+00
  -0.54000000E+00           0.00000000E+00
  -0.53000000E+00           0.00000000E+00
  -0.52000000E+00           0.00000000E+00
  -0.51000000E+00           0.00000000E+00
  -0.50000000E+00           0.00000000E+00
  -0.49000000E+00           0.00000000E+00
  -0.48000000E+00           0.00000000E+00
  -0.47000000E+00           0.00000000E+00
  -0.46000000E+00           0.00000000E+00
  -0.45000000E+00           0.00000000E+00
  -0.44000000E+00           0.00000000E+00
  -0.43000000E+00           0.00000000E+00
  -0.42000000E+00           0.00000000E+00
  -0.41000000E+00           0.00000000E+00
  -0.40000000E+00           0.00000000E+00
  -0.39000000E+00           0.00000000E+00
  -0.38000000E+00           0.00000000E+00
  -0.37000000E+00           0.00000000E+00
  -0.36000000E+00           0.00000000E+00
  -0.35000000E+00           0.00000000E+00
  -0.34000000E+00           0.00000000E+00
  -0.33000000E+00           0.00000000E+00
  -0.32000000E+00           0.00000000E+00
  -0.31000000E+00           0.00000000E+00
  -0.30000000E+00           0.00000000E+00
  -0.29000000E+00           0.00000000E+00
  -0.28000000E+00           0.00000000E+00
  -0.27000000E+00           0.00000000E+00
  -0.26000000E+00           0.00000000E+00
  -0.25000000E+00           0.00000000E+00
  -0.24000000E+00           0.00000000E+00
  -0.23000000E+00           0.00000000E+00
  -0.22000000E+00           0.00000000E+00
  -0.21000000E+00           0.00000000E+00
  -0.20000000E+00           0.00000000E+00
  -0.19000000E+00           0.00000000E+00
  -0.18000000E+00           0.00000000E+00
  -0.17000000E+00           0.00000000E+00
  -0.16000000E+00           0.00000000E+00
  -0.15000000E+00           0.00000000E+00
  -0.14000000E+00           0.00000000E+00
  -0.13000000E+00           0.00000000E+00
  -0.12000000E+00           0.00000000E+00
  -0.11000000E+00           0.00000000E+00
  -0.10000000E+00           0.00000000E+00
  -0.90000000E-01           0.00000000E+00
  -0.80000000E-01           0.00000000E+00
  -0.70000000E-01           0.00000000E+00
  -0.60000000E-01           0.00000000E+00
  -0.50000000E-01           0.00000000E+00
  -0.40000000E-01           0.00000000E+00
  -0.30000000E-01           0.00000000E+00
  -0.20000000E-01           0.00000000E+00
  -0.10000000E-01           0.00000000E+00
   0.00000000E+00           0.00000000E+00
   0.10000000E-01           0.00000000E+00
   0.20000000E-01           0.00000000E+00
   0.30000000E-01           0.00000000E+00
   0.40000000E-01           0.00000000E+00
   0.50000000E-01           0.00000000E+00
   0.60000000E-01           0.00000000E+00
   0.70000000E-01           0.00000000E+00
   0.80000000E-01           0.00000000E+00
   0.90000000E-01           0.00000000E+00
   0.10000000E+00           0.00000000E+00
   0.11000000E+00           0.00000000E+00
   0.12000000E+00           0.00000000E+00
   0.13000000E+00           0.00000000E+00
   0.14000000E+00           0.00000000E+00
   0.15000000E+00           0.28344671E-07
   0.16000000E+00           0.00000000E+00
   0.17000000E+00           0.00000000E+00
   0.18000000E+00           0.85034014E-07
   0.19000000E+00           0.00000000E+00
   0.20000000E+00           0.00000000E+00
   0.21000000E+00           0.00000000E+00
   0.22000000E+00           0.56689342E-07
   0.23000000E+00           0.28344671E-07
   0.24000000E+00           0.14172336E-06
   0.25000000E+00           0.31179138E-06
   0.26000000E+00           0.25510204E-06
   0.27000000E+00           0.10487528E-05
   0.28000000E+00           0.73696145E-06
   0.29000000E+00           0.19841270E-05
   0.30000000E+00           0.22392290E-05
   0.31000000E+00           0.33730159E-05
   0.32000000E+00           0.34580499E-05
   0.33000000E+00           0.50453515E-05
   0.34000000E+00           0.70011338E-05
   0.35000000E+00           0.83900227E-05
   0.36000000E+00           0.15759637E-04
   0.37000000E+00           0.17828798E-04
   0.38000000E+00           0.28344671E-04
   0.39000000E+00           0.33900227E-04
   0.40000000E+00           0.51077098E-04
   0.41000000E+00           0.69614512E-04
   0.42000000E+00           0.93395692E-04
   0.43000000E+00           0.11077098E-03
   0.44000000E+00           0.15541383E-03
   0.45000000E+00           0.19384921E-03
   0.46000000E+00           0.26360544E-03
   0.47000000E+00           0.34889456E-03
   0.48000000E+00           0.44764739E-03
   0.49000000E+00           0.57814626E-03
   0.50000000E+00           0.76541950E-03
   0.51000000E+00           0.93557256E-03
   0.52000000E+00           0.12058390E-02
   0.53000000E+00           0.15864229E-02
   0.54000000E+00           0.20233844E-02
   0.55000000E+00           0.24994615E-02
   0.56000000E+00           0.31520692E-02
   0.57000000E+00           0.40124150E-02
   0.58000000E+00           0.49901361E-02
   0.59000000E+00           0.62237528E-02
   0.60000000E+00           0.75897676E-02
   0.61000000E+00           0.94398526E-02
   0.62000000E+00           0.11509637E-01
   0.63000000E+00           0.14189824E-01
   0.64000000E+00           0.17132001E-01
   0.65000000E+00           0.20697307E-01
   0.66000000E+00           0.25061933E-01
   0.67000000E+00           0.29982143E-01
   0.68000000E+00           0.35719473E-01
   0.69000000E+00           0.42601729E-01
   0.70000000E+00           0.50469700E-01
   0.71000000E+00           0.59392517E-01
   0.72000000E+00           0.69550680E-01
   0.73000000E+00           0.81504875E-01
   0.74000000E+00           0.95181236E-01
   0.75000000E+00           0.11005697E+00
   0.76000000E+00           0.12692596E+00
   0.77000000E+00           0.14637543E+00
   0.78000000E+00           0.16707234E+00
   0.79000000E+00           0.19050675E+00
   0.80000000E+00           0.21663710E+00
   0.81000000E+00           0.24444116E+00
   0.82000000E+00           0.27480377E+00
   0.83000000E+00           0.30823319E+00
   0.84000000E+00           0.34432885E+00
   0.85000000E+00           0.38333543E+00
   0.86000000E+00           0.42393617E+00
   0.87000000E+00           0.46646502E+00
   0.88000000E+00           0.51228299E+00
   0.89000000E+00           0.56072885E+00
   0.90000000E+00           0.60981599E+00
   0.91000000E+00           0.66132837E+00
   0.92000000E+00           0.71314688E+00
   0.93000000E+00           0.76880785E+00
   0.94000000E+00           0.82345981E+00
   0.95000000E+00           0.87940944E+00
   0.96000000E+00           0.93316701E+00
   0.97000000E+00           0.98937871E+00
   0.98000000E+00           0.10426522E+01
   0.99000000E+00           0.10961256E+01
   0.10000000E+01           0.11482122E+01
   0.10100000E+01           0.11976877E+01
   0.10200000E+01           0.12450122E+01
   0.10300000E+01           0.12906277E+01
   0.10400000E+01           0.13318989E+01
   0.10500000E+01           0.13725995E+01
   0.10600000E+01           0.14066556E+01
   0.10700000E+01           0.14401874E+01
   0.10800000E+01           0.14686164E+01
   0.10900000E+01           0.14958756E+01
   0.11000000E+01           0.15171744E+01
   0.11100000E+01           0.15380746E+01
   0.11200000E+01           0.15548507E+01
   0.11300000E+01           0.15670782E+01
   0.11400000E+01           0.15769253E+01
   0.11500000E+01           0.15854054E+01
   0.11600000E+01           0.15910654E+01
   0.11700000E+01           0.15960228E+01
   0.11800000E+01           0.15969906E+01
   0.11900000E+01           0.15995823E+01
   0.12000000E+01           0.15988836E+01
   0.12100000E+01           0.15993895E+01
   0.12200000E+01           0.16027861E+01
   0.12300000E+01           0.16000862E+01
   0.12400000E+01           0.16008781E+01
   0.12500000E+01           0.16011556E+01
   0.12600000E+01           0.16018386E+01
   0.12700000E+01           0.16022948E+01
   0.12800000E+01           0.16035784E+01
   0.12900000E+01           0.16040486E+01
   0.13000000E+01           0.16066686E+01
   0.13100000E+01           0.16071088E+01
   0.13200000E+01           0.16063969E+01
   0.13300000E+01           0.16068810E+01
   0.13400000E+01           0.16043266E+01
   0.13500000E+01           0.16010052E+01
   0.13600000E+01           0.15967243E+01
   0.13700000E+01           0.15878166E+01
   0.13800000E+01           0.15800164E+01
   0.13900000E+01           0.15625442E+01
   0.14000000E+01           0.15471564E+01
   0.14100000E+01           0.15234997E+01
   0.14200000E+01           0.15000555E+01
   0.14300000E+01           0.14682202E+01
   0.14400000E+01           0.14338094E+01
   0.14500000E+01           0.13958255E+01
   0.14600000E+01           0.13518345E+01
   0.14700000E+01           0.13043471E+01
   0.14800000E+01           0.12495575E+01
   0.14900000E+01           0.11941891E+01
   0.15000000E+01           0.11334522E+01
   0.15100000E+01           0.10702416E+01
   0.15200000E+01           0.10051463E+01
   0.15300000E+01           0.93682463E+00
   0.15400000E+01           0.86857925E+00
   0.15500000E+01           0.79888912E+00
   0.15600000E+01           0.73083739E+00
   0.15700000E+01           0.66307423E+00
   0.15800000E+01           0.59867914E+00
   0.15900000E+01           0.53480363E+00
   0.16000000E+01           0.47459963E+00
   0.16100000E+01           0.41712832E+00
   0.16200000E+01           0.36359425E+00
   0.16300000E+01           0.31419759E+00
   0.16400000E+01           0.26883591E+00
   0.16500000E+01           0.22795323E+00
   0.16600000E+01           0.19126040E+00
   0.16700000E+01           0.15846851E+00
   0.16800000E+01           0.12985111E+00
   0.16900000E+01           0.10532554E+00
   0.17000000E+01           0.84441213E-01
   0.17100000E+01           0.66924263E-01
   0.17200000E+01           0.52032370E-01
   0.17300000E+01           0.40121145E-01
   0.17400000E+01           0.30552636E-01
   0.17500000E+01           0.22721400E-01
   0.17600000E+01           0.16828600E-01
   0.17700000E+01           0.12066327E-01
   0.17800000E+01           0.85872449E-02
   0.17900000E+01           0.59227608E-02
   0.18000000E+01           0.40232426E-02
   0.18100000E+01           0.27075680E-02
   0.18200000E+01           0.17984694E-02
   0.18300000E+01           0.11527211E-02
   0.18400000E+01           0.70702948E-03
   0.18500000E+01           0.41700680E-03
   0.18600000E+01           0.23582766E-03
   0.18700000E+01           0.13370181E-03
   0.18800000E+01           0.72193878E-04
   0.18900000E+01           0.35487528E-04
   0.19000000E+01           0.17006803E-04
   0.19100000E+01           0.72278912E-05
   0.19200000E+01           0.32312925E-05
   0.19300000E+01           0.15873016E-05
   0.19400000E+01           0.28344671E-06
   0.19500000E+01           0.14172336E-06
   0.19600000E+01           0.28344671E-07
   0.19700000E+01           0.17006803E-06
   0.19800000E+01           0.00000000E+00
   0.19900000E+01           0.00000000E+00
   0.20000000E+01           0.00000000E+00
 #T=     1.0000
  -0.20000000E+01           0.00000000E+00
  -0.19900000E+01           0.00000000E+00
  -0.19800000E+01           0.00000000E+00
  -0.19700000E+01           0.00000000E+00
  -0.19600000E+01           0.00000000E+00
  -0.19500000E+01           0.00000000E+00
  -0.19400000E+01           0.00000000E+00
  -0.19300000E+01           0.00000000E+00
  -0.19200000E+01           0.00000000E+00
  -0.19100000E+01           0.00000000E+00
  -0.19000000E+01           0.00000000E+00
  -0.18900000E+01           0.00000000E+00
  -0.18800000E+01           0.00000000E+00
  -0.18700000E+01           0.00000000E+00
  -0.18600000E+01           0.00000000E+00
  -0.18500000E+01           0.00000000E+00
  -0.18400000E+01           0.00000000E+00
  -0.18300000E+01           0.00000000E+00
  -0.18200000E+01           0.00000000E+00
  -0.18100000E+01           0.00000000E+00
  -0.18000000E+01           0.00000000E+00
  -0.17900000E+01           0.00000000E+00
  -0.17800000E+01           0.00000000E+00
  -0.17700000E+01           0.00000000E+00
  -0.17600000E+01           0.00000000E+00
  -0.17500000E+01           0.00000000E+00
  -0.17400000E+01           0.00000000E+00
  -0.17300000E+01           0.00000000E+00
  -0.17200000E+01           0.00000000E+00
  -0.17100000E+01           0.00000000E+00
  -0.17000000E+01           0.00000000E+00
  -0.16900000E+01           0.00000000E+00
  -0.16800000E+01           0.00000000E+00
  -0.16700000E+01           0.00000000E+00
  -0.16600000E+01           0.00000000E+00
  -0.16500000E+01           0.00000000E+00
  -0.16400000E+01           0.00000000E+00
  -0.16300000E+01           0.00000000E+00
  -0.16200000E+01           0.00000000E+00
  -0.16100000E+01           0.00000000E+00
  -0.16000000E+01           0.00000000E+00
  -0.15900000E+01           0.00000000E+00
  -0.15800000E+01           0.00000000E+00
  -0.15700000E+01           0.00000000E+00
  -0.15600000E+01           0.00000000E+00
  -0.15500000E+01           0.00000000E+00
  -0.15400000E+01           0.00000000E+00
  -0.15300000E+01           0.00000000E+00
  -0.15200000E+01           0.00000000E+00
  -0.15100000E+01           0.00000000E+00
  -0.15000000E+01           0.00000000E+00
  -0.14900000E+01           0.00000000E+00
  -0.14800000E+01           0.00000000E+00
  -0.14700000E+01           0.00000000E+00
  -0.14600000E+01           0.00000000E+00
  -0.14500000E+01           0.00000000E+00
  -0.14400000E+01           0.00000000E+00
  -0.14300000E+01           0.00000000E+00
  -0.14200000E+01           0.00000000E+00
  -0.14100000E+01           0.00000000E+00
  -0.14000000E+01           0.00000000E+00
  -0.13900000E+01           0.00000000E+00
  -0.13800000E+01           0.00000000E+00
  -0.13700000E+01           0.00000000E+00
  -0.13600000E+01           0.00000000E+00
  -0.13500000E+01           0.00000000E+00
  -0.13400000E+01           0.00000000E+00
  -0.13300000E+01           0.00000000E+00
  -0.13200000E+01           0.00000000E+00
  -0.13100000E+01           0.00000000E+00
  -0.13000000E+01           0.00000000E+00
  -0.12900000E+01           0.00000000E+00
  -0.12800000E+01           0.00000000E+00
  -0.12700000E+01           0.00000000E+00
  -0.12600000E+01           0.00000000E+00
  -0.12500000E+01           0.00000000E+00
  -0.12400000E+01           0.00000000E+00
  -0.12300000E+01           0.00000000E+00
  -0.12200000E+01           0.00000000E+00
  -0.12100000E+01           0.00000000E+00
  -0.12000000E+01           0.00000000E+00
  -0.11900000E+01           0.00000000E+00
  -0.11800000E+01           0.00000000E+00
  -0.11700000E+01           0.00000000E+00
  -0.11600000E+01           0.00000000E+00
  -0.11500000E+01           0.00000000E+00
  -0.11400000E+01           0.00000000E+00
  -0.11300000E+01           0.00000000E+00
  -0.11200000E+01           0.00000000E+00
  -0.11100000E+01           0.00000000E+00
  -0.11000000E+01           0.00000000E+00
  -0.10900000E+01           0.00000000E+00
  -0.10800000E+01           0.00000000E+00
  -0.10700000E+01           0.00000000E+00
  -0.10600000E+01           0.00000000E+00
  -0.10500000E+01           0.00000000E+00
  -0.10400000E+01           0.00000000E+00
  -0.10300000E+01           0.00000000E+00
  -0.10200000E+01           0.00000000E+00
  -0.10100000E+01           0.00000000E+00
  -0.10000000E+01           0.00000000E+00
  -0.99000000E+00           0.00000000E+00
  -0.98000000E+00           0.00000000E+00
  -0.97000000E+00           0.00000000E+00
  -0.96000000E+00           0.00000000E+00
  -0.95000000E+00           0.00000000E+00
  -0.94000000E+00           0.00000000E+00
  -0.93000000E+00           0.00000000E+00
  -0.92000000E+00           0.00000000E+00
  -0.91000000E+00           0.00000000E+00
  -0.90000000E+00           0.00000000E+00
  -0.89000000E+00           0.00000000E+00
  -0.88000000E+00           0.00000000E+00
  -0.87000000E+00           0.00000000E+00
  -0.86000000E+00           0.00000000E+00
  -0.85000000E+00           0.00000000E+00
  -0.84000000E+00           0.00000000E+00
  -0.83000000E+00           0.00000000E+00
  -0.82000000E+00           0.00000000E+00
  -0.81000000E+00           0.00000000E+00
  -0.80000000E+00           0.00000000E+00
  -0.79000000E+00           0.00000000E+00
  -0.78000000E+00           0.00000000E+00
  -0.77000000E+00           0.00000000E+00
  -0.76000000E+00           0.00000000E+00
  -0.75000000E+00           0.00000000E+00
  -0.74000000E+00           0.00000000E+00
  -0.73000000E+00           0.00000000E+00
  -0.72000000E+00           0.00000000E+00
  -0.71000000E+00           0.00000000E+00
  -0.70000000E+00           0.00000000E+00
  -0.69000000E+00           0.00000000E+00
  -0.68000000E+00           0.00000000E+00
  -0.67000000E+00           0.00000000E+00
  -0.66000000E+00           0.00000000E+00
  -0.65000000E+00           0.00000000E+00
  -0.64000000E+00           0.00000000E+00
  -0.63000000E+00           0.00000000E+00
  -0.62000000E+00           0.00000000E+00
  -0.61000000E+00           0.00000000E+00
  -0.60000000E+00           0.00000000E+00
  -0.59000000E+00           0.00000000E+00
  -0.58000000E+00           0.00000000E+00
  -0.57000000E+00           0.00000000E+00
  -0.56000000E+00           0.00000000E+00
  -0.55000000E+00           0.00000000E+00
  -0.54000000E+00           0.00000000E+00
  -0.53000000E+00           0.00000000E+00
  -0.52000000E+00           0.00000000E+00
  -0.51000000E+00           0.00000000E+00
  -0.50000000E+00           0.00000000E+00
  -0.49000000E+00           0.00000000E+00
  -0.48000000E+00           0.00000000E+00
  -0.47000000E+00           0.00000000E+00
  -0.46000000E+00           0.00000000E+00
  -0.45000000E+00           0.00000000E+00
  -0.44000000E+00           0.00000000E+00
  -0.43000000E+00           0.00000000E+00
  -0.42000000E+00           0.00000000E+00
  -0.41000000E+00           0.00000000E+00
  -0.40000000E+00           0.00000000E+00
  -0.39000000E+00           0.00000000E+00
  -0.38000000E+00           0.00000000E+00
  -0.37000000E+00           0.00000000E+00
  -0.36000000E+00           0.00000000E+00
  -0.35000000E+00           0.00000000E+00
  -0.34000000E+00           0.00000000E+00
  -0.33000000E+00           0.00000000E+00
  -0.32000000E+00           0.00000000E+00
  -0.31000000E+00           0.00000000E+00
  -0.30000000E+00           0.00000000E+00
  -0.29000000E+00           0.00000000E+00
  -0.28000000E+00           0.00000000E+00
  -0.27000000E+00           0.00000000E+00
  -0.26000000E+00           0.00000000E+00
  -0.25000000E+00           0.00000000E+00
  -0.24000000E+00           0.00000000E+00
  -0.23000000E+00           0.00000000E+00
  -0.22000000E+00           0.00000000E+00
  -0.21000000E+00           0.00000000E+00
  -0.20000000E+00           0.00000000E+00
  -0.19000000E+00           0.00000000E+00
  -0.18000000E+00           0.00000000E+00
  -0.17000000E+00           0.00000000E+00
  -0.16000000E+00           0.00000000E+00
  -0.15000000E+00           0.00000000E+00
  -0.14000000E+00           0.00000000E+00
  -0.13000000E+00           0.00000000E+00
  -0.12000000E+00           0.00000000E+00
  -0.11000000E+00           0.00000000E+00
  -0.10000000E+00           0.00000000E+00
  -0.90000000E-01           0.00000000E+00
  -0.80000000E-01           0.00000000E+00
  -0.70000000E-01           0.00000000E+00
  -0.60000000E-01           0.00000000E+00
  -0.50000000E-01           0.00000000E+00
  -0.40000000E-01           0.00000000E+00
  -0.30000000E-01           0.00000000E+00
  -0.20000000E-01           0.00000000E+00
  -0.10000000E-01           0.00000000E+00
   0.00000000E+00           0.32755952E-02
   0.10000000E-01           0.25912585E-01
   0.20000000E-01           0.52295777E-01
   0.30000000E-01           0.77874093E-01
   0.40000000E-01           0.10357902E+00
   0.50000000E-01           0.12908906E+00
   0.60000000E-01           0.15400170E+00
   0.70000000E-01           0.17908279E+00
   0.80000000E-01           0.20328141E+00
   0.90000000E-01           0.22779184E+00
   0.10000000E+00           0.25076035E+00
   0.11000000E+00           0.27385533E+00
   0.12000000E+00           0.29620972E+00
   0.13000000E+00           0.31738274E+00
   0.14000000E+00           0.33825238E+00
   0.15000000E+00           0.35840113E+00
   0.16000000E+00           0.37797134E+00
   0.17000000E+00           0.39707228E+00
   0.18000000E+00           0.41402942E+00
   0.19000000E+00           0.43095507E+00
   0.20000000E+00           0.44635510E+00
   0.21000000E+00           0.46110547E+00
   0.22000000E+00           0.47481094E+00
   0.23000000E+00           0.48930054E+00
   0.24000000E+00           0.50026134E+00
   0.25000000E+00           0.51095334E+00
   0.26000000E+00           0.52082208E+00
   0.27000000E+00           0.53075947E+00
   0.28000000E+00           0.53714320E+00
   0.29000000E+00           0.54434717E+00
   0.30000000E+00           0.55082874E+00
   0.31000000E+00           0.55491874E+00
   0.32000000E+00           0.56018968E+00
   0.33000000E+00           0.56254680E+00
   0.34000000E+00           0.56466828E+00
   0.35000000E+00           0.56575128E+00
   0.36000000E+00           0.56596105E+00
   0.37000000E+00           0.56550867E+00
   0.38000000E+00           0.56428441E+00
   0.39000000E+00           0.56166749E+00
   0.40000000E+00           0.55904161E+00
   0.41000000E+00           0.55579209E+00
   0.42000000E+00           0.55139620E+00
   0.43000000E+00           0.54676616E+00
   0.44000000E+00           0.54106800E+00
   0.45000000E+00           0.53589249E+00
   0.46000000E+00           0.52953501E+00
   0.47000000E+00           0.52287528E+00
   0.48000000E+00           0.51578387E+00
   0.49000000E+00           0.50828537E+00
   0.50000000E+00           0.50054039E+00
   0.51000000E+00           0.49284320E+00
   0.52000000E+00           0.48527046E+00
   0.53000000E+00           0.47691800E+00
   0.54000000E+00           0.46858407E+00
   0.55000000E+00           0.45996511E+00
   0.56000000E+00           0.45202871E+00
   0.57000000E+00           0.44339050E+00
   0.58000000E+00           0.43526100E+00
   0.59000000E+00           0.42766111E+00
   0.60000000E+00           0.41874189E+00
   0.61000000E+00           0.41069546E+00
   0.62000000E+00           0.40308189E+00
   0.63000000E+00           0.39567721E+00
   0.64000000E+00           0.38799683E+00
   0.65000000E+00           0.38039683E+00
   0.66000000E+00           0.37385561E+00
   0.67000000E+00           0.36671499E+00
   0.68000000E+00           0.36027996E+00
   0.69000000E+00           0.35435737E+00
   0.70000000E+00           0.34819657E+00
   0.71000000E+00           0.34205762E+00
   0.72000000E+00           0.33744739E+00
   0.73000000E+00           0.33203566E+00
   0.74000000E+00           0.32777588E+00
   0.75000000E+00           0.32283410E+00
   0.76000000E+00           0.31900082E+00
   0.77000000E+00           0.31509634E+00
   0.78000000E+00           0.31199728E+00
   0.79000000E+00           0.30956800E+00
   0.80000000E+00           0.30664164E+00
   0.81000000E+00           0.30419340E+00
   0.82000000E+00           0.30217409E+00
   0.83000000E+00           0.30044878E+00
   0.84000000E+00           0.29951499E+00
   0.85000000E+00           0.29876173E+00
   0.86000000E+00           0.29849093E+00
   0.87000000E+00           0.29820074E+00
   0.88000000E+00           0.29844464E+00
   0.89000000E+00           0.29879005E+00
   0.90000000E+00           0.30020488E+00
   0.91000000E+00           0.30164952E+00
   0.92000000E+00           0.30269991E+00
   0.93000000E+00           0.30552715E+00
   0.94000000E+00           0.30747310E+00
   0.95000000E+00           0.31040700E+00
   0.96000000E+00           0.31354246E+00
   0.97000000E+00           0.31658228E+00
   0.98000000E+00           0.31982979E+00
   0.99000000E+00           0.32407684E+00
   0.10000000E+01           0.32883733E+00
   0.10100000E+01           0.33244011E+00
   0.10200000E+01           0.33702452E+00
   0.10300000E+01           0.34147730E+00
   0.10400000E+01           0.34669606E+00
   0.10500000E+01           0.35160819E+00
   0.10600000E+01           0.35777205E+00
   0.10700000E+01           0.36245422E+00
   0.10800000E+01           0.36787937E+00
   0.10900000E+01           0.37361715E+00
   0.11000000E+01           0.37844297E+00
   0.11100000E+01           0.38395845E+00
   0.11200000E+01           0.39008390E+00
   0.11300000E+01           0.39477372E+00
   0.11400000E+01           0.40029161E+00
   0.11500000E+01           0.40483098E+00
   0.11600000E+01           0.40982460E+00
   0.11700000E+01           0.41445354E+00
   0.11800000E+01           0.41868852E+00
   0.11900000E+01           0.42290082E+00
   0.12000000E+01           0.42718061E+00
   0.12100000E+01           0.43016729E+00
   0.12200000E+01           0.43344467E+00
   0.12300000E+01           0.43616522E+00
   0.12400000E+01           0.43785368E+00
   0.12500000E+01           0.44031247E+00
   0.12600000E+01           0.44158639E+00
   0.12700000E+01           0.44234833E+00
   0.12800000E+01           0.44254215E+00
   0.12900000E+01           0.44299028E+00
   0.13000000E+01           0.44245765E+00
   0.13100000E+01           0.44162565E+00
   0.13200000E+01           0.44074385E+00
   0.13300000E+01           0.43855425E+00
   0.13400000E+01           0.43697783E+00
   0.13500000E+01           0.43379991E+00
   0.13600000E+01           0.43088554E+00
   0.13700000E+01           0.42707160E+00
   0.13800000E+01           0.42311545E+00
   0.13900000E+01           0.41990706E+00
   0.14000000E+01           0.41577639E+00
   0.14100000E+01           0.41088790E+00
   0.14200000E+01           0.40594317E+00
   0.14300000E+01           0.40119790E+00
   0.14400000E+01           0.39644875E+00
   0.14500000E+01           0.39128940E+00
   0.14600000E+01           0.38675224E+00
   0.14700000E+01           0.38193041E+00
   0.14800000E+01           0.37648832E+00
   0.14900000E+01           0.37210598E+00
   0.15000000E+01           0.36718036E+00
   0.15100000E+01           0.36283396E+00
   0.15200000E+01           0.35815332E+00
   0.15300000E+01           0.35492333E+00
   0.15400000E+01           0.35122713E+00
   0.15500000E+01           0.34826193E+00
   0.15600000E+01           0.34557730E+00
   0.15700000E+01           0.34351179E+00
   0.15800000E+01           0.34174187E+00
   0.15900000E+01           0.34046335E+00
   0.16000000E+01           0.33970479E+00
   0.16100000E+01           0.34041984E+00
   0.16200000E+01           0.34116777E+00
   0.16300000E+01           0.34265689E+00
   0.16400000E+01           0.34481412E+00
   0.16500000E+01           0.34862205E+00
   0.16600000E+01           0.35212905E+00
   0.16700000E+01           0.35742526E+00
   0.16800000E+01           0.36319989E+00
   0.16900000E+01           0.36997418E+00
   0.17000000E+01           0.37885609E+00
   0.17100000E+01           0.38765564E+00
   0.17200000E+01           0.39878464E+00
   0.17300000E+01           0.41215048E+00
   0.17400000E+01           0.42569388E+00
   0.17500000E+01           0.44216012E+00
   0.17600000E+01           0.46052228E+00
   0.17700000E+01           0.48099816E+00
   0.17800000E+01           0.50522098E+00
   0.17900000E+01           0.53285306E+00
   0.18000000E+01           0.56353294E+00
   0.18100000E+01           0.59902412E+00
   0.18200000E+01           0.63861840E+00
   0.18300000E+01           0.68386122E+00
   0.18400000E+01           0.73586885E+00
   0.18500000E+01           0.79475510E+00
   0.18600000E+01           0.86098373E+00
   0.18700000E+01           0.93749932E+00
   0.18800000E+01           0.10239932E+01
   0.18900000E+01           0.11222555E+01
   0.19000000E+01           0.12333891E+01
   0.19100000E+01           0.13594168E+01
   0.19200000E+01           0.15018038E+01
   0.19300000E+01           0.16634850E+01
   0.19400000E+01           0.18437310E+01
   0.19500000E+01           0.20449925E+01
   0.19600000E+01           0.22671277E+01
   0.19700000E+01           0.25156411E+01
   0.19800000E+01           0.27873152E+01
   0.19900000E+01           0.30822855E+01
   0.20000000E+01           0.16573130E+01
 #T=     1.5000
  -0.20000000E+01           0.00000000E+00
  -0.19900000E+01           0.00000000E+00
  -0.19800000E+01           0.00000000E+00
  -0.19700000E+01           0.00000000E+00
  -0.19600000E+01           0.00000000E+00
  -0.19500000E+01           0.00000000E+00
  -0.19400000E+01           0.00000000E+00
  -0.19300000E+01           0.00000000E+00
  -0.19200000E+01           0.00000000E+00
  -0.19100000E+01           0.00000000E+00
  -0.19000000E+01           0.00000000E+00
  -0.18900000E+01           0.00000000E+00
  -0.18800000E+01           0.00000000E+00
  -0.18700000E+01           0.00000000E+00
  -0.18600000E+01           0.00000000E+00
  -0.18500000E+01           0.00000000E+00
  -0.18400000E+01           0.00000000E+00
  -0.18300000E+01           0.00000000E+00
  -0.18200000E+01           0.00000000E+00
  -0.18100000E+01           0.00000000E+00
  -0.18000000E+01           0.00000000E+00
  -0.17900000E+01           0.00000000E+00
  -0.17800000E+01           0.00000000E+00
  -0.17700000E+01           0.00000000E+00
  -0.17600000E+01           0.00000000E+00
  -0.17500000E+01           0.00000000E+00
  -0.17400000E+01           0.00000000E+00
  -0.17300000E+01           0.00000000E+00
  -0.17200000E+01           0.00000000E+00
  -0.17100000E+01           0.00000000E+00
  -0.17000000E+01           0.00000000E+00
  -0.16900000E+01           0.00000000E+00
  -0.16800000E+01           0.00000000E+00
  -0.16700000E+01           0.00000000E+00
  -0.16600000E+01           0.00000000E+00
  -0.16500000E+01           0.00000000E+00
  -0.16400000E+01           0.00000000E+00
  -0.16300000E+01           0.00000000E+00
  -0.16200000E+01           0.00000000E+00
  -0.16100000E+01           0.00000000E+00
  -0.16000000E+01           0.00000000E+00
  -0.15900000E+01           0.00000000E+00
  -0.15800000E+01           0.00000000E+00
  -0.15700000E+01           0.00000000E+00
  -0.15600000E+01           0.00000000E+00
  -0.15500000E+01           0.00000000E+00
  -0.15400000E+01           0.00000000E+00
  -0.15300000E+01           0.00000000E+00
  -0.15200000E+01           0.00000000E+00
  -0.15100000E+01           0.00000000E+00
  -0.15000000E+01           0.00000000E+00
  -0.14900000E+01           0.00000000E+00
  -0.14800000E+01           0.00000000E+00
  -0.14700000E+01           0.00000000E+00
  -0.14600000E+01           0.00000000E+00
  -0.14500000E+01           0.00000000E+00
  -0.14400000E+01           0.00000000E+00
  -0.14300000E+01           0.00000000E+00
  -0.14200000E+01           0.00000000E+00
  -0.14100000E+01           0.00000000E+00
  -0.14000000E+01           0.00000000E+00
  -0.13900000E+01           0.00000000E+00
  -0.13800000E+01           0.00000000E+00
  -0.13700000E+01           0.00000000E+00
  -0.13600000E+01           0.00000000E+00
  -0.13500000E+01           0.00000000E+00
  -0.13400000E+01           0.00000000E+00
  -0.13300000E+01           0.00000000E+00
  -0.13200000E+01           0.00000000E+00
  -0.13100000E+01           0.00000000E+00
  -0.13000000E+01           0.00000000E+00
  -0.12900000E+01           0.00000000E+00
  -0.12800000E+01           0.00000000E+00
  -0.12700000E+01           0.00000000E+00
  -0.12600000E+01           0.00000000E+00
  -0.12500000E+01           0.00000000E+00
  -0.12400000E+01           0.00000000E+00
  -0.12300000E+01           0.00000000E+00
  -0.12200000E+01           0.00000000E+00
  -0.12100000E+01           0.00000000E+00
  -0.12000000E+01           0.00000000E+00
  -0.11900000E+01           0.00000000E+00
  -0.11800000E+01           0.00000000E+00
  -0.11700000E+01           0.00000000E+00
  -0.11600000E+01           0.00000000E+00
  -0.11500000E+01           0.00000000E+00
  -0.11400000E+01           0.00000000E+00
  -0.11300000E+01           0.00000000E+00
  -0.11200000E+01           0.00000000E+00
  -0.11100000E+01           0.00000000E+00
  -0.11000000E+01           0.00000000E+00
  -0.10900000E+01           0.00000000E+00
  -0.10800000E+01           0.00000000E+00
  -0.10700000E+01           0.00000000E+00
  -0.10600000E+01           0.00000000E+00
  -0.10500000E+01           0.00000000E+00
  -0.10400000E+01           0.00000000E+00
  -0.10300000E+01           0.00000000E+00
  -0.10200000E+01           0.00000000E+00
  -0.10100000E+01           0.00000000E+00
  -0.10000000E+01           0.00000000E+00
  -0.99000000E+00           0.00000000E+00
  -0.98000000E+00           0.00000000E+00
  -0.97000000E+00           0.00000000E+00
  -0.96000000E+00           0.00000000E+00
  -0.95000000E+00           0.00000000E+00
  -0.94000000E+00           0.00000000E+00
  -0.93000000E+00           0.00000000E+00
  -0.92000000E+00           0.00000000E+00
  -0.91000000E+00           0.00000000E+00
  -0.90000000E+00           0.00000000E+00
  -0.89000000E+00           0.00000000E+00
  -0.88000000E+00           0.00000000E+00
  -0.87000000E+00           0.00000000E+00
  -0.86000000E+00           0.00000000E+00
  -0.85000000E+00           0.00000000E+00
  -0.84000000E+00           0.00000000E+00
  -0.83000000E+00           0.00000000E+00
  -0.82000000E+00           0.00000000E+00
  -0.81000000E+00           0.00000000E+00
  -0.80000000E+00           0.00000000E+00
  -0.79000000E+00           0.00000000E+00
  -0.78000000E+00           0.00000000E+00
  -0.77000000E+00           0.00000000E+00
  -0.76000000E+00           0.00000000E+00
  -0.75000000E+00           0.00000000E+00
  -0.74000000E+00           0.00000000E+00
  -0.73000000E+00           0.00000000E+00
  -0.72000000E+00           0.00000000E+00
  -0.71000000E+00           0.00000000E+00
  -0.70000000E+00           0.00000000E+00
  -0.69000000E+00           0.00000000E+00
  -0.68000000E+00           0.00000000E+00
  -0.67000000E+00           0.00000000E+00
  -0.66000000E+00           0.00000000E+00
  -0.65000000E+00           0.00000000E+00
  -0.64000000E+00           0.00000000E+00
  -0.63000000E+00           0.00000000E+00
  -0.62000000E+00           0.00000000E+00
  -0.61000000E+00           0.00000000E+00
  -0.60000000E+00           0.00000000E+00
  -0.59000000E+00           0.00000000E+00
  -0.58000000E+00           0.00000000E+00
  -0.57000000E+00           0.00000000E+00
  -0.56000000E+00           0.00000000E+00
  -0.55000000E+00           0.00000000E+00
  -0.54000000E+00           0.00000000E+00
  -0.53000000E+00           0.00000000E+00
  -0.52000000E+00           0.00000000E+00
  -0.51000000E+00           0.00000000E+00
  -0.50000000E+00           0.00000000E+00
  -0.49000000E+00           0.00000000E+00
  -0.48000000E+00           0.00000000E+00
  -0.47000000E+00           0.00000000E+00
  -0.46000000E+00           0.00000000E+00
  -0.45000000E+00           0.00000000E+00
  -0.44000000E+00           0.00000000E+00
  -0.43000000E+00           0.00000000E+00
  -0.42000000E+00           0.00000000E+00
  -0.41000000E+00           0.00000000E+00
  -0.40000000E+00           0.00000000E+00
  -0.39000000E+00           0.00000000E+00
  -0.38000000E+00           0.00000000E+00
  -0.37000000E+00           0.00000000E+00
  -0.36000000E+00           0.00000000E+00
  -0.35000000E+00           0.00000000E+00
  -0.34000000E+00           0.00000000E+00
  -0.33000000E+00           0.00000000E+00
  -0.32000000E+00           0.00000000E+00
  -0.31000000E+00           0.00000000E+00
  -0.30000000E+00           0.00000000E+00
  -0.29000000E+00           0.00000000E+00
  -0.28000000E+00           0.00000000E+00
  -0.27000000E+00           0.00000000E+00
  -0.26000000E+00           0.00000000E+00
  -0.25000000E+00           0.00000000E+00
  -0.24000000E+00           0.00000000E+00
  -0.23000000E+00           0.00000000E+00
  -0.22000000E+00           0.00000000E+00
  -0.21000000E+00           0.00000000E+00
  -0.20000000E+00           0.00000000E+00
  -0.19000000E+00           0.00000000E+00
  -0.18000000E+00           0.00000000E+00
  -0.17000000E+00           0.00000000E+00
  -0.16000000E+00           0.00000000E+00
  -0.15000000E+00           0.00000000E+00
  -0.14000000E+00           0.00000000E+00
  -0.13000000E+00           0.00000000E+00
  -0.12000000E+00           0.00000000E+00
  -0.11000000E+00           0.00000000E+00
  -0.10000000E+00           0.00000000E+00
  -0.90000000E-01           0.00000000E+00
  -0.80000000E-01           0.00000000E+00
  -0.70000000E-01           0.00000000E+00
  -0.60000000E-01           0.00000000E+00
  -0.50000000E-01           0.00000000E+00
  -0.40000000E-01           0.00000000E+00
  -0.30000000E-01           0.00000000E+00
  -0.20000000E-01           0.00000000E+00
  -0.10000000E-01           0.00000000E+00
   0.00000000E+00           0.34013605E-05
   0.10000000E-01           0.27607710E-04
   0.20000000E-01           0.56717687E-04
   0.30000000E-01           0.88151927E-04
   0.40000000E-01           0.12244898E-03
   0.50000000E-01           0.15705782E-03
   0.60000000E-01           0.19543651E-03
   0.70000000E-01           0.23446712E-03
   0.80000000E-01           0.28662132E-03
   0.90000000E-01           0.34702381E-03
   0.10000000E+00           0.40600907E-03
   0.11000000E+00           0.48132086E-03
   0.12000000E+00           0.56292517E-03
   0.13000000E+00           0.65144558E-03
   0.14000000E+00           0.77344104E-03
   0.15000000E+00           0.91278345E-03
   0.16000000E+00           0.10344671E-02
   0.17000000E+00           0.12220238E-02
   0.18000000E+00           0.13996315E-02
   0.19000000E+00           0.16031746E-02
   0.20000000E+00           0.18455215E-02
   0.21000000E+00           0.21212302E-02
   0.22000000E+00           0.24369048E-02
   0.23000000E+00           0.27717687E-02
   0.24000000E+00           0.31930556E-02
   0.25000000E+00           0.36027494E-02
   0.26000000E+00           0.40892290E-02
   0.27000000E+00           0.46557540E-02
   0.28000000E+00           0.52635771E-02
   0.29000000E+00           0.59640873E-02
   0.30000000E+00           0.67168934E-02
   0.31000000E+00           0.75840136E-02
   0.32000000E+00           0.84943311E-02
   0.33000000E+00           0.95991213E-02
   0.34000000E+00           0.10719926E-01
   0.35000000E+00           0.11989144E-01
   0.36000000E+00           0.13447732E-01
   0.37000000E+00           0.15040873E-01
   0.38000000E+00           0.16755357E-01
   0.39000000E+00           0.18556661E-01
   0.40000000E+00           0.20716185E-01
   0.41000000E+00           0.22960969E-01
   0.42000000E+00           0.25510601E-01
   0.43000000E+00           0.28176389E-01
   0.44000000E+00           0.31106859E-01
   0.45000000E+00           0.34257511E-01
   0.46000000E+00           0.37819104E-01
   0.47000000E+00           0.41315391E-01
   0.48000000E+00           0.45610119E-01
   0.49000000E+00           0.49919388E-01
   0.50000000E+00           0.54713861E-01
   0.51000000E+00           0.60049802E-01
   0.52000000E+00           0.65337018E-01
   0.53000000E+00           0.71390476E-01
   0.54000000E+00           0.77840590E-01
   0.55000000E+00           0.84605244E-01
   0.56000000E+00           0.91855471E-01
   0.57000000E+00           0.99796967E-01
   0.58000000E+00           0.10785527E+00
   0.59000000E+00           0.11695896E+00
   0.60000000E+00           0.12610221E+00
   0.61000000E+00           0.13615618E+00
   0.62000000E+00           0.14673784E+00
   0.63000000E+00           0.15796443E+00
   0.64000000E+00           0.16942885E+00
   0.65000000E+00           0.18218078E+00
   0.66000000E+00           0.19480184E+00
   0.67000000E+00           0.20859138E+00
   0.68000000E+00           0.22276207E+00
   0.69000000E+00           0.23814768E+00
   0.70000000E+00           0.25399683E+00
   0.71000000E+00           0.27037752E+00
   0.72000000E+00           0.28716145E+00
   0.73000000E+00           0.30541995E+00
   0.74000000E+00           0.32379918E+00
   0.75000000E+00           0.34269762E+00
   0.76000000E+00           0.36266122E+00
   0.77000000E+00           0.38319493E+00
   0.78000000E+00           0.40467001E+00
   0.79000000E+00           0.42609172E+00
   0.80000000E+00           0.44849912E+00
   0.81000000E+00           0.47164867E+00
   0.82000000E+00           0.49530371E+00
   0.83000000E+00           0.51910612E+00
   0.84000000E+00           0.54383362E+00
   0.85000000E+00           0.56891256E+00
   0.86000000E+00           0.59361613E+00
   0.87000000E+00           0.62036978E+00
   0.88000000E+00           0.64621202E+00
   0.89000000E+00           0.67276018E+00
   0.90000000E+00           0.69931071E+00
   0.91000000E+00           0.72548892E+00
   0.92000000E+00           0.75404544E+00
   0.93000000E+00           0.78033866E+00
   0.94000000E+00           0.80762035E+00
   0.95000000E+00           0.83566925E+00
   0.96000000E+00           0.86260649E+00
   0.97000000E+00           0.88922577E+00
   0.98000000E+00           0.91611352E+00
   0.99000000E+00           0.94306023E+00
   0.10000000E+01           0.96897732E+00
   0.10100000E+01           0.99536522E+00
   0.10200000E+01           0.10206943E+01
   0.10300000E+01           0.10459326E+01
   0.10400000E+01           0.10703917E+01
   0.10500000E+01           0.10938588E+01
   0.10600000E+01           0.11174929E+01
   0.10700000E+01           0.11389617E+01
   0.10800000E+01           0.11611761E+01
   0.10900000E+01           0.11809085E+01
   0.11000000E+01           0.12021379E+01
   0.11100000E+01           0.12209001E+01
   0.11200000E+01           0.12396246E+01
   0.11300000E+01           0.12563678E+01
   0.11400000E+01           0.12725945E+01
   0.11500000E+01           0.12881103E+01
   0.11600000E+01           0.13021640E+01
   0.11700000E+01           0.13141227E+01
   0.11800000E+01           0.13263708E+01
   0.11900000E+01           0.13367881E+01
   0.12000000E+01           0.13466827E+01
   0.12100000E+01           0.13554212E+01
   0.12200000E+01           0.13603208E+01
   0.12300000E+01           0.13675848E+01
   0.12400000E+01           0.13721598E+01
   0.12500000E+01           0.13746495E+01
   0.12600000E+01           0.13759791E+01
   0.12700000E+01           0.13763658E+01
   0.12800000E+01           0.13750970E+01
   0.12900000E+01           0.13723156E+01
   0.13000000E+01           0.13693792E+01
   0.13100000E+01           0.13635340E+01
   0.13200000E+01           0.13576147E+01
   0.13300000E+01           0.13497238E+01
   0.13400000E+01           0.13397143E+01
   0.13500000E+01           0.13284486E+01
   0.13600000E+01           0.13167811E+01
   0.13700000E+01           0.13045412E+01
   0.13800000E+01           0.12892195E+01
   0.13900000E+01           0.12739346E+01
   0.14000000E+01           0.12567268E+01
   0.14100000E+01           0.12369598E+01
   0.14200000E+01           0.12179227E+01
   0.14300000E+01           0.11957965E+01
   0.14400000E+01           0.11739209E+01
   0.14500000E+01           0.11504026E+01
   0.14600000E+01           0.11255466E+01
   0.14700000E+01           0.11002402E+01
   0.14800000E+01           0.10734991E+01
   0.14900000E+01           0.10455173E+01
   0.15000000E+01           0.10167469E+01
   0.15100000E+01           0.98709167E+00
   0.15200000E+01           0.95668889E+00
   0.15300000E+01           0.92635377E+00
   0.15400000E+01           0.89422803E+00
   0.15500000E+01           0.86172282E+00
   0.15600000E+01           0.82917622E+00
   0.15700000E+01           0.79587837E+00
   0.15800000E+01           0.76248537E+00
   0.15900000E+01           0.72892287E+00
   0.16000000E+01           0.69429195E+00
   0.16100000E+01           0.66057534E+00
   0.16200000E+01           0.62745468E+00
   0.16300000E+01           0.59313722E+00
   0.16400000E+01           0.56057710E+00
   0.16500000E+01           0.52728433E+00
   0.16600000E+01           0.49447395E+00
   0.16700000E+01           0.46286650E+00
   0.16800000E+01           0.43145607E+00
   0.16900000E+01           0.40069589E+00
   0.17000000E+01           0.37201630E+00
   0.17100000E+01           0.34268209E+00
   0.17200000E+01           0.31515680E+00
   0.17300000E+01           0.28817285E+00
   0.17400000E+01           0.26309887E+00
   0.17500000E+01           0.23885672E+00
   0.17600000E+01           0.21580354E+00
   0.17700000E+01           0.19404459E+00
   0.17800000E+01           0.17343095E+00
   0.17900000E+01           0.15409152E+00
   0.18000000E+01           0.13619478E+00
   0.18100000E+01           0.11969181E+00
   0.18200000E+01           0.10414736E+00
   0.18300000E+01           0.90338407E-01
   0.18400000E+01           0.77623980E-01
   0.18500000E+01           0.66143141E-01
   0.18600000E+01           0.55786480E-01
   0.18700000E+01           0.46338662E-01
   0.18800000E+01           0.38350198E-01
   0.18900000E+01           0.31118793E-01
   0.19000000E+01           0.25013605E-01
   0.19100000E+01           0.19767971E-01
   0.19200000E+01           0.15308503E-01
   0.19300000E+01           0.11647562E-01
   0.19400000E+01           0.85740079E-02
   0.19500000E+01           0.61185091E-02
   0.19600000E+01           0.41857426E-02
   0.19700000E+01           0.26976757E-02
   0.19800000E+01           0.16004252E-02
   0.19900000E+01           0.84101474E-03
   0.20000000E+01           0.21405896E-03
 #T=     2.0000
  -0.20000000E+01           0.00000000E+00
  -0.19900000E+01           0.00000000E+00
  -0.19800000E+01           0.00000000E+00
  -0.19700000E+01           0.00000000E+00
  -0.19600000E+01           0.00000000E+00
  -0.19500000E+01           0.00000000E+00
  -0.19400000E+01           0.00000000E+00
  -0.19300000E+01           0.00000000E+00
  -0.19200000E+01           0.00000000E+00
  -0.19100000E+01           0.00000000E+00
  -0.19000000E+01           0.00000000E+00
  -0.18900000E+01           0.00000000E+00
  -0.18800000E+01           0.00000000E+00
  -0.18700000E+01           0.00000000E+00
  -0.18600000E+01           0.00000000E+00
  -0.18500000E+01           0.00000000E+00
  -0.18400000E+01           0.00000000E+00
  -0.18300000E+01           0.00000000E+00
  -0.18200000E+01           0.00000000E+00
  -0.18100000E+01           0.00000000E+00
  -0.18000000E+01           0.00000000E+00
  -0.17900000E+01           0.00000000E+00
  -0.17800000E+01           0.00000000E+00
  -0.17700000E+01           0.00000000E+00
  -0.17600000E+01           0.00000000E+00
  -0.17500000E+01           0.00000000E+00
  -0.17400000E+01           0.00000000E+00
  -0.17300000E+01           0.00000000E+00
  -0.17200000E+01           0.00000000E+00
  -0.17100000E+01           0.00000000E+00
  -0.17000000E+01           0.00000000E+00
  -0.16900000E+01           0.00000000E+00
  -0.16800000E+01           0.00000000E+00
  -0.16700000E+01           0.00000000E+00
  -0.16600000E+01           0.00000000E+00
  -0.16500000E+01           0.00000000E+00
  -0.16400000E+01           0.00000000E+00
  -0.16300000E+01           0.00000000E+00
  -0.16200000E+01           0.00000000E+00
  -0.16100000E+01           0.00000000E+00
  -0.16000000E+01           0.00000000E+00
  -0.15900000E+01           0.00000000E+00
  -0.15800000E+01           0.00000000E+00
  -0.15700000E+01           0.00000000E+00
  -0.15600000E+01           0.00000000E+00
  -0.15500000E+01           0.00000000E+00
  -0.15400000E+01           0.00000000E+00
  -0.15300000E+01           0.00000000E+00
  -0.15200000E+01           0.00000000E+00
  -0.15100000E+01           0.00000000E+00
  -0.15000000E+01           0.00000000E+00
  -0.14900000E+01           0.00000000E+00
  -0.14800000E+01           0.00000000E+00
  -0.14700000E+01           0.00000000E+00
  -0.14600000E+01           0.00000000E+00
  -0.14500000E+01           0.00000000E+00
  -0.14400000E+01           0.00000000E+00
  -0.14300000E+01           0.00000000E+00
  -0.14200000E+01           0.00000000E+00
  -0.14100000E+01           0.00000000E+00
  -0.14000000E+01           0.00000000E+00
  -0.13900000E+01           0.00000000E+00
  -0.13800000E+01           0.00000000E+00
  -0.13700000E+01           0.00000000E+00
  -0.13600000E+01           0.00000000E+00
  -0.13500000E+01           0.00000000E+00
  -0.13400000E+01           0.00000000E+00
  -0.13300000E+01           0.00000000E+00
  -0.13200000E+01           0.00000000E+00
  -0.13100000E+01           0.00000000E+00
  -0.13000000E+01           0.00000000E+00
  -0.12900000E+01           0.00000000E+00
  -0.12800000E+01           0.00000000E+00
  -0.12700000E+01           0.00000000E+00
  -0.12600000E+01           0.00000000E+00
  -0.12500000E+01           0.00000000E+00
  -0.12400000E+01           0.00000000E+00
  -0.12300000E+01           0.00000000E+00
  -0.12200000E+01           0.00000000E+00
  -0.12100000E+01           0.00000000E+00
  -0.12000000E+01           0.00000000E+00
  -0.11900000E+01           0.00000000E+00
  -0.11800000E+01           0.00000000E+00
  -0.11700000E+01           0.00000000E+00
  -0.11600000E+01           0.00000000E+00
  -0.11500000E+01           0.00000000E+00
  -0.11400000E+01           0.00000000E+00
  -0.11300000E+01           0.00000000E+00
  -0.11200000E+01           0.00000000E+00
  -0.11100000E+01           0.00000000E+00
  -0.11000000E+01           0.00000000E+00
  -0.10900000E+01           0.00000000E+00
  -0.10800000E+01           0.00000000E+00
  -0.10700000E+01           0.00000000E+00
  -0.10600000E+01           0.00000000E+00
  -0.10500000E+01           0.00000000E+00
  -0.10400000E+01           0.00000000E+00
  -0.10300000E+01           0.00000000E+00
  -0.10200000E+01           0.00000000E+00
  -0.10100000E+01           0.00000000E+00
  -0.10000000E+01           0.00000000E+00
  -0.99000000E+00           0.00000000E+00
  -0.98000000E+00           0.00000000E+00
  -0.97000000E+00           0.00000000E+00
  -0.96000000E+00           0.00000000E+00
  -0.95000000E+00           0.00000000E+00
  -0.94000000E+00           0.00000000E+00
  -0.93000000E+00           0.00000000E+00
  -0.92000000E+00           0.00000000E+00
  -0.91000000E+00           0.00000000E+00
  -0.90000000E+00           0.00000000E+00
  -0.89000000E+00           0.00000000E+00
  -0.88000000E+00           0.00000000E+00
  -0.87000000E+00           0.00000000E+00
  -0.86000000E+00           0.00000000E+00
  -0.85000000E+00           0.00000000E+00
  -0.84000000E+00           0.00000000E+00
  -0.83000000E+00           0.00000000E+00
  -0.82000000E+00           0.00000000E+00
  -0.81000000E+00           0.00000000E+00
  -0.80000000E+00           0.00000000E+00
  -0.79000000E+00           0.00000000E+00
  -0.78000000E+00           0.00000000E+00
  -0.77000000E+00           0.00000000E+00
  -0.76000000E+00           0.00000000E+00
  -0.75000000E+00           0.00000000E+00
  -0.74000000E+00           0.00000000E+00
  -0.73000000E+00           0.00000000E+00
  -0.72000000E+00           0.00000000E+00
  -0.71000000E+00           0.00000000E+00
  -0.70000000E+00           0.00000000E+00
  -0.69000000E+00           0.00000000E+00
  -0.68000000E+00           0.00000000E+00
  -0.67000000E+00           0.00000000E+00
  -0.66000000E+00           0.00000000E+00
  -0.65000000E+00           0.00000000E+00
  -0.64000000E+00           0.00000000E+00
  -0.63000000E+00           0.00000000E+00
  -0.62000000E+00           0.00000000E+00
  -0.61000000E+00           0.00000000E+00
  -0.60000000E+00           0.00000000E+00
  -0.59000000E+00           0.00000000E+00
  -0.58000000E+00           0.00000000E+00
  -0.57000000E+00           0.00000000E+00
  -0.56000000E+00           0.00000000E+00
  -0.55000000E+00           0.00000000E+00
  -0.54000000E+00           0.00000000E+00
  -0.53000000E+00           0.00000000E+00
  -0.52000000E+00           0.00000000E+00
  -0.51000000E+00           0.00000000E+00
  -0.50000000E+00           0.00000000E+00
  -0.49000000E+00           0.00000000E+00
  -0.48000000E+00           0.00000000E+00
  -0.47000000E+00           0.00000000E+00
  -0.46000000E+00           0.00000000E+00
  -0.45000000E+00           0.00000000E+00
  -0.44000000E+00           0.00000000E+00
  -0.43000000E+00           0.00000000E+00
  -0.42000000E+00           0.00000000E+00
  -0.41000000E+00           0.00000000E+00
  -0.40000000E+00           0.00000000E+00
  -0.39000000E+00           0.00000000E+00
  -0.38000000E+00           0.00000000E+00
  -0.37000000E+00           0.00000000E+00
  -0.36000000E+00           0.00000000E+00
  -0.35000000E+00           0.00000000E+00
  -0.34000000E+00           0.00000000E+00
  -0.33000000E+00           0.00000000E+00
  -0.32000000E+00           0.00000000E+00
  -0.31000000E+00           0.00000000E+00
  -0.30000000E+00           0.00000000E+00
  -0.29000000E+00           0.00000000E+00
  -0.28000000E+00           0.00000000E+00
  -0.27000000E+00           0.00000000E+00
  -0.26000000E+00           0.00000000E+00
  -0.25000000E+00           0.00000000E+00
  -0.24000000E+00           0.00000000E+00
  -0.23000000E+00           0.00000000E+00
  -0.22000000E+00           0.00000000E+00
  -0.21000000E+00           0.00000000E+00
  -0.20000000E+00           0.00000000E+00
  -0.19000000E+00           0.00000000E+00
  -0.18000000E+00           0.00000000E+00
  -0.17000000E+00           0.00000000E+00
  -0.16000000E+00           0.00000000E+00
  -0.15000000E+00           0.00000000E+00
  -0.14000000E+00           0.00000000E+00
  -0.13000000E+00           0.00000000E+00
  -0.12000000E+00           0.00000000E+00
  -0.11000000E+00           0.00000000E+00
  -0.10000000E+00           0.00000000E+00
  -0.90000000E-01           0.00000000E+00
  -0.80000000E-01           0.00000000E+00
  -0.70000000E-01           0.00000000E+00
  -0.60000000E-01           0.00000000E+00
  -0.50000000E-01           0.00000000E+00
  -0.40000000E-01           0.00000000E+00
  -0.30000000E-01           0.00000000E+00
  -0.20000000E-01           0.00000000E+00
  -0.10000000E-01           0.00000000E+00
   0.00000000E+00           0.23286848E-02
   0.10000000E-01           0.18654422E-01
   0.20000000E-01           0.37439512E-01
   0.30000000E-01           0.55964739E-01
   0.40000000E-01           0.74584892E-01
   0.50000000E-01           0.92867687E-01
   0.60000000E-01           0.11128036E+00
   0.70000000E-01           0.12929141E+00
   0.80000000E-01           0.14730346E+00
   0.90000000E-01           0.16494070E+00
   0.10000000E+00           0.18235190E+00
   0.11000000E+00           0.19959189E+00
   0.12000000E+00           0.21642355E+00
   0.13000000E+00           0.23282234E+00
   0.14000000E+00           0.24901760E+00
   0.15000000E+00           0.26480261E+00
   0.16000000E+00           0.27994578E+00
   0.17000000E+00           0.29550232E+00
   0.18000000E+00           0.31002012E+00
   0.19000000E+00           0.32360615E+00
   0.20000000E+00           0.33768342E+00
   0.21000000E+00           0.35079014E+00
   0.22000000E+00           0.36335799E+00
   0.23000000E+00           0.37529507E+00
   0.24000000E+00           0.38742630E+00
   0.25000000E+00           0.39826227E+00
   0.26000000E+00           0.40853455E+00
   0.27000000E+00           0.41905703E+00
   0.28000000E+00           0.42851516E+00
   0.29000000E+00           0.43738370E+00
   0.30000000E+00           0.44534198E+00
   0.31000000E+00           0.45325368E+00
   0.32000000E+00           0.46094793E+00
   0.33000000E+00           0.46788866E+00
   0.34000000E+00           0.47472038E+00
   0.35000000E+00           0.48009107E+00
   0.36000000E+00           0.48559351E+00
   0.37000000E+00           0.48941942E+00
   0.38000000E+00           0.49377469E+00
   0.39000000E+00           0.49723557E+00
   0.40000000E+00           0.50051233E+00
   0.41000000E+00           0.50311865E+00
   0.42000000E+00           0.50554870E+00
   0.43000000E+00           0.50642455E+00
   0.44000000E+00           0.50792908E+00
   0.45000000E+00           0.50891349E+00
   0.46000000E+00           0.50932004E+00
   0.47000000E+00           0.50902435E+00
   0.48000000E+00           0.50903200E+00
   0.49000000E+00           0.50794189E+00
   0.50000000E+00           0.50668611E+00
   0.51000000E+00           0.50480757E+00
   0.52000000E+00           0.50370306E+00
   0.53000000E+00           0.50188390E+00
   0.54000000E+00           0.49899912E+00
   0.55000000E+00           0.49624306E+00
   0.56000000E+00           0.49322429E+00
   0.57000000E+00           0.49081587E+00
   0.58000000E+00           0.48682826E+00
   0.59000000E+00           0.48427406E+00
   0.60000000E+00           0.48012687E+00
   0.61000000E+00           0.47690547E+00
   0.62000000E+00           0.47317372E+00
   0.63000000E+00           0.46896834E+00
   0.64000000E+00           0.46553277E+00
   0.65000000E+00           0.46100462E+00
   0.66000000E+00           0.45704997E+00
   0.67000000E+00           0.45318132E+00
   0.68000000E+00           0.44934609E+00
   0.69000000E+00           0.44508081E+00
   0.70000000E+00           0.44104308E+00
   0.71000000E+00           0.43669320E+00
   0.72000000E+00           0.43310045E+00
   0.73000000E+00           0.42944952E+00
   0.74000000E+00           0.42523421E+00
   0.75000000E+00           0.42099359E+00
   0.76000000E+00           0.41791667E+00
   0.77000000E+00           0.41393520E+00
   0.78000000E+00           0.41105760E+00
   0.79000000E+00           0.40713044E+00
   0.80000000E+00           0.40480388E+00
   0.81000000E+00           0.40161584E+00
   0.82000000E+00           0.39862279E+00
   0.83000000E+00           0.39593291E+00
   0.84000000E+00           0.39327934E+00
   0.85000000E+00           0.39144447E+00
   0.86000000E+00           0.38899906E+00
   0.87000000E+00           0.38687231E+00
   0.88000000E+00           0.38520374E+00
   0.89000000E+00           0.38344872E+00
   0.90000000E+00           0.38189345E+00
   0.91000000E+00           0.38104008E+00
   0.92000000E+00           0.37985865E+00
   0.93000000E+00           0.37842367E+00
   0.94000000E+00           0.37774643E+00
   0.95000000E+00           0.37704379E+00
   0.96000000E+00           0.37666020E+00
   0.97000000E+00           0.37610850E+00
   0.98000000E+00           0.37619535E+00
   0.99000000E+00           0.37584195E+00
   0.10000000E+01           0.37634379E+00
   0.10100000E+01           0.37627109E+00
   0.10200000E+01           0.37666865E+00
   0.10300000E+01           0.37670709E+00
   0.10400000E+01           0.37748126E+00
   0.10500000E+01           0.37837834E+00
   0.10600000E+01           0.37892925E+00
   0.10700000E+01           0.37954419E+00
   0.10800000E+01           0.38017163E+00
   0.10900000E+01           0.38130385E+00
   0.11000000E+01           0.38221706E+00
   0.11100000E+01           0.38305278E+00
   0.11200000E+01           0.38440360E+00
   0.11300000E+01           0.38550723E+00
   0.11400000E+01           0.38639603E+00
   0.11500000E+01           0.38763469E+00
   0.11600000E+01           0.38843084E+00
   0.11700000E+01           0.38950921E+00
   0.11800000E+01           0.39023353E+00
   0.11900000E+01           0.39173914E+00
   0.12000000E+01           0.39221497E+00
   0.12100000E+01           0.39333101E+00
   0.12200000E+01           0.39454014E+00
   0.12300000E+01           0.39535901E+00
   0.12400000E+01           0.39560904E+00
   0.12500000E+01           0.39664549E+00
   0.12600000E+01           0.39688022E+00
   0.12700000E+01           0.39794561E+00
   0.12800000E+01           0.39769572E+00
   0.12900000E+01           0.39843438E+00
   0.13000000E+01           0.39895663E+00
   0.13100000E+01           0.39901352E+00
   0.13200000E+01           0.39902565E+00
   0.13300000E+01           0.39957611E+00
   0.13400000E+01           0.39903586E+00
   0.13500000E+01           0.39938478E+00
   0.13600000E+01           0.39896823E+00
   0.13700000E+01           0.39888251E+00
   0.13800000E+01           0.39916670E+00
   0.13900000E+01           0.39845485E+00
   0.14000000E+01           0.39804518E+00
   0.14100000E+01           0.39811987E+00
   0.14200000E+01           0.39801236E+00
   0.14300000E+01           0.39720921E+00
   0.14400000E+01           0.39727557E+00
   0.14500000E+01           0.39654076E+00
   0.14600000E+01           0.39652098E+00
   0.14700000E+01           0.39620975E+00
   0.14800000E+01           0.39663793E+00
   0.14900000E+01           0.39659283E+00
   0.15000000E+01           0.39747809E+00
   0.15100000E+01           0.39800252E+00
   0.15200000E+01           0.39871939E+00
   0.15300000E+01           0.39966111E+00
   0.15400000E+01           0.40101338E+00
   0.15500000E+01           0.40246704E+00
   0.15600000E+01           0.40481403E+00
   0.15700000E+01           0.40639294E+00
   0.15800000E+01           0.40971661E+00
   0.15900000E+01           0.41340142E+00
   0.16000000E+01           0.41718330E+00
   0.16100000E+01           0.42132577E+00
   0.16200000E+01           0.42664697E+00
   0.16300000E+01           0.43216650E+00
   0.16400000E+01           0.43885550E+00
   0.16500000E+01           0.44620587E+00
   0.16600000E+01           0.45460524E+00
   0.16700000E+01           0.46394929E+00
   0.16800000E+01           0.47429272E+00
   0.16900000E+01           0.48590972E+00
   0.17000000E+01           0.49958625E+00
   0.17100000E+01           0.51346202E+00
   0.17200000E+01           0.52895334E+00
   0.17300000E+01           0.54637809E+00
   0.17400000E+01           0.56595255E+00
   0.17500000E+01           0.58724280E+00
   0.17600000E+01           0.60996307E+00
   0.17700000E+01           0.63491012E+00
   0.17800000E+01           0.66224093E+00
   0.17900000E+01           0.69308903E+00
   0.18000000E+01           0.72572851E+00
   0.18100000E+01           0.76152636E+00
   0.18200000E+01           0.79983126E+00
   0.18300000E+01           0.84244768E+00
   0.18400000E+01           0.88786825E+00
   0.18500000E+01           0.93787245E+00
   0.18600000E+01           0.99125723E+00
   0.18700000E+01           0.10500417E+01
   0.18800000E+01           0.11133845E+01
   0.18900000E+01           0.11813976E+01
   0.19000000E+01           0.12547200E+01
   0.19100000E+01           0.13350760E+01
   0.19200000E+01           0.14208352E+01
   0.19300000E+01           0.15129219E+01
   0.19400000E+01           0.16126657E+01
   0.19500000E+01           0.17195519E+01
   0.19600000E+01           0.18350743E+01
   0.19700000E+01           0.19584779E+01
   0.19800000E+01           0.20907749E+01
   0.19900000E+01           0.22333244E+01
   0.20000000E+01           0.11729264E+01
 #T=     2.5000
  -0.20000000E+01           0.00000000E+00
  -0.19900000E+01           0.00000000E+00
  -0.19800000E+01           0.00000000E+00
  -0.19700000E+01           0.00000000E+00
  -0.19600000E+01           0.00000000E+00
  -0.19500000E+01           0.00000000E+00
  -0.19400000E+01           0.00000000E+00
  -0.19300000E+01           0.00000000E+00
  -0.19200000E+01           0.00000000E+00
  -0.19100000E+01           0.00000000E+00
  -0.19000000E+01           0.00000000E+00
  -0.18900000E+01           0.00000000E+00
  -0.18800000E+01           0.00000000E+00
  -0.18700000E+01           0.00000000E+00
  -0.18600000E+01           0.00000000E+00
  -0.18500000E+01           0.00000000E+00
  -0.18400000E+01           0.00000000E+00
  -0.18300000E+01           0.00000000E+00
  -0.18200000E+01           0.00000000E+00
  -0.18100000E+01           0.00000000E+00
  -0.18000000E+01           0.00000000E+00
  -0.17900000E+01           0.00000000E+00
  -0.17800000E+01           0.00000000E+00
  -0.17700000E+01           0.00000000E+00
  -0.17600000E+01           0.00000000E+00
  -0.17500000E+01           0.00000000E+00
  -0.17400000E+01           0.00000000E+00
  -0.17300000E+01           0.00000000E+00
  -0.17200000E+01           0.00000000E+00
  -0.17100000E+01           0.00000000E+00
  -0.17000000E+01           0.00000000E+00
  -0.16900000E+01           0.00000000E+00
  -0.16800000E+01           0.00000000E+00
  -0.16700000E+01           0.00000000E+00
  -0.16600000E+01           0.00000000E+00
  -0.16500000E+01           0.00000000E+00
  -0.16400000E+01           0.00000000E+00
  -0.16300000E+01           0.00000000E+00
  -0.16200000E+01           0.00000000E+00
  -0.16100000E+01           0.00000000E+00
  -0.16000000E+01           0.00000000E+00
  -0.15900000E+01           0.00000000E+00
  -0.15800000E+01           0.00000000E+00
  -0.15700000E+01           0.00000000E+00
  -0.15600000E+01           0.00000000E+00
  -0.15500000E+01           0.00000000E+00
  -0.15400000E+01           0.00000000E+00
  -0.15300000E+01           0.00000000E+00
  -0.15200000E+01           0.00000000E+00
  -0.15100000E+01           0.00000000E+00
  -0.15000000E+01           0.00000000E+00
  -0.14900000E+01           0.00000000E+00
  -0.14800000E+01           0.00000000E+00
  -0.14700000E+01           0.00000000E+00
  -0.14600000E+01           0.00000000E+00
  -0.14500000E+01           0.00000000E+00
  -0.14400000E+01           0.00000000E+00
  -0.14300000E+01           0.00000000E+00
  -0.14200000E+01           0.00000000E+00
  -0.14100000E+01           0.00000000E+00
  -0.14000000E+01           0.00000000E+00
  -0.13900000E+01           0.00000000E+00
  -0.13800000E+01           0.00000000E+00
  -0.13700000E+01           0.00000000E+00
  -0.13600000E+01           0.00000000E+00
  -0.13500000E+01           0.00000000E+00
  -0.13400000E+01           0.00000000E+00
  -0.13300000E+01           0.00000000E+00
  -0.13200000E+01           0.00000000E+00
  -0.13100000E+01           0.00000000E+00
  -0.13000000E+01           0.00000000E+00
  -0.12900000E+01           0.00000000E+00
  -0.12800000E+01           0.00000000E+00
  -0.12700000E+01           0.00000000E+00
  -0.12600000E+01           0.00000000E+00
  -0.12500000E+01           0.00000000E+00
  -0.12400000E+01           0.00000000E+00
  -0.12300000E+01           0.00000000E+00
  -0.12200000E+01           0.00000000E+00
  -0.12100000E+01           0.00000000E+00
  -0.12000000E+01           0.00000000E+00
  -0.11900000E+01           0.00000000E+00
  -0.11800000E+01           0.00000000E+00
  -0.11700000E+01           0.00000000E+00
  -0.11600000E+01           0.00000000E+00
  -0.11500000E+01           0.00000000E+00
  -0.11400000E+01           0.00000000E+00
  -0.11300000E+01           0.00000000E+00
  -0.11200000E+01           0.00000000E+00
  -0.11100000E+01           0.00000000E+00
  -0.11000000E+01           0.00000000E+00
  -0.10900000E+01           0.00000000E+00
  -0.10800000E+01           0.00000000E+00
  -0.10700000E+01           0.00000000E+00
  -0.10600000E+01           0.00000000E+00
  -0.10500000E+01           0.00000000E+00
  -0.10400000E+01           0.00000000E+00
  -0.10300000E+01           0.00000000E+00
  -0.10200000E+01           0.00000000E+00
  -0.10100000E+01           0.00000000E+00
  -0.10000000E+01           0.00000000E+00
  -0.99000000E+00           0.00000000E+00
  -0.98000000E+00           0.00000000E+00
  -0.97000000E+00           0.00000000E+00
  -0.96000000E+00           0.00000000E+00
  -0.95000000E+00           0.00000000E+00
  -0.94000000E+00           0.00000000E+00
  -0.93000000E+00           0.00000000E+00
  -0.92000000E+00           0.00000000E+00
  -0.91000000E+00           0.00000000E+00
  -0.90000000E+00           0.00000000E+00
  -0.89000000E+00           0.00000000E+00
  -0.88000000E+00           0.00000000E+00
  -0.87000000E+00           0.00000000E+00
  -0.86000000E+00           0.00000000E+00
  -0.85000000E+00           0.00000000E+00
  -0.84000000E+00           0.00000000E+00
  -0.83000000E+00           0.00000000E+00
  -0.82000000E+00           0.00000000E+00
  -0.81000000E+00           0.00000000E+00
  -0.80000000E+00           0.00000000E+00
  -0.79000000E+00           0.00000000E+00
  -0.78000000E+00           0.00000000E+00
  -0.77000000E+00           0.00000000E+00
  -0.76000000E+00           0.00000000E+00
  -0.75000000E+00           0.00000000E+00
  -0.74000000E+00           0.00000000E+00
  -0.73000000E+00           0.00000000E+00
  -0.72000000E+00           0.00000000E+00
  -0.71000000E+00           0.00000000E+00
  -0.70000000E+00           0.00000000E+00
  -0.69000000E+00           0.00000000E+00
  -0.68000000E+00           0.00000000E+00
  -0.67000000E+00           0.00000000E+00
  -0.66000000E+00           0.00000000E+00
  -0.65000000E+00           0.00000000E+00
  -0.64000000E+00           0.00000000E+00
  -0.63000000E+00           0.00000000E+00
  -0.62000000E+00           0.00000000E+00
  -0.61000000E+00           0.00000000E+00
  -0.60000000E+00           0.00000000E+00
  -0.59000000E+00           0.00000000E+00
  -0.58000000E+00           0.00000000E+00
  -0.57000000E+00           0.00000000E+00
  -0.56000000E+00           0.00000000E+00
  -0.55000000E+00           0.00000000E+00
  -0.54000000E+00           0.00000000E+00
  -0.53000000E+00           0.00000000E+00
  -0.52000000E+00           0.00000000E+00
  -0.51000000E+00           0.00000000E+00
  -0.50000000E+00           0.00000000E+00
  -0.49000000E+00           0.00000000E+00
  -0.48000000E+00           0.00000000E+00
  -0.47000000E+00           0.00000000E+00
  -0.46000000E+00           0.00000000E+00
  -0.45000000E+00           0.00000000E+00
  -0.44000000E+00           0.00000000E+00
  -0.43000000E+00           0.00000000E+00
  -0.42000000E+00           0.00000000E+00
  -0.41000000E+00           0.00000000E+00
  -0.40000000E+00           0.00000000E+00
  -0.39000000E+00           0.00000000E+00
  -0.38000000E+00           0.00000000E+00
  -0.37000000E+00           0.00000000E+00
  -0.36000000E+00           0.00000000E+00
  -0.35000000E+00           0.00000000E+00
  -0.34000000E+00           0.00000000E+00
  -0.33000000E+00           0.00000000E+00
  -0.32000000E+00           0.00000000E+00
  -0.31000000E+00           0.00000000E+00
  -0.30000000E+00           0.00000000E+00
  -0.29000000E+00           0.00000000E+00
  -0.28000000E+00           0.00000000E+00
  -0.27000000E+00           0.00000000E+00
  -0.26000000E+00           0.00000000E+00
  -0.25000000E+00           0.00000000E+00
  -0.24000000E+00           0.00000000E+00
  -0.23000000E+00           0.00000000E+00
  -0.22000000E+00           0.00000000E+00
  -0.21000000E+00           0.00000000E+00
  -0.20000000E+00           0.00000000E+00
  -0.19000000E+00           0.00000000E+00
  -0.18000000E+00           0.00000000E+00
  -0.17000000E+00           0.00000000E+00
  -0.16000000E+00           0.00000000E+00
  -0.15000000E+00           0.00000000E+00
  -0.14000000E+00           0.00000000E+00
  -0.13000000E+00           0.00000000E+00
  -0.12000000E+00           0.00000000E+00
  -0.11000000E+00           0.00000000E+00
  -0.10000000E+00           0.00000000E+00
  -0.90000000E-01           0.00000000E+00
  -0.80000000E-01           0.00000000E+00
  -0.70000000E-01           0.00000000E+00
  -0.60000000E-01           0.00000000E+00
  -0.50000000E-01           0.00000000E+00
  -0.40000000E-01           0.00000000E+00
  -0.30000000E-01           0.00000000E+00
  -0.20000000E-01           0.00000000E+00
  -0.10000000E-01           0.00000000E+00
   0.00000000E+00           0.65334467E-04
   0.10000000E-01           0.51230159E-03
   0.20000000E-01           0.10193594E-02
   0.30000000E-01           0.15549887E-02
   0.40000000E-01           0.20914116E-02
   0.50000000E-01           0.27001134E-02
   0.60000000E-01           0.32478741E-02
   0.70000000E-01           0.38661281E-02
   0.80000000E-01           0.44524093E-02
   0.90000000E-01           0.51732426E-02
   0.10000000E+00           0.58137188E-02
   0.11000000E+00           0.65852891E-02
   0.12000000E+00           0.73859410E-02
   0.13000000E+00           0.82162698E-02
   0.14000000E+00           0.91000283E-02
   0.15000000E+00           0.10079223E-01
   0.16000000E+00           0.11128146E-01
   0.17000000E+00           0.12248668E-01
   0.18000000E+00           0.13429280E-01
   0.19000000E+00           0.14674348E-01
   0.20000000E+00           0.16025340E-01
   0.21000000E+00           0.17531236E-01
   0.22000000E+00           0.18954365E-01
   0.23000000E+00           0.20677296E-01
   0.24000000E+00           0.22451984E-01
   0.25000000E+00           0.24273810E-01
   0.26000000E+00           0.26326276E-01
   0.27000000E+00           0.28587472E-01
   0.28000000E+00           0.30879082E-01
   0.29000000E+00           0.33293963E-01
   0.30000000E+00           0.35936820E-01
   0.31000000E+00           0.38756434E-01
   0.32000000E+00           0.41608730E-01
   0.33000000E+00           0.44676786E-01
   0.34000000E+00           0.48041752E-01
   0.35000000E+00           0.51539598E-01
   0.36000000E+00           0.55225879E-01
   0.37000000E+00           0.59235573E-01
   0.38000000E+00           0.63361791E-01
   0.39000000E+00           0.67737358E-01
   0.40000000E+00           0.72412415E-01
   0.41000000E+00           0.77019388E-01
   0.42000000E+00           0.82274150E-01
   0.43000000E+00           0.87866978E-01
   0.44000000E+00           0.93577891E-01
   0.45000000E+00           0.99191270E-01
   0.46000000E+00           0.10535354E+00
   0.47000000E+00           0.11197511E+00
   0.48000000E+00           0.11871970E+00
   0.49000000E+00           0.12614062E+00
[...]
   0.13800000E+01           0.68416406E+00
   0.13900000E+01           0.68496471E+00
   0.14000000E+01           0.68573393E+00
   0.14100000E+01           0.68693228E+00
   0.14200000E+01           0.68776284E+00
   0.14300000E+01           0.68841712E+00
   0.14400000E+01           0.68929439E+00
   0.14500000E+01           0.68979878E+00
   0.14600000E+01           0.69043940E+00
   0.14700000E+01           0.69102710E+00
   0.14800000E+01           0.69154637E+00
   0.14900000E+01           0.69186908E+00
   0.15000000E+01           0.69214663E+00
   0.15100000E+01           0.69231111E+00
   0.15200000E+01           0.69272616E+00
   0.15300000E+01           0.69274164E+00
   0.15400000E+01           0.69308934E+00
   0.15500000E+01           0.69281409E+00
   0.15600000E+01           0.69277676E+00
   0.15700000E+01           0.69281556E+00
   0.15800000E+01           0.69301562E+00
   0.15900000E+01           0.69257817E+00
   0.16000000E+01           0.69228492E+00
   0.16100000E+01           0.69180346E+00
   0.16200000E+01           0.69164062E+00
   0.16300000E+01           0.69126253E+00
   0.16400000E+01           0.69068685E+00
   0.16500000E+01           0.69053107E+00
   0.16600000E+01           0.68988724E+00
   0.16700000E+01           0.68898339E+00
   0.16800000E+01           0.68845890E+00
   0.16900000E+01           0.68785150E+00
   0.17000000E+01           0.68703305E+00
   0.17100000E+01           0.68631029E+00
   0.17200000E+01           0.68523124E+00
   0.17300000E+01           0.68407398E+00
   0.17400000E+01           0.68344510E+00
   0.17500000E+01           0.68231471E+00
   0.17600000E+01           0.68141913E+00
   0.17700000E+01           0.68023132E+00
   0.17800000E+01           0.67891936E+00
   0.17900000E+01           0.67757820E+00
   0.18000000E+01           0.67652772E+00
   0.18100000E+01           0.67497361E+00
   0.18200000E+01           0.67363019E+00
   0.18300000E+01           0.67220377E+00
   0.18400000E+01           0.67099039E+00
   0.18500000E+01           0.66916414E+00
   0.18600000E+01           0.66783469E+00
   0.18700000E+01           0.66603435E+00
   0.18800000E+01           0.66460510E+00
   0.18900000E+01           0.66279229E+00
   0.19000000E+01           0.66145006E+00
   0.19100000E+01           0.65948217E+00
   0.19200000E+01           0.65727911E+00
   0.19300000E+01           0.65551687E+00
   0.19400000E+01           0.65394782E+00
   0.19500000E+01           0.65227046E+00
   0.19600000E+01           0.65009359E+00
   0.19700000E+01           0.64805354E+00
   0.19800000E+01           0.64604127E+00
   0.19900000E+01           0.64385187E+00
   0.20000000E+01           0.32117480E+00
 #T=    20.0000
  -0.20000000E+01           0.00000000E+00
  -0.19900000E+01           0.00000000E+00
  -0.19800000E+01           0.00000000E+00
  -0.19700000E+01           0.00000000E+00
  -0.19600000E+01           0.00000000E+00
  -0.19500000E+01           0.00000000E+00
  -0.19400000E+01           0.00000000E+00
  -0.19300000E+01           0.00000000E+00
  -0.19200000E+01           0.00000000E+00
  -0.19100000E+01           0.00000000E+00
  -0.19000000E+01           0.00000000E+00
  -0.18900000E+01           0.00000000E+00
  -0.18800000E+01           0.00000000E+00
  -0.18700000E+01           0.00000000E+00
  -0.18600000E+01           0.00000000E+00
  -0.18500000E+01           0.00000000E+00
  -0.18400000E+01           0.00000000E+00
  -0.18300000E+01           0.00000000E+00
  -0.18200000E+01           0.00000000E+00
  -0.18100000E+01           0.00000000E+00
  -0.18000000E+01           0.00000000E+00
  -0.17900000E+01           0.00000000E+00
  -0.17800000E+01           0.00000000E+00
  -0.17700000E+01           0.00000000E+00
  -0.17600000E+01           0.00000000E+00
  -0.17500000E+01           0.00000000E+00
  -0.17400000E+01           0.00000000E+00
  -0.17300000E+01           0.00000000E+00
  -0.17200000E+01           0.00000000E+00
  -0.17100000E+01           0.00000000E+00
  -0.17000000E+01           0.00000000E+00
  -0.16900000E+01           0.00000000E+00
  -0.16800000E+01           0.00000000E+00
  -0.16700000E+01           0.00000000E+00
  -0.16600000E+01           0.00000000E+00
  -0.16500000E+01           0.00000000E+00
  -0.16400000E+01           0.00000000E+00
  -0.16300000E+01           0.00000000E+00
  -0.16200000E+01           0.00000000E+00
  -0.16100000E+01           0.00000000E+00
  -0.16000000E+01           0.00000000E+00
  -0.15900000E+01           0.00000000E+00
  -0.15800000E+01           0.00000000E+00
  -0.15700000E+01           0.00000000E+00
  -0.15600000E+01           0.00000000E+00
  -0.15500000E+01           0.00000000E+00
  -0.15400000E+01           0.00000000E+00
  -0.15300000E+01           0.00000000E+00
  -0.15200000E+01           0.00000000E+00
  -0.15100000E+01           0.00000000E+00
  -0.15000000E+01           0.00000000E+00
  -0.14900000E+01           0.00000000E+00
  -0.14800000E+01           0.00000000E+00
  -0.14700000E+01           0.00000000E+00
  -0.14600000E+01           0.00000000E+00
  -0.14500000E+01           0.00000000E+00
  -0.14400000E+01           0.00000000E+00
  -0.14300000E+01           0.00000000E+00
  -0.14200000E+01           0.00000000E+00
  -0.14100000E+01           0.00000000E+00
  -0.14000000E+01           0.00000000E+00
  -0.13900000E+01           0.00000000E+00
  -0.13800000E+01           0.00000000E+00
  -0.13700000E+01           0.00000000E+00
  -0.13600000E+01           0.00000000E+00
  -0.13500000E+01           0.00000000E+00
  -0.13400000E+01           0.00000000E+00
  -0.13300000E+01           0.00000000E+00
  -0.13200000E+01           0.00000000E+00
  -0.13100000E+01           0.00000000E+00
  -0.13000000E+01           0.00000000E+00
  -0.12900000E+01           0.00000000E+00
  -0.12800000E+01           0.00000000E+00
  -0.12700000E+01           0.00000000E+00
  -0.12600000E+01           0.00000000E+00
  -0.12500000E+01           0.00000000E+00
  -0.12400000E+01           0.00000000E+00
  -0.12300000E+01           0.00000000E+00
  -0.12200000E+01           0.00000000E+00
  -0.12100000E+01           0.00000000E+00
  -0.12000000E+01           0.00000000E+00
  -0.11900000E+01           0.00000000E+00
  -0.11800000E+01           0.00000000E+00
  -0.11700000E+01           0.00000000E+00
  -0.11600000E+01           0.00000000E+00
  -0.11500000E+01           0.00000000E+00
  -0.11400000E+01           0.00000000E+00
  -0.11300000E+01           0.00000000E+00
  -0.11200000E+01           0.00000000E+00
  -0.11100000E+01           0.00000000E+00
  -0.11000000E+01           0.00000000E+00
  -0.10900000E+01           0.00000000E+00
  -0.10800000E+01           0.00000000E+00
  -0.10700000E+01           0.00000000E+00
  -0.10600000E+01           0.00000000E+00
  -0.10500000E+01           0.00000000E+00
  -0.10400000E+01           0.00000000E+00
  -0.10300000E+01           0.00000000E+00
  -0.10200000E+01           0.00000000E+00
  -0.10100000E+01           0.00000000E+00
  -0.10000000E+01           0.00000000E+00
  -0.99000000E+00           0.00000000E+00
  -0.98000000E+00           0.00000000E+00
  -0.97000000E+00           0.00000000E+00
  -0.96000000E+00           0.00000000E+00
  -0.95000000E+00           0.00000000E+00
  -0.94000000E+00           0.00000000E+00
  -0.93000000E+00           0.00000000E+00
  -0.92000000E+00           0.00000000E+00
  -0.91000000E+00           0.00000000E+00
  -0.90000000E+00           0.00000000E+00
  -0.89000000E+00           0.00000000E+00
  -0.88000000E+00           0.00000000E+00
  -0.87000000E+00           0.00000000E+00
  -0.86000000E+00           0.00000000E+00
  -0.85000000E+00           0.00000000E+00
  -0.84000000E+00           0.00000000E+00
  -0.83000000E+00           0.00000000E+00
  -0.82000000E+00           0.00000000E+00
  -0.81000000E+00           0.00000000E+00
  -0.80000000E+00           0.00000000E+00
  -0.79000000E+00           0.00000000E+00
  -0.78000000E+00           0.00000000E+00
  -0.77000000E+00           0.00000000E+00
  -0.76000000E+00           0.00000000E+00
  -0.75000000E+00           0.00000000E+00
  -0.74000000E+00           0.00000000E+00
  -0.73000000E+00           0.00000000E+00
  -0.72000000E+00           0.00000000E+00
  -0.71000000E+00           0.00000000E+00
  -0.70000000E+00           0.00000000E+00
  -0.69000000E+00           0.00000000E+00
  -0.68000000E+00           0.00000000E+00
  -0.67000000E+00           0.00000000E+00
  -0.66000000E+00           0.00000000E+00
  -0.65000000E+00           0.00000000E+00
  -0.64000000E+00           0.00000000E+00
  -0.63000000E+00           0.00000000E+00
  -0.62000000E+00           0.00000000E+00
  -0.61000000E+00           0.00000000E+00
  -0.60000000E+00           0.00000000E+00
  -0.59000000E+00           0.00000000E+00
  -0.58000000E+00           0.00000000E+00
  -0.57000000E+00           0.00000000E+00
  -0.56000000E+00           0.00000000E+00
  -0.55000000E+00           0.00000000E+00
  -0.54000000E+00           0.00000000E+00
  -0.53000000E+00           0.00000000E+00
  -0.52000000E+00           0.00000000E+00
  -0.51000000E+00           0.00000000E+00
  -0.50000000E+00           0.00000000E+00
  -0.49000000E+00           0.00000000E+00
  -0.48000000E+00           0.00000000E+00
  -0.47000000E+00           0.00000000E+00
  -0.46000000E+00           0.00000000E+00
  -0.45000000E+00           0.00000000E+00
  -0.44000000E+00           0.00000000E+00
  -0.43000000E+00           0.00000000E+00
  -0.42000000E+00           0.00000000E+00
  -0.41000000E+00           0.00000000E+00
  -0.40000000E+00           0.00000000E+00
  -0.39000000E+00           0.00000000E+00
  -0.38000000E+00           0.00000000E+00
  -0.37000000E+00           0.00000000E+00
  -0.36000000E+00           0.00000000E+00
  -0.35000000E+00           0.00000000E+00
  -0.34000000E+00           0.00000000E+00
  -0.33000000E+00           0.00000000E+00
  -0.32000000E+00           0.00000000E+00
  -0.31000000E+00           0.00000000E+00
  -0.30000000E+00           0.00000000E+00
  -0.29000000E+00           0.00000000E+00
  -0.28000000E+00           0.00000000E+00
  -0.27000000E+00           0.00000000E+00
  -0.26000000E+00           0.00000000E+00
  -0.25000000E+00           0.00000000E+00
  -0.24000000E+00           0.00000000E+00
  -0.23000000E+00           0.00000000E+00
  -0.22000000E+00           0.00000000E+00
  -0.21000000E+00           0.00000000E+00
  -0.20000000E+00           0.00000000E+00
  -0.19000000E+00           0.00000000E+00
  -0.18000000E+00           0.00000000E+00
  -0.17000000E+00           0.00000000E+00
  -0.16000000E+00           0.00000000E+00
  -0.15000000E+00           0.00000000E+00
  -0.14000000E+00           0.00000000E+00
  -0.13000000E+00           0.00000000E+00
  -0.12000000E+00           0.00000000E+00
  -0.11000000E+00           0.00000000E+00
  -0.10000000E+00           0.00000000E+00
  -0.90000000E-01           0.00000000E+00
  -0.80000000E-01           0.00000000E+00
  -0.70000000E-01           0.00000000E+00
  -0.60000000E-01           0.00000000E+00
  -0.50000000E-01           0.00000000E+00
  -0.40000000E-01           0.00000000E+00
  -0.30000000E-01           0.00000000E+00
  -0.20000000E-01           0.00000000E+00
  -0.10000000E-01           0.00000000E+00
   0.00000000E+00           0.90459184E-03
   0.10000000E-01           0.73175170E-02
   0.20000000E-01           0.14656179E-01
   0.30000000E-01           0.21914796E-01
   0.40000000E-01           0.29287018E-01
   0.50000000E-01           0.36555017E-01
   0.60000000E-01           0.43888010E-01
   0.70000000E-01           0.51177381E-01
   0.80000000E-01           0.58411139E-01
   0.90000000E-01           0.65771854E-01
   0.10000000E+00           0.73036593E-01
   0.11000000E+00           0.80272477E-01
   0.12000000E+00           0.87505244E-01
   0.13000000E+00           0.94852693E-01
   0.14000000E+00           0.10199442E+00
   0.15000000E+00           0.10925692E+00
   0.16000000E+00           0.11650607E+00
   0.17000000E+00           0.12365224E+00
   0.18000000E+00           0.13089201E+00
   0.19000000E+00           0.13809133E+00
   0.20000000E+00           0.14511162E+00
   0.21000000E+00           0.15243920E+00
   0.22000000E+00           0.15942596E+00
   0.23000000E+00           0.16655439E+00
   0.24000000E+00           0.17362001E+00
   0.25000000E+00           0.18065527E+00
   0.26000000E+00           0.18774192E+00
   0.27000000E+00           0.19473138E+00
   0.28000000E+00           0.20157129E+00
   0.29000000E+00           0.20855686E+00
   0.30000000E+00           0.21550247E+00
   0.31000000E+00           0.22243776E+00
   0.32000000E+00           0.22929498E+00
   0.33000000E+00           0.23619016E+00
   0.34000000E+00           0.24285850E+00
   0.35000000E+00           0.24964184E+00
   0.36000000E+00           0.25641295E+00
   0.37000000E+00           0.26326494E+00
   0.38000000E+00           0.26994498E+00
   0.39000000E+00           0.27654014E+00
   0.40000000E+00           0.28337463E+00
   0.41000000E+00           0.28978226E+00
   0.42000000E+00           0.29642112E+00
   0.43000000E+00           0.30302024E+00
   0.44000000E+00           0.30953849E+00
   0.45000000E+00           0.31589461E+00
   0.46000000E+00           0.32242676E+00
   0.47000000E+00           0.32861652E+00
   0.48000000E+00           0.33508067E+00
   0.49000000E+00           0.34147707E+00
   0.50000000E+00           0.34773328E+00
   0.51000000E+00           0.35387404E+00
   0.52000000E+00           0.36015873E+00
   0.53000000E+00           0.36610187E+00
   0.54000000E+00           0.37256474E+00
   0.55000000E+00           0.37823841E+00
   0.56000000E+00           0.38445564E+00
   0.57000000E+00           0.39032979E+00
   0.58000000E+00           0.39620638E+00
   0.59000000E+00           0.40208804E+00
   0.60000000E+00           0.40807540E+00
   0.61000000E+00           0.41347854E+00
   0.62000000E+00           0.41935150E+00
   0.63000000E+00           0.42533291E+00
   0.64000000E+00           0.43075592E+00
   0.65000000E+00           0.43627418E+00
   0.66000000E+00           0.44205510E+00
   0.67000000E+00           0.44735184E+00
   0.68000000E+00           0.45289048E+00
   0.69000000E+00           0.45815193E+00
   0.70000000E+00           0.46354787E+00
   0.71000000E+00           0.46877018E+00
   0.72000000E+00           0.47408348E+00
   0.73000000E+00           0.47939359E+00
   0.74000000E+00           0.48426652E+00
   0.75000000E+00           0.48939402E+00
   0.76000000E+00           0.49418634E+00
   0.77000000E+00           0.49936902E+00
   0.78000000E+00           0.50403532E+00
   0.79000000E+00           0.50881352E+00
   0.80000000E+00           0.51388875E+00
   0.81000000E+00           0.51839067E+00
   0.82000000E+00           0.52300235E+00
   0.83000000E+00           0.52774666E+00
   0.84000000E+00           0.53195445E+00
   0.85000000E+00           0.53675890E+00
   0.86000000E+00           0.54137234E+00
   0.87000000E+00           0.54531369E+00
   0.88000000E+00           0.54976533E+00
   0.89000000E+00           0.55421182E+00
   0.90000000E+00           0.55806392E+00
   0.91000000E+00           0.56231525E+00
   0.92000000E+00           0.56620343E+00
   0.93000000E+00           0.57047140E+00
   0.94000000E+00           0.57434785E+00
   0.95000000E+00           0.57821899E+00
   0.96000000E+00           0.58227560E+00
   0.97000000E+00           0.58579306E+00
   0.98000000E+00           0.58944881E+00
   0.99000000E+00           0.59316474E+00
   0.10000000E+01           0.59635057E+00
   0.10100000E+01           0.60020374E+00
   0.10200000E+01           0.60327075E+00
   0.10300000E+01           0.60693254E+00
   0.10400000E+01           0.61005924E+00
   0.10500000E+01           0.61349195E+00
   0.10600000E+01           0.61656624E+00
   0.10700000E+01           0.62000201E+00
   0.10800000E+01           0.62286604E+00
   0.10900000E+01           0.62567120E+00
   0.11000000E+01           0.62890425E+00
   0.11100000E+01           0.63165414E+00
   0.11200000E+01           0.63446528E+00
   0.11300000E+01           0.63731188E+00
   0.11400000E+01           0.63973237E+00
   0.11500000E+01           0.64226859E+00
   0.11600000E+01           0.64478061E+00
   0.11700000E+01           0.64728399E+00
   0.11800000E+01           0.64969595E+00
   0.11900000E+01           0.65217985E+00
   0.12000000E+01           0.65440621E+00
   0.12100000E+01           0.65671616E+00
   0.12200000E+01           0.65866006E+00
   0.12300000E+01           0.66087154E+00
   0.12400000E+01           0.66277897E+00
   0.12500000E+01           0.66492083E+00
   0.12600000E+01           0.66680037E+00
   0.12700000E+01           0.66861531E+00
   0.12800000E+01           0.67030479E+00
   0.12900000E+01           0.67174297E+00
   0.13000000E+01           0.67378773E+00
   0.13100000E+01           0.67534765E+00
   0.13200000E+01           0.67641054E+00
   0.13300000E+01           0.67812049E+00
   0.13400000E+01           0.67961584E+00
   0.13500000E+01           0.68079118E+00
   0.13600000E+01           0.68212670E+00
   0.13700000E+01           0.68333489E+00
   0.13800000E+01           0.68444586E+00
   0.13900000E+01           0.68562687E+00
   0.14000000E+01           0.68645091E+00
   0.14100000E+01           0.68730771E+00
   0.14200000E+01           0.68841729E+00
   0.14300000E+01           0.68939022E+00
   0.14400000E+01           0.69001559E+00
   0.14500000E+01           0.69077914E+00
   0.14600000E+01           0.69135499E+00
   0.14700000E+01           0.69199498E+00
   0.14800000E+01           0.69260371E+00
   0.14900000E+01           0.69302012E+00
   0.15000000E+01           0.69341942E+00
   0.15100000E+01           0.69362486E+00
   0.15200000E+01           0.69401922E+00
   0.15300000E+01           0.69406066E+00
   0.15400000E+01           0.69417120E+00
   0.15500000E+01           0.69442534E+00
   0.15600000E+01           0.69420258E+00
   0.15700000E+01           0.69437248E+00
   0.15800000E+01           0.69442730E+00
   0.15900000E+01           0.69422528E+00
   0.16000000E+01           0.69415893E+00
   0.16100000E+01           0.69374875E+00
   0.16200000E+01           0.69349283E+00
   0.16300000E+01           0.69321896E+00
   0.16400000E+01           0.69284946E+00
   0.16500000E+01           0.69228807E+00
   0.16600000E+01           0.69173217E+00
   0.16700000E+01           0.69135385E+00
   0.16800000E+01           0.69050094E+00
   0.16900000E+01           0.68998926E+00
   0.17000000E+01           0.68914898E+00
   0.17100000E+01           0.68856383E+00
   0.17200000E+01           0.68786448E+00
   0.17300000E+01           0.68672562E+00
   0.17400000E+01           0.68624240E+00
   0.17500000E+01           0.68501346E+00
   0.17600000E+01           0.68403696E+00
   0.17700000E+01           0.68304541E+00
   0.17800000E+01           0.68171616E+00
   0.17900000E+01           0.68058407E+00
   0.18000000E+01           0.67946083E+00
   0.18100000E+01           0.67822452E+00
   0.18200000E+01           0.67685397E+00
   0.18300000E+01           0.67540967E+00
   0.18400000E+01           0.67396766E+00
   0.18500000E+01           0.67259685E+00
   0.18600000E+01           0.67121026E+00
   0.18700000E+01           0.66965334E+00
   0.18800000E+01           0.66810179E+00
   0.18900000E+01           0.66648713E+00
   0.19000000E+01           0.66491814E+00
   0.19100000E+01           0.66341156E+00
   0.19200000E+01           0.66159226E+00
   0.19300000E+01           0.65946406E+00
   0.19400000E+01           0.65776610E+00
   0.19500000E+01           0.65606973E+00
   0.19600000E+01           0.65431902E+00
   0.19700000E+01           0.65233370E+00
   0.19800000E+01           0.65037367E+00
   0.19900000E+01           0.64857795E+00
   0.20000000E+01           0.32342500E+00
