 #written on 11Aug2024 at 15:55:28 
 #----------------- MONTECARLO -------------------#
 #        M                      P(M)             #
 #------------------------------------------------#
 #T=    21.0000
  -0.20000000E+01           0.00000000E+00
  -0.19900000E+01           0.00000000E+00
  -0.19800000E+01           0.00000000E+00
  -0.19700000E+01           0.00000000E+00
  -0.19600000E+01           0.00000000E+00
  -0.19500000E+01           0.00000000E+00
  -0.19400000E+01           0.00000000E+00
  -0.19300000E+01           0.00000000E+00
  -0.19200000E+01           0.00000000E+00
  -0.19100000E+01           0.00000000E+00
  -0.19000000E+01           0.00000000E+00
  -0.18900000E+01           0.00000000E+00
  -0.18800000E+01           0.00000000E+00
  -0.18700000E+01           0.00000000E+00
  -0.18600000E+01           0.00000000E+00
  -0.18500000E+01           0.00000000E+00
  -0.18400000E+01           0.00000000E+00
  -0.18300000E+01           0.00000000E+00
  -0.18200000E+01           0.00000000E+00
  -0.18100000E+01           0.00000000E+00
  -0.18000000E+01           0.00000000E+00
  -0.17900000E+01           0.00000000E+00
  -0.17800000E+01           0.00000000E+00
  -0.17700000E+01           0.00000000E+00
  -0.17600000E+01           0.00000000E+00
  -0.17500000E+01           0.00000000E+00
  -0.17400000E+01           0.00000000E+00
  -0.17300000E+01           0.00000000E+00
  -0.17200000E+01           0.00000000E+00
  -0.17100000E+01           0.00000000E+00
  -0.17000000E+01           0.00000000E+00
  -0.16900000E+01           0.00000000E+00
  -0.16800000E+01           0.00000000E+00
  -0.16700000E+01           0.00000000E+00
  -0.16600000E+01           0.00000000E+00
  -0.16500000E+01           0.00000000E+00
  -0.16400000E+01           0.00000000E+00
  -0.16300000E+01           0.00000000E+00
  -0.16200000E+01           0.00000000E+00
  -0.16100000E+01           0.00000000E+00
  -0.16000000E+01           0.00000000E+00
  -0.15900000E+01           0.00000000E+00
  -0.15800000E+01           0.00000000E+00
  -0.15700000E+01           0.00000000E+00
  -0.15600000E+01           0.00000000E+00
  -0.15500000E+01           0.00000000E+00
  -0.15400000E+01           0.00000000E+00
  -0.15300000E+01           0.00000000E+00
  -0.15200000E+01           0.00000000E+00
  -0.15100000E+01           0.00000000E+00
  -0.15000000E+01           0.00000000E+00
  -0.14900000E+01           0.00000000E+00
  -0.14800000E+01           0.00000000E+00
  -0.14700000E+01           0.00000000E+00
  -0.14600000E+01           0.00000000E+00
  -0.14500000E+01           0.00000000E+00
  -0.14400000E+01           0.00000000E+00
  -0.14300000E+01           0.00000000E+00
  -0.14200000E+01           0.00000000E+00
  -0.14100000E+01           0.00000000E+00
  -0.14000000E+01           0.00000000E+00
  -0.13900000E+01           0.00000000E+00
  -0.13800000E+01           0.00000000E+00
  -0.13700000E+01           0.00000000E+00
  -0.13600000E+01           0.00000000E+00
  -0.13500000E+01           0.00000000E+00
  -0.13400000E+01           0.00000000E+00
  -0.13300000E+01           0.00000000E+00
  -0.13200000E+01           0.00000000E+00
  -0.13100000E+01           0.00000000E+00
  -0.13000000E+01           0.00000000E+00
  -0.12900000E+01           0.00000000E+00
  -0.12800000E+01           0.00000000E+00
  -0.12700000E+01           0.00000000E+00
  -0.12600000E+01           0.00000000E+00
  -0.12500000E+01           0.00000000E+00
  -0.12400000E+01           0.00000000E+00
  -0.12300000E+01           0.00000000E+00
  -0.12200000E+01           0.00000000E+00
  -0.12100000E+01           0.00000000E+00
  -0.12000000E+01           0.00000000E+00
  -0.11900000E+01           0.00000000E+00
  -0.11800000E+01           0.00000000E+00
  -0.11700000E+01           0.00000000E+00
  -0.11600000E+01           0.00000000E+00
  -0.11500000E+01           0.00000000E+00
  -0.11400000E+01           0.00000000E+00
  -0.11300000E+01           0.00000000E+00
  -0.11200000E+01           0.00000000E+00
  -0.11100000E+01           0.00000000E+00
  -0.11000000E+01           0.00000000E+00
  -0.10900000E+01           0.00000000E+00
  -0.10800000E+01           0.00000000E+00
  -0.10700000E+01           0.00000000E+00
  -0.10600000E+01           0.00000000E+00
  -0.10500000E+01           0.00000000E+00
  -0.10400000E+01           0.00000000E+00
  -0.10300000E+01           0.00000000E+00
  -0.10200000E+01           0.00000000E+00
  -0.10100000E+01           0.00000000E+00
  -0.10000000E+01           0.00000000E+00
  -0.99000000E+00           0.00000000E+00
  -0.98000000E+00           0.00000000E+00
  -0.97000000E+00           0.00000000E+00
  -0.96000000E+00           0.00000000E+00
  -0.95000000E+00           0.00000000E+00
  -0.94000000E+00           0.00000000E+00
  -0.93000000E+00           0.00000000E+00
  -0.92000000E+00           0.00000000E+00
  -0.91000000E+00           0.00000000E+00
  -0.90000000E+00           0.00000000E+00
  -0.89000000E+00           0.00000000E+00
  -0.88000000E+00           0.00000000E+00
  -0.87000000E+00           0.00000000E+00
  -0.86000000E+00           0.00000000E+00
  -0.85000000E+00           0.00000000E+00
  -0.84000000E+00           0.00000000E+00
  -0.83000000E+00           0.00000000E+00
  -0.82000000E+00           0.00000000E+00
  -0.81000000E+00           0.00000000E+00
  -0.80000000E+00           0.00000000E+00
  -0.79000000E+00           0.00000000E+00
  -0.78000000E+00           0.00000000E+00
  -0.77000000E+00           0.00000000E+00
  -0.76000000E+00           0.00000000E+00
  -0.75000000E+00           0.00000000E+00
  -0.74000000E+00           0.00000000E+00
  -0.73000000E+00           0.00000000E+00
  -0.72000000E+00           0.00000000E+00
  -0.71000000E+00           0.00000000E+00
  -0.70000000E+00           0.00000000E+00
  -0.69000000E+00           0.00000000E+00
  -0.68000000E+00           0.00000000E+00
  -0.67000000E+00           0.00000000E+00
  -0.66000000E+00           0.00000000E+00
  -0.65000000E+00           0.00000000E+00
  -0.64000000E+00           0.00000000E+00
  -0.63000000E+00           0.00000000E+00
  -0.62000000E+00           0.00000000E+00
  -0.61000000E+00           0.00000000E+00
  -0.60000000E+00           0.00000000E+00
  -0.59000000E+00           0.00000000E+00
  -0.58000000E+00           0.00000000E+00
  -0.57000000E+00           0.00000000E+00
  -0.56000000E+00           0.00000000E+00
  -0.55000000E+00           0.00000000E+00
  -0.54000000E+00           0.00000000E+00
  -0.53000000E+00           0.00000000E+00
  -0.52000000E+00           0.00000000E+00
  -0.51000000E+00           0.00000000E+00
  -0.50000000E+00           0.00000000E+00
  -0.49000000E+00           0.00000000E+00
  -0.48000000E+00           0.00000000E+00
  -0.47000000E+00           0.00000000E+00
  -0.46000000E+00           0.00000000E+00
  -0.45000000E+00           0.00000000E+00
  -0.44000000E+00           0.00000000E+00
  -0.43000000E+00           0.00000000E+00
  -0.42000000E+00           0.00000000E+00
  -0.41000000E+00           0.00000000E+00
  -0.40000000E+00           0.00000000E+00
  -0.39000000E+00           0.00000000E+00
  -0.38000000E+00           0.00000000E+00
  -0.37000000E+00           0.00000000E+00
  -0.36000000E+00           0.00000000E+00
  -0.35000000E+00           0.00000000E+00
  -0.34000000E+00           0.00000000E+00
  -0.33000000E+00           0.00000000E+00
  -0.32000000E+00           0.00000000E+00
  -0.31000000E+00           0.00000000E+00
  -0.30000000E+00           0.00000000E+00
  -0.29000000E+00           0.00000000E+00
  -0.28000000E+00           0.00000000E+00
  -0.27000000E+00           0.00000000E+00
  -0.26000000E+00           0.00000000E+00
  -0.25000000E+00           0.00000000E+00
  -0.24000000E+00           0.00000000E+00
  -0.23000000E+00           0.00000000E+00
  -0.22000000E+00           0.00000000E+00
  -0.21000000E+00           0.00000000E+00
  -0.20000000E+00           0.00000000E+00
  -0.19000000E+00           0.00000000E+00
  -0.18000000E+00           0.00000000E+00
  -0.17000000E+00           0.00000000E+00
  -0.16000000E+00           0.00000000E+00
  -0.15000000E+00           0.00000000E+00
  -0.14000000E+00           0.00000000E+00
  -0.13000000E+00           0.00000000E+00
  -0.12000000E+00           0.00000000E+00
  -0.11000000E+00           0.00000000E+00
  -0.10000000E+00           0.00000000E+00
  -0.90000000E-01           0.00000000E+00
  -0.80000000E-01           0.00000000E+00
  -0.70000000E-01           0.00000000E+00
  -0.60000000E-01           0.00000000E+00
  -0.50000000E-01           0.00000000E+00
  -0.40000000E-01           0.00000000E+00
  -0.30000000E-01           0.00000000E+00
  -0.20000000E-01           0.00000000E+00
  -0.10000000E-01           0.00000000E+00
   0.00000000E+00           0.00000000E+00
   0.10000000E-01           0.00000000E+00
   0.20000000E-01           0.00000000E+00
   0.30000000E-01           0.00000000E+00
   0.40000000E-01           0.00000000E+00
   0.50000000E-01           0.00000000E+00
   0.60000000E-01           0.88183422E-07
   0.70000000E-01           0.00000000E+00
   0.80000000E-01           0.88183422E-07
   0.90000000E-01           0.00000000E+00
   0.10000000E+00           0.00000000E+00
   0.11000000E+00           0.00000000E+00
   0.12000000E+00           0.88183422E-07
   0.13000000E+00           0.00000000E+00
   0.14000000E+00           0.00000000E+00
   0.15000000E+00           0.17636684E-06
   0.16000000E+00           0.88183422E-07
   0.17000000E+00           0.88183422E-07
   0.18000000E+00           0.88183422E-07
   0.19000000E+00           0.88183422E-07
   0.20000000E+00           0.88183422E-07
   0.21000000E+00           0.26455026E-06
   0.22000000E+00           0.88183422E-07
   0.23000000E+00           0.00000000E+00
   0.24000000E+00           0.88183422E-07
   0.25000000E+00           0.17636684E-06
   0.26000000E+00           0.00000000E+00
   0.27000000E+00           0.26455026E-06
   0.28000000E+00           0.35273369E-06
   0.29000000E+00           0.35273369E-06
   0.30000000E+00           0.17636684E-06
   0.31000000E+00           0.44091711E-06
   0.32000000E+00           0.52910053E-06
   0.33000000E+00           0.44091711E-06
   0.34000000E+00           0.97001764E-06
   0.35000000E+00           0.70546737E-06
   0.36000000E+00           0.44091711E-06
   0.37000000E+00           0.79365079E-06
   0.38000000E+00           0.10582011E-05
   0.39000000E+00           0.61728395E-06
   0.40000000E+00           0.70546737E-06
   0.41000000E+00           0.10582011E-05
   0.42000000E+00           0.61728395E-06
   0.43000000E+00           0.12345679E-05
   0.44000000E+00           0.10582011E-05
   0.45000000E+00           0.15873016E-05
   0.46000000E+00           0.17636684E-05
   0.47000000E+00           0.24691358E-05
   0.48000000E+00           0.24691358E-05
   0.49000000E+00           0.22927690E-05
   0.50000000E+00           0.23809524E-05
   0.51000000E+00           0.28218695E-05
   0.52000000E+00           0.23809524E-05
   0.53000000E+00           0.30864198E-05
   0.54000000E+00           0.28218695E-05
   0.55000000E+00           0.29100529E-05
   0.56000000E+00           0.45855379E-05
   0.57000000E+00           0.39682540E-05
   0.58000000E+00           0.49382716E-05
   0.59000000E+00           0.52028219E-05
   0.60000000E+00           0.48500882E-05
   0.61000000E+00           0.67901235E-05
   0.62000000E+00           0.75837743E-05
   0.63000000E+00           0.69664903E-05
   0.64000000E+00           0.11640212E-04
   0.65000000E+00           0.88183422E-05
   0.66000000E+00           0.10670194E-04
   0.67000000E+00           0.11904762E-04
   0.68000000E+00           0.13315697E-04
   0.69000000E+00           0.16313933E-04
   0.70000000E+00           0.18253968E-04
   0.71000000E+00           0.16402116E-04
   0.72000000E+00           0.20370370E-04
   0.73000000E+00           0.20987654E-04
   0.74000000E+00           0.27513228E-04
   0.75000000E+00           0.30511464E-04
   0.76000000E+00           0.29453263E-04
   0.77000000E+00           0.32451499E-04
   0.78000000E+00           0.35890653E-04
   0.79000000E+00           0.40652557E-04
   0.80000000E+00           0.43298060E-04
   0.81000000E+00           0.52910053E-04
   0.82000000E+00           0.48059965E-04
   0.83000000E+00           0.60405644E-04
   0.84000000E+00           0.69135802E-04
   0.85000000E+00           0.77072310E-04
   0.86000000E+00           0.80070547E-04
   0.87000000E+00           0.88447972E-04
   0.88000000E+00           0.10035273E-03
   0.89000000E+00           0.11640212E-03
   0.90000000E+00           0.11781305E-03
   0.91000000E+00           0.13439153E-03
   0.92000000E+00           0.15396825E-03
   0.93000000E+00           0.16507937E-03
   0.94000000E+00           0.18844797E-03
   0.95000000E+00           0.20299824E-03
   0.96000000E+00           0.23121693E-03
   0.97000000E+00           0.24876543E-03
   0.98000000E+00           0.27680776E-03
   0.99000000E+00           0.30573192E-03
   0.10000000E+01           0.34823633E-03
   0.10100000E+01           0.37918871E-03
   0.10200000E+01           0.40696649E-03
   0.10300000E+01           0.46234568E-03
   0.10400000E+01           0.50582011E-03
   0.10500000E+01           0.55731922E-03
   0.10600000E+01           0.62689594E-03
   0.10700000E+01           0.71402116E-03
   0.10800000E+01           0.75978836E-03
   0.10900000E+01           0.84647266E-03
   0.11000000E+01           0.91904762E-03
   0.11100000E+01           0.10537919E-02
   0.11200000E+01           0.11475309E-02
   0.11300000E+01           0.12715168E-02
   0.11400000E+01           0.14213404E-02
   0.11500000E+01           0.15457672E-02
   0.11600000E+01           0.17452381E-02
   0.11700000E+01           0.18844797E-02
   0.11800000E+01           0.20898589E-02
   0.11900000E+01           0.23292769E-02
   0.12000000E+01           0.25659612E-02
   0.12100000E+01           0.28579365E-02
   0.12200000E+01           0.31673721E-02
   0.12300000E+01           0.34656966E-02
   0.12400000E+01           0.38858907E-02
   0.12500000E+01           0.42878307E-02
   0.12600000E+01           0.47716049E-02
   0.12700000E+01           0.52686067E-02
   0.12800000E+01           0.58418871E-02
   0.12900000E+01           0.64638448E-02
   0.13000000E+01           0.71756614E-02
   0.13100000E+01           0.79008818E-02
   0.13200000E+01           0.87898589E-02
   0.13300000E+01           0.97537919E-02
   0.13400000E+01           0.10747972E-01
   0.13500000E+01           0.11974074E-01
   0.13600000E+01           0.13312434E-01
   0.13700000E+01           0.14644974E-01
   0.13800000E+01           0.16235714E-01
   0.13900000E+01           0.17990476E-01
   0.14000000E+01           0.19975750E-01
   0.14100000E+01           0.22173810E-01
   0.14200000E+01           0.24499295E-01
   0.14300000E+01           0.27074339E-01
   0.14400000E+01           0.30165256E-01
   0.14500000E+01           0.33285891E-01
   0.14600000E+01           0.37041887E-01
   0.14700000E+01           0.40938183E-01
   0.14800000E+01           0.45577160E-01
   0.14900000E+01           0.50357848E-01
   0.15000000E+01           0.55669136E-01
   0.15100000E+01           0.61980247E-01
   0.15200000E+01           0.68684127E-01
   0.15300000E+01           0.76011464E-01
   0.15400000E+01           0.84460317E-01
   0.15500000E+01           0.93725397E-01
   0.15600000E+01           0.10395556E+00
   0.15700000E+01           0.11532328E+00
   0.15800000E+01           0.12803210E+00
   0.15900000E+01           0.14215141E+00
   0.16000000E+01           0.15750282E+00
   0.16100000E+01           0.17464524E+00
   0.16200000E+01           0.19394647E+00
   0.16300000E+01           0.21528016E+00
   0.16400000E+01           0.23892734E+00
   0.16500000E+01           0.26471596E+00
   0.16600000E+01           0.29435326E+00
   0.16700000E+01           0.32666561E+00
   0.16800000E+01           0.36229497E+00
   0.16900000E+01           0.40256199E+00
   0.17000000E+01           0.44692531E+00
   0.17100000E+01           0.49553148E+00
   0.17200000E+01           0.55075767E+00
   0.17300000E+01           0.61190062E+00
   0.17400000E+01           0.67899947E+00
   0.17500000E+01           0.75386940E+00
   0.17600000E+01           0.83772099E+00
   0.17700000E+01           0.93050732E+00
   0.17800000E+01           0.10330527E+01
   0.17900000E+01           0.11475959E+01
   0.18000000E+01           0.12751590E+01
   0.18100000E+01           0.14167290E+01
   0.18200000E+01           0.15747466E+01
   0.18300000E+01           0.17482179E+01
   0.18400000E+01           0.19428751E+01
   0.18500000E+01           0.21615257E+01
   0.18600000E+01           0.24008489E+01
   0.18700000E+01           0.26676816E+01
   0.18800000E+01           0.29647460E+01
   0.18900000E+01           0.32970742E+01
   0.19000000E+01           0.36636618E+01
   0.19100000E+01           0.40727936E+01
   0.19200000E+01           0.45291957E+01
   0.19300000E+01           0.50339436E+01
   0.19400000E+01           0.55983783E+01
   0.19500000E+01           0.62246727E+01
   0.19600000E+01           0.69240288E+01
   0.19700000E+01           0.76983439E+01
   0.19800000E+01           0.85615901E+01
   0.19900000E+01           0.95234123E+01
   0.20000000E+01           0.51562289E+01
 #T=    22.0000
  -0.20000000E+01           0.00000000E+00
  -0.19900000E+01           0.00000000E+00
  -0.19800000E+01           0.00000000E+00
  -0.19700000E+01           0.00000000E+00
  -0.19600000E+01           0.00000000E+00
  -0.19500000E+01           0.00000000E+00
  -0.19400000E+01           0.00000000E+00
  -0.19300000E+01           0.00000000E+00
  -0.19200000E+01           0.00000000E+00
  -0.19100000E+01           0.00000000E+00
  -0.19000000E+01           0.00000000E+00
  -0.18900000E+01           0.00000000E+00
  -0.18800000E+01           0.00000000E+00
  -0.18700000E+01           0.00000000E+00
  -0.18600000E+01           0.00000000E+00
  -0.18500000E+01           0.00000000E+00
  -0.18400000E+01           0.00000000E+00
  -0.18300000E+01           0.00000000E+00
  -0.18200000E+01           0.00000000E+00
  -0.18100000E+01           0.00000000E+00
  -0.18000000E+01           0.00000000E+00
  -0.17900000E+01           0.00000000E+00
  -0.17800000E+01           0.00000000E+00
  -0.17700000E+01           0.00000000E+00
  -0.17600000E+01           0.00000000E+00
  -0.17500000E+01           0.00000000E+00
  -0.17400000E+01           0.00000000E+00
  -0.17300000E+01           0.00000000E+00
  -0.17200000E+01           0.00000000E+00
  -0.17100000E+01           0.00000000E+00
  -0.17000000E+01           0.00000000E+00
  -0.16900000E+01           0.00000000E+00
  -0.16800000E+01           0.00000000E+00
  -0.16700000E+01           0.00000000E+00
  -0.16600000E+01           0.00000000E+00
  -0.16500000E+01           0.00000000E+00
  -0.16400000E+01           0.00000000E+00
  -0.16300000E+01           0.00000000E+00
  -0.16200000E+01           0.00000000E+00
  -0.16100000E+01           0.00000000E+00
  -0.16000000E+01           0.00000000E+00
  -0.15900000E+01           0.00000000E+00
  -0.15800000E+01           0.00000000E+00
  -0.15700000E+01           0.00000000E+00
  -0.15600000E+01           0.00000000E+00
  -0.15500000E+01           0.00000000E+00
  -0.15400000E+01           0.00000000E+00
  -0.15300000E+01           0.00000000E+00
  -0.15200000E+01           0.00000000E+00
  -0.15100000E+01           0.00000000E+00
  -0.15000000E+01           0.00000000E+00
  -0.14900000E+01           0.00000000E+00
  -0.14800000E+01           0.00000000E+00
  -0.14700000E+01           0.00000000E+00
  -0.14600000E+01           0.00000000E+00
  -0.14500000E+01           0.00000000E+00
  -0.14400000E+01           0.00000000E+00
  -0.14300000E+01           0.00000000E+00
  -0.14200000E+01           0.00000000E+00
  -0.14100000E+01           0.00000000E+00
  -0.14000000E+01           0.00000000E+00
  -0.13900000E+01           0.00000000E+00
  -0.13800000E+01           0.00000000E+00
  -0.13700000E+01           0.00000000E+00
  -0.13600000E+01           0.00000000E+00
  -0.13500000E+01           0.00000000E+00
  -0.13400000E+01           0.00000000E+00
  -0.13300000E+01           0.00000000E+00
  -0.13200000E+01           0.00000000E+00
  -0.13100000E+01           0.00000000E+00
  -0.13000000E+01           0.00000000E+00
  -0.12900000E+01           0.00000000E+00
  -0.12800000E+01           0.00000000E+00
  -0.12700000E+01           0.00000000E+00
  -0.12600000E+01           0.00000000E+00
  -0.12500000E+01           0.00000000E+00
  -0.12400000E+01           0.00000000E+00
  -0.12300000E+01           0.00000000E+00
  -0.12200000E+01           0.00000000E+00
  -0.12100000E+01           0.00000000E+00
  -0.12000000E+01           0.00000000E+00
  -0.11900000E+01           0.00000000E+00
  -0.11800000E+01           0.00000000E+00
  -0.11700000E+01           0.00000000E+00
  -0.11600000E+01           0.00000000E+00
  -0.11500000E+01           0.00000000E+00
  -0.11400000E+01           0.00000000E+00
  -0.11300000E+01           0.00000000E+00
  -0.11200000E+01           0.00000000E+00
  -0.11100000E+01           0.00000000E+00
  -0.11000000E+01           0.00000000E+00
  -0.10900000E+01           0.00000000E+00
  -0.10800000E+01           0.00000000E+00
  -0.10700000E+01           0.00000000E+00
  -0.10600000E+01           0.00000000E+00
  -0.10500000E+01           0.00000000E+00
  -0.10400000E+01           0.00000000E+00
  -0.10300000E+01           0.00000000E+00
  -0.10200000E+01           0.00000000E+00
  -0.10100000E+01           0.00000000E+00
  -0.10000000E+01           0.00000000E+00
  -0.99000000E+00           0.00000000E+00
  -0.98000000E+00           0.00000000E+00
  -0.97000000E+00           0.00000000E+00
  -0.96000000E+00           0.00000000E+00
  -0.95000000E+00           0.00000000E+00
  -0.94000000E+00           0.00000000E+00
  -0.93000000E+00           0.00000000E+00
  -0.92000000E+00           0.00000000E+00
  -0.91000000E+00           0.00000000E+00
  -0.90000000E+00           0.00000000E+00
  -0.89000000E+00           0.00000000E+00
  -0.88000000E+00           0.00000000E+00
  -0.87000000E+00           0.00000000E+00
  -0.86000000E+00           0.00000000E+00
  -0.85000000E+00           0.00000000E+00
  -0.84000000E+00           0.00000000E+00
  -0.83000000E+00           0.00000000E+00
  -0.82000000E+00           0.00000000E+00
  -0.81000000E+00           0.00000000E+00
  -0.80000000E+00           0.00000000E+00
  -0.79000000E+00           0.00000000E+00
  -0.78000000E+00           0.00000000E+00
  -0.77000000E+00           0.00000000E+00
  -0.76000000E+00           0.00000000E+00
  -0.75000000E+00           0.00000000E+00
  -0.74000000E+00           0.00000000E+00
  -0.73000000E+00           0.00000000E+00
  -0.72000000E+00           0.00000000E+00
  -0.71000000E+00           0.00000000E+00
  -0.70000000E+00           0.00000000E+00
  -0.69000000E+00           0.00000000E+00
  -0.68000000E+00           0.00000000E+00
  -0.67000000E+00           0.00000000E+00
  -0.66000000E+00           0.00000000E+00
  -0.65000000E+00           0.00000000E+00
  -0.64000000E+00           0.00000000E+00
  -0.63000000E+00           0.00000000E+00
  -0.62000000E+00           0.00000000E+00
  -0.61000000E+00           0.00000000E+00
  -0.60000000E+00           0.00000000E+00
  -0.59000000E+00           0.00000000E+00
  -0.58000000E+00           0.00000000E+00
  -0.57000000E+00           0.00000000E+00
  -0.56000000E+00           0.00000000E+00
  -0.55000000E+00           0.00000000E+00
  -0.54000000E+00           0.00000000E+00
  -0.53000000E+00           0.00000000E+00
  -0.52000000E+00           0.00000000E+00
  -0.51000000E+00           0.00000000E+00
  -0.50000000E+00           0.00000000E+00
  -0.49000000E+00           0.00000000E+00
  -0.48000000E+00           0.00000000E+00
  -0.47000000E+00           0.00000000E+00
  -0.46000000E+00           0.00000000E+00
  -0.45000000E+00           0.00000000E+00
  -0.44000000E+00           0.00000000E+00
  -0.43000000E+00           0.00000000E+00
  -0.42000000E+00           0.00000000E+00
  -0.41000000E+00           0.00000000E+00
  -0.40000000E+00           0.00000000E+00
  -0.39000000E+00           0.00000000E+00
  -0.38000000E+00           0.00000000E+00
  -0.37000000E+00           0.00000000E+00
  -0.36000000E+00           0.00000000E+00
  -0.35000000E+00           0.00000000E+00
  -0.34000000E+00           0.00000000E+00
  -0.33000000E+00           0.00000000E+00
  -0.32000000E+00           0.00000000E+00
  -0.31000000E+00           0.00000000E+00
  -0.30000000E+00           0.00000000E+00
  -0.29000000E+00           0.00000000E+00
  -0.28000000E+00           0.00000000E+00
  -0.27000000E+00           0.00000000E+00
  -0.26000000E+00           0.00000000E+00
  -0.25000000E+00           0.00000000E+00
  -0.24000000E+00           0.00000000E+00
  -0.23000000E+00           0.00000000E+00
  -0.22000000E+00           0.00000000E+00
  -0.21000000E+00           0.00000000E+00
  -0.20000000E+00           0.00000000E+00
  -0.19000000E+00           0.00000000E+00
  -0.18000000E+00           0.00000000E+00
  -0.17000000E+00           0.00000000E+00
  -0.16000000E+00           0.00000000E+00
  -0.15000000E+00           0.00000000E+00
  -0.14000000E+00           0.00000000E+00
  -0.13000000E+00           0.00000000E+00
  -0.12000000E+00           0.00000000E+00
  -0.11000000E+00           0.00000000E+00
  -0.10000000E+00           0.00000000E+00
  -0.90000000E-01           0.00000000E+00
  -0.80000000E-01           0.00000000E+00
  -0.70000000E-01           0.00000000E+00
  -0.60000000E-01           0.00000000E+00
  -0.50000000E-01           0.00000000E+00
  -0.40000000E-01           0.00000000E+00
  -0.30000000E-01           0.00000000E+00
  -0.20000000E-01           0.00000000E+00
  -0.10000000E-01           0.00000000E+00
   0.00000000E+00           0.00000000E+00
   0.10000000E-01           0.00000000E+00
   0.20000000E-01           0.88183422E-07
   0.30000000E-01           0.00000000E+00
   0.40000000E-01           0.00000000E+00
   0.50000000E-01           0.00000000E+00
   0.60000000E-01           0.00000000E+00
   0.70000000E-01           0.00000000E+00
   0.80000000E-01           0.88183422E-07
   0.90000000E-01           0.17636684E-06
   0.10000000E+00           0.88183422E-07
   0.11000000E+00           0.88183422E-07
   0.12000000E+00           0.26455026E-06
   0.13000000E+00           0.17636684E-06
   0.14000000E+00           0.26455026E-06
   0.15000000E+00           0.35273369E-06
   0.16000000E+00           0.35273369E-06
   0.17000000E+00           0.35273369E-06
   0.18000000E+00           0.17636684E-06
   0.19000000E+00           0.26455026E-06
   0.20000000E+00           0.88183422E-07
   0.21000000E+00           0.26455026E-06
   0.22000000E+00           0.35273369E-06
   0.23000000E+00           0.17636684E-06
   0.24000000E+00           0.88183422E-07
   0.25000000E+00           0.61728395E-06
   0.26000000E+00           0.44091711E-06
   0.27000000E+00           0.17636684E-06
   0.28000000E+00           0.52910053E-06
   0.29000000E+00           0.44091711E-06
   0.30000000E+00           0.79365079E-06
   0.31000000E+00           0.10582011E-05
   0.32000000E+00           0.61728395E-06
   0.33000000E+00           0.88183422E-06
   0.34000000E+00           0.61728395E-06
   0.35000000E+00           0.14991182E-05
   0.36000000E+00           0.97001764E-06
   0.37000000E+00           0.14109347E-05
   0.38000000E+00           0.17636684E-05
   0.39000000E+00           0.14109347E-05
   0.40000000E+00           0.22045855E-05
   0.41000000E+00           0.14991182E-05
   0.42000000E+00           0.19400353E-05
   0.43000000E+00           0.18518519E-05
   0.44000000E+00           0.24691358E-05
   0.45000000E+00           0.30864198E-05
   0.46000000E+00           0.32627866E-05
   0.47000000E+00           0.33509700E-05
   0.48000000E+00           0.39682540E-05
   0.49000000E+00           0.50264550E-05
   0.50000000E+00           0.39682540E-05
   0.51000000E+00           0.49382716E-05
   0.52000000E+00           0.61728395E-05
   0.53000000E+00           0.63492063E-05
   0.54000000E+00           0.70546737E-05
   0.55000000E+00           0.81128748E-05
   0.56000000E+00           0.80246914E-05
   0.57000000E+00           0.10582011E-04
   0.58000000E+00           0.10670194E-04
   0.59000000E+00           0.94356261E-05
   0.60000000E+00           0.11463845E-04
   0.61000000E+00           0.14021164E-04
   0.62000000E+00           0.15432099E-04
   0.63000000E+00           0.15696649E-04
   0.64000000E+00           0.18253968E-04
   0.65000000E+00           0.20634921E-04
   0.66000000E+00           0.21957672E-04
   0.67000000E+00           0.24162257E-04
   0.68000000E+00           0.27425044E-04
   0.69000000E+00           0.28130511E-04
   0.70000000E+00           0.32186949E-04
   0.71000000E+00           0.32098765E-04
   0.72000000E+00           0.37477954E-04
   0.73000000E+00           0.42063492E-04
   0.74000000E+00           0.45855379E-04
   0.75000000E+00           0.48765432E-04
   0.76000000E+00           0.58112875E-04
   0.77000000E+00           0.60493827E-04
   0.78000000E+00           0.71252205E-04
   0.79000000E+00           0.73809524E-04
   0.80000000E+00           0.76543210E-04
   0.81000000E+00           0.92328042E-04
   0.82000000E+00           0.94268078E-04
   0.83000000E+00           0.10740741E-03
   0.84000000E+00           0.12098765E-03
   0.85000000E+00           0.13456790E-03
   0.86000000E+00           0.14197531E-03
   0.87000000E+00           0.14982363E-03
   0.88000000E+00           0.17310406E-03
   0.89000000E+00           0.18977072E-03
   0.90000000E+00           0.21578483E-03
   0.91000000E+00           0.23059965E-03
   0.92000000E+00           0.25167549E-03
   0.93000000E+00           0.27663139E-03
   0.94000000E+00           0.31790123E-03
   0.95000000E+00           0.33897707E-03
   0.96000000E+00           0.37451499E-03
   0.97000000E+00           0.40723104E-03
   0.98000000E+00           0.45361552E-03
   0.99000000E+00           0.48650794E-03
   0.10000000E+01           0.55405644E-03
   0.10100000E+01           0.60211640E-03
   0.10200000E+01           0.64770723E-03
   0.10300000E+01           0.71146384E-03
   0.10400000E+01           0.79197531E-03
   0.10500000E+01           0.87072310E-03
   0.10600000E+01           0.96940035E-03
   0.10700000E+01           0.10607584E-02
   0.10800000E+01           0.11747795E-02
   0.10900000E+01           0.12801587E-02
   0.11000000E+01           0.14189594E-02
   0.11100000E+01           0.15549383E-02
   0.11200000E+01           0.17285714E-02
   0.11300000E+01           0.18977954E-02
   0.11400000E+01           0.21032628E-02
   0.11500000E+01           0.22993827E-02
   0.11600000E+01           0.25384480E-02
   0.11700000E+01           0.27578483E-02
   0.11800000E+01           0.30776896E-02
   0.11900000E+01           0.34058201E-02
   0.12000000E+01           0.37242504E-02
   0.12100000E+01           0.41118166E-02
   0.12200000E+01           0.45199295E-02
   0.12300000E+01           0.49621693E-02
   0.12400000E+01           0.55190476E-02
   0.12500000E+01           0.60111993E-02
   0.12600000E+01           0.66500000E-02
   0.12700000E+01           0.73365961E-02
   0.12800000E+01           0.80837743E-02
   0.12900000E+01           0.89178131E-02
   0.13000000E+01           0.98171958E-02
   0.13100000E+01           0.10817989E-01
   0.13200000E+01           0.11928660E-01
   0.13300000E+01           0.13138360E-01
   0.13400000E+01           0.14478219E-01
   0.13500000E+01           0.15872222E-01
   0.13600000E+01           0.17533422E-01
   0.13700000E+01           0.19371517E-01
   0.13800000E+01           0.21360847E-01
   0.13900000E+01           0.23575132E-01
   0.14000000E+01           0.25958201E-01
   0.14100000E+01           0.28649471E-01
   0.14200000E+01           0.31484832E-01
   0.14300000E+01           0.34789065E-01
   0.14400000E+01           0.38471605E-01
   0.14500000E+01           0.42258554E-01
   0.14600000E+01           0.46585009E-01
   0.14700000E+01           0.51621517E-01
   0.14800000E+01           0.56604056E-01
   0.14900000E+01           0.62604586E-01
   0.15000000E+01           0.68990300E-01
   0.15100000E+01           0.76103880E-01
   0.15200000E+01           0.83968342E-01
   0.15300000E+01           0.92555732E-01
   0.15400000E+01           0.10212760E+00
   0.15500000E+01           0.11270935E+00
   0.15600000E+01           0.12456640E+00
   0.15700000E+01           0.13743695E+00
   0.15800000E+01           0.15178395E+00
   0.15900000E+01           0.16726340E+00
   0.16000000E+01           0.18479171E+00
   0.16100000E+01           0.20391252E+00
   0.16200000E+01           0.22526041E+00
   0.16300000E+01           0.24841243E+00
   0.16400000E+01           0.27411764E+00
   0.16500000E+01           0.30306720E+00
   0.16600000E+01           0.33414215E+00
   0.16700000E+01           0.36916508E+00
   0.16800000E+01           0.40809806E+00
   0.16900000E+01           0.45042654E+00
   0.17000000E+01           0.49724718E+00
   0.17100000E+01           0.54909048E+00
   0.17200000E+01           0.60652169E+00
   0.17300000E+01           0.66939074E+00
   0.17400000E+01           0.73997125E+00
   0.17500000E+01           0.81815529E+00
   0.17600000E+01           0.90336834E+00
   0.17700000E+01           0.99774233E+00
   0.17800000E+01           0.11023780E+01
   0.17900000E+01           0.12179362E+01
   0.18000000E+01           0.13458320E+01
   0.18100000E+01           0.14883626E+01
   0.18200000E+01           0.16439586E+01
   0.18300000E+01           0.18190146E+01
   0.18400000E+01           0.20071969E+01
   0.18500000E+01           0.22210486E+01
   0.18600000E+01           0.24549750E+01
   0.18700000E+01           0.27136095E+01
   0.18800000E+01           0.29996086E+01
   0.18900000E+01           0.33176111E+01
   0.19000000E+01           0.36690851E+01
   0.19100000E+01           0.40563116E+01
   0.19200000E+01           0.44862902E+01
   0.19300000E+01           0.49623502E+01
   0.19400000E+01           0.54894593E+01
   0.19500000E+01           0.60696657E+01
   0.19600000E+01           0.67145938E+01
   0.19700000E+01           0.74286233E+01
   0.19800000E+01           0.82195411E+01
   0.19900000E+01           0.90954614E+01
   0.20000000E+01           0.49030422E+01
 #T=    23.0000
  -0.20000000E+01           0.00000000E+00
  -0.19900000E+01           0.00000000E+00
  -0.19800000E+01           0.00000000E+00
  -0.19700000E+01           0.00000000E+00
  -0.19600000E+01           0.00000000E+00
  -0.19500000E+01           0.00000000E+00
  -0.19400000E+01           0.00000000E+00
  -0.19300000E+01           0.00000000E+00
  -0.19200000E+01           0.00000000E+00
  -0.19100000E+01           0.00000000E+00
  -0.19000000E+01           0.00000000E+00
  -0.18900000E+01           0.00000000E+00
  -0.18800000E+01           0.00000000E+00
  -0.18700000E+01           0.00000000E+00
  -0.18600000E+01           0.00000000E+00
  -0.18500000E+01           0.00000000E+00
  -0.18400000E+01           0.00000000E+00
  -0.18300000E+01           0.00000000E+00
  -0.18200000E+01           0.00000000E+00
  -0.18100000E+01           0.00000000E+00
  -0.18000000E+01           0.00000000E+00
  -0.17900000E+01           0.00000000E+00
  -0.17800000E+01           0.00000000E+00
  -0.17700000E+01           0.00000000E+00
  -0.17600000E+01           0.00000000E+00
  -0.17500000E+01           0.00000000E+00
  -0.17400000E+01           0.00000000E+00
  -0.17300000E+01           0.00000000E+00
  -0.17200000E+01           0.00000000E+00
  -0.17100000E+01           0.00000000E+00
  -0.17000000E+01           0.00000000E+00
  -0.16900000E+01           0.00000000E+00
  -0.16800000E+01           0.00000000E+00
  -0.16700000E+01           0.00000000E+00
  -0.16600000E+01           0.00000000E+00
  -0.16500000E+01           0.00000000E+00
  -0.16400000E+01           0.00000000E+00
  -0.16300000E+01           0.00000000E+00
  -0.16200000E+01           0.00000000E+00
  -0.16100000E+01           0.00000000E+00
  -0.16000000E+01           0.00000000E+00
  -0.15900000E+01           0.00000000E+00
  -0.15800000E+01           0.00000000E+00
  -0.15700000E+01           0.00000000E+00
  -0.15600000E+01           0.00000000E+00
  -0.15500000E+01           0.00000000E+00
  -0.15400000E+01           0.00000000E+00
  -0.15300000E+01           0.00000000E+00
  -0.15200000E+01           0.00000000E+00
  -0.15100000E+01           0.00000000E+00
  -0.15000000E+01           0.00000000E+00
  -0.14900000E+01           0.00000000E+00
  -0.14800000E+01           0.00000000E+00
  -0.14700000E+01           0.00000000E+00
  -0.14600000E+01           0.00000000E+00
  -0.14500000E+01           0.00000000E+00
  -0.14400000E+01           0.00000000E+00
  -0.14300000E+01           0.00000000E+00
  -0.14200000E+01           0.00000000E+00
  -0.14100000E+01           0.00000000E+00
  -0.14000000E+01           0.00000000E+00
  -0.13900000E+01           0.00000000E+00
  -0.13800000E+01           0.00000000E+00
  -0.13700000E+01           0.00000000E+00
  -0.13600000E+01           0.00000000E+00
  -0.13500000E+01           0.00000000E+00
  -0.13400000E+01           0.00000000E+00
  -0.13300000E+01           0.00000000E+00
  -0.13200000E+01           0.00000000E+00
  -0.13100000E+01           0.00000000E+00
  -0.13000000E+01           0.00000000E+00
  -0.12900000E+01           0.00000000E+00
  -0.12800000E+01           0.00000000E+00
  -0.12700000E+01           0.00000000E+00
  -0.12600000E+01           0.00000000E+00
  -0.12500000E+01           0.00000000E+00
  -0.12400000E+01           0.00000000E+00
  -0.12300000E+01           0.00000000E+00
  -0.12200000E+01           0.00000000E+00
  -0.12100000E+01           0.00000000E+00
  -0.12000000E+01           0.00000000E+00
  -0.11900000E+01           0.00000000E+00
  -0.11800000E+01           0.00000000E+00
  -0.11700000E+01           0.00000000E+00
  -0.11600000E+01           0.00000000E+00
  -0.11500000E+01           0.00000000E+00
  -0.11400000E+01           0.00000000E+00
  -0.11300000E+01           0.00000000E+00
  -0.11200000E+01           0.00000000E+00
  -0.11100000E+01           0.00000000E+00
  -0.11000000E+01           0.00000000E+00
  -0.10900000E+01           0.00000000E+00
  -0.10800000E+01           0.00000000E+00
  -0.10700000E+01           0.00000000E+00
  -0.10600000E+01           0.00000000E+00
  -0.10500000E+01           0.00000000E+00
  -0.10400000E+01           0.00000000E+00
  -0.10300000E+01           0.00000000E+00
  -0.10200000E+01           0.00000000E+00
  -0.10100000E+01           0.00000000E+00
  -0.10000000E+01           0.00000000E+00
  -0.99000000E+00           0.00000000E+00
  -0.98000000E+00           0.00000000E+00
  -0.97000000E+00           0.00000000E+00
  -0.96000000E+00           0.00000000E+00
  -0.95000000E+00           0.00000000E+00
  -0.94000000E+00           0.00000000E+00
  -0.93000000E+00           0.00000000E+00
  -0.92000000E+00           0.00000000E+00
  -0.91000000E+00           0.00000000E+00
  -0.90000000E+00           0.00000000E+00
  -0.89000000E+00           0.00000000E+00
  -0.88000000E+00           0.00000000E+00
  -0.87000000E+00           0.00000000E+00
  -0.86000000E+00           0.00000000E+00
  -0.85000000E+00           0.00000000E+00
  -0.84000000E+00           0.00000000E+00
  -0.83000000E+00           0.00000000E+00
  -0.82000000E+00           0.00000000E+00
  -0.81000000E+00           0.00000000E+00
  -0.80000000E+00           0.00000000E+00
  -0.79000000E+00           0.00000000E+00
  -0.78000000E+00           0.00000000E+00
  -0.77000000E+00           0.00000000E+00
  -0.76000000E+00           0.00000000E+00
  -0.75000000E+00           0.00000000E+00
  -0.74000000E+00           0.00000000E+00
  -0.73000000E+00           0.00000000E+00
  -0.72000000E+00           0.00000000E+00
  -0.71000000E+00           0.00000000E+00
  -0.70000000E+00           0.00000000E+00
  -0.69000000E+00           0.00000000E+00
  -0.68000000E+00           0.00000000E+00
  -0.67000000E+00           0.00000000E+00
  -0.66000000E+00           0.00000000E+00
  -0.65000000E+00           0.00000000E+00
  -0.64000000E+00           0.00000000E+00
  -0.63000000E+00           0.00000000E+00
  -0.62000000E+00           0.00000000E+00
  -0.61000000E+00           0.00000000E+00
  -0.60000000E+00           0.00000000E+00
  -0.59000000E+00           0.00000000E+00
  -0.58000000E+00           0.00000000E+00
  -0.57000000E+00           0.00000000E+00
  -0.56000000E+00           0.00000000E+00
  -0.55000000E+00           0.00000000E+00
  -0.54000000E+00           0.00000000E+00
  -0.53000000E+00           0.00000000E+00
  -0.52000000E+00           0.00000000E+00
  -0.51000000E+00           0.00000000E+00
  -0.50000000E+00           0.00000000E+00
  -0.49000000E+00           0.00000000E+00
  -0.48000000E+00           0.00000000E+00
  -0.47000000E+00           0.00000000E+00
  -0.46000000E+00           0.00000000E+00
  -0.45000000E+00           0.00000000E+00
  -0.44000000E+00           0.00000000E+00
  -0.43000000E+00           0.00000000E+00
  -0.42000000E+00           0.00000000E+00
  -0.41000000E+00           0.00000000E+00
  -0.40000000E+00           0.00000000E+00
  -0.39000000E+00           0.00000000E+00
  -0.38000000E+00           0.00000000E+00
  -0.37000000E+00           0.00000000E+00
  -0.36000000E+00           0.00000000E+00
  -0.35000000E+00           0.00000000E+00
  -0.34000000E+00           0.00000000E+00
  -0.33000000E+00           0.00000000E+00
  -0.32000000E+00           0.00000000E+00
  -0.31000000E+00           0.00000000E+00
  -0.30000000E+00           0.00000000E+00
  -0.29000000E+00           0.00000000E+00
  -0.28000000E+00           0.00000000E+00
  -0.27000000E+00           0.00000000E+00
  -0.26000000E+00           0.00000000E+00
  -0.25000000E+00           0.00000000E+00
  -0.24000000E+00           0.00000000E+00
  -0.23000000E+00           0.00000000E+00
  -0.22000000E+00           0.00000000E+00
  -0.21000000E+00           0.00000000E+00
  -0.20000000E+00           0.00000000E+00
  -0.19000000E+00           0.00000000E+00
  -0.18000000E+00           0.00000000E+00
  -0.17000000E+00           0.00000000E+00
  -0.16000000E+00           0.00000000E+00
  -0.15000000E+00           0.00000000E+00
  -0.14000000E+00           0.00000000E+00
  -0.13000000E+00           0.00000000E+00
  -0.12000000E+00           0.00000000E+00
  -0.11000000E+00           0.00000000E+00
  -0.10000000E+00           0.00000000E+00
  -0.90000000E-01           0.00000000E+00
  -0.80000000E-01           0.00000000E+00
  -0.70000000E-01           0.00000000E+00
  -0.60000000E-01           0.00000000E+00
  -0.50000000E-01           0.00000000E+00
  -0.40000000E-01           0.00000000E+00
  -0.30000000E-01           0.00000000E+00
  -0.20000000E-01           0.00000000E+00
  -0.10000000E-01           0.00000000E+00
   0.00000000E+00           0.00000000E+00
   0.10000000E-01           0.00000000E+00
   0.20000000E-01           0.17636684E-06
   0.30000000E-01           0.00000000E+00
   0.40000000E-01           0.88183422E-07
   0.50000000E-01           0.00000000E+00
   0.60000000E-01           0.35273369E-06
   0.70000000E-01           0.17636684E-06
   0.80000000E-01           0.44091711E-06
   0.90000000E-01           0.44091711E-06
   0.10000000E+00           0.70546737E-06
   0.11000000E+00           0.00000000E+00
   0.12000000E+00           0.26455026E-06
   0.13000000E+00           0.26455026E-06
   0.14000000E+00           0.88183422E-07
   0.15000000E+00           0.17636684E-06
   0.16000000E+00           0.79365079E-06
   0.17000000E+00           0.44091711E-06
   0.18000000E+00           0.35273369E-06
   0.19000000E+00           0.35273369E-06
   0.20000000E+00           0.26455026E-06
   0.21000000E+00           0.52910053E-06
   0.22000000E+00           0.10582011E-05
   0.23000000E+00           0.61728395E-06
   0.24000000E+00           0.79365079E-06
   0.25000000E+00           0.10582011E-05
   0.26000000E+00           0.14991182E-05
   0.27000000E+00           0.97001764E-06
   0.28000000E+00           0.13227513E-05
   0.29000000E+00           0.17636684E-05
   0.30000000E+00           0.14109347E-05
   0.31000000E+00           0.14991182E-05
   0.32000000E+00           0.11463845E-05
   0.33000000E+00           0.13227513E-05
   0.34000000E+00           0.22045855E-05
   0.35000000E+00           0.20282187E-05
   0.36000000E+00           0.21164021E-05
   0.37000000E+00           0.29982363E-05
   0.38000000E+00           0.35273369E-05
   0.39000000E+00           0.31746032E-05
   0.40000000E+00           0.33509700E-05
   0.41000000E+00           0.48500882E-05
   0.42000000E+00           0.45855379E-05
   0.43000000E+00           0.50264550E-05
   0.44000000E+00           0.58201058E-05
   0.45000000E+00           0.59082892E-05
   0.46000000E+00           0.66137566E-05
   0.47000000E+00           0.69664903E-05
   0.48000000E+00           0.90828924E-05
   0.49000000E+00           0.93474427E-05
   0.50000000E+00           0.71428571E-05
   0.51000000E+00           0.10670194E-04
   0.52000000E+00           0.10670194E-04
   0.53000000E+00           0.14109347E-04
   0.54000000E+00           0.12786596E-04
   0.55000000E+00           0.13403880E-04
   0.56000000E+00           0.15873016E-04
   0.57000000E+00           0.18077601E-04
   0.58000000E+00           0.17460317E-04
   0.59000000E+00           0.21075838E-04
   0.60000000E+00           0.22751323E-04
   0.61000000E+00           0.27689594E-04
   0.62000000E+00           0.25749559E-04
   0.63000000E+00           0.32098765E-04
   0.64000000E+00           0.34126984E-04
   0.65000000E+00           0.35626102E-04
   0.66000000E+00           0.40035273E-04
   0.67000000E+00           0.42680776E-04
   0.68000000E+00           0.44973545E-04
   0.69000000E+00           0.48941799E-04
   0.70000000E+00           0.53439153E-04
   0.71000000E+00           0.59876543E-04
   0.72000000E+00           0.69576720E-04
   0.73000000E+00           0.72310406E-04
   0.74000000E+00           0.75837743E-04
   0.75000000E+00           0.88888889E-04
   0.76000000E+00           0.93386243E-04
   0.77000000E+00           0.96296296E-04
   0.78000000E+00           0.11410935E-03
   0.79000000E+00           0.12134039E-03
   0.80000000E+00           0.13783069E-03
   0.81000000E+00           0.15555556E-03
   0.82000000E+00           0.15881834E-03
   0.83000000E+00           0.17363316E-03
   0.84000000E+00           0.19814815E-03
   0.85000000E+00           0.21128748E-03
   0.86000000E+00           0.23871252E-03
   0.87000000E+00           0.25599647E-03
   0.88000000E+00           0.27910053E-03
   0.89000000E+00           0.30141093E-03
   0.90000000E+00           0.33624339E-03
   0.91000000E+00           0.36119929E-03
   0.92000000E+00           0.40511464E-03
   0.93000000E+00           0.43977072E-03
   0.94000000E+00           0.46904762E-03
   0.95000000E+00           0.53377425E-03
   0.96000000E+00           0.58421517E-03
   0.97000000E+00           0.64153439E-03
   0.98000000E+00           0.69197531E-03
   0.99000000E+00           0.77328042E-03
   0.10000000E+01           0.83615520E-03
   0.10100000E+01           0.91040564E-03
   0.10200000E+01           0.99797178E-03
   0.10300000E+01           0.11074956E-02
   0.10400000E+01           0.12071429E-02
   0.10500000E+01           0.12974427E-02
   0.10600000E+01           0.14117284E-02
   0.10700000E+01           0.16012346E-02
   0.10800000E+01           0.17367725E-02
   0.10900000E+01           0.19035273E-02
   0.11000000E+01           0.20531746E-02
   0.11100000E+01           0.22813051E-02
   0.11200000E+01           0.25075838E-02
   0.11300000E+01           0.27238977E-02
   0.11400000E+01           0.30379189E-02
   0.11500000E+01           0.32896825E-02
   0.11600000E+01           0.36222222E-02
   0.11700000E+01           0.39229277E-02
   0.11800000E+01           0.43066138E-02
   0.11900000E+01           0.47488536E-02
   0.12000000E+01           0.52036155E-02
   0.12100000E+01           0.56489418E-02
   0.12200000E+01           0.62666667E-02
   0.12300000E+01           0.68884480E-02
   0.12400000E+01           0.74865079E-02
   0.12500000E+01           0.82268078E-02
   0.12600000E+01           0.90649912E-02
   0.12700000E+01           0.98908289E-02
   0.12800000E+01           0.10820106E-01
   0.12900000E+01           0.11931746E-01
   0.13000000E+01           0.13059700E-01
   0.13100000E+01           0.14284127E-01
   0.13200000E+01           0.15710053E-01
   0.13300000E+01           0.17255996E-01
   0.13400000E+01           0.18948677E-01
   0.13500000E+01           0.20720723E-01
   0.13600000E+01           0.22777249E-01
   0.13700000E+01           0.24916138E-01
   0.13800000E+01           0.27412787E-01
   0.13900000E+01           0.30018871E-01
   0.14000000E+01           0.32906526E-01
   0.14100000E+01           0.36165873E-01
   0.14200000E+01           0.39657319E-01
   0.14300000E+01           0.43535979E-01
   0.14400000E+01           0.47784832E-01
   0.14500000E+01           0.52617901E-01
   0.14600000E+01           0.57464109E-01
   0.14700000E+01           0.63230247E-01
   0.14800000E+01           0.69267901E-01
   0.14900000E+01           0.76131658E-01
   0.15000000E+01           0.83673280E-01
   0.15100000E+01           0.91707672E-01
   0.15200000E+01           0.10077090E+00
   0.15300000E+01           0.11070141E+00
   0.15400000E+01           0.12137646E+00
   0.15500000E+01           0.13343880E+00
   0.15600000E+01           0.14648342E+00
   0.15700000E+01           0.16089541E+00
   0.15800000E+01           0.17678254E+00
   0.15900000E+01           0.19391711E+00
   0.16000000E+01           0.21324903E+00
   0.16100000E+01           0.23439206E+00
   0.16200000E+01           0.25777522E+00
   0.16300000E+01           0.28276420E+00
   0.16400000E+01           0.31056702E+00
   0.16500000E+01           0.34144383E+00
   0.16600000E+01           0.37511772E+00
   0.16700000E+01           0.41187566E+00
   0.16800000E+01           0.45285864E+00
   0.16900000E+01           0.49755944E+00
   0.17000000E+01           0.54709189E+00
   0.17100000E+01           0.60172672E+00
   0.17200000E+01           0.66067169E+00
   0.17300000E+01           0.72633422E+00
   0.17400000E+01           0.79857390E+00
   0.17500000E+01           0.87792892E+00
   0.17600000E+01           0.96479991E+00
   0.17700000E+01           0.10618153E+01
   0.17800000E+01           0.11673468E+01
   0.17900000E+01           0.12835238E+01
   0.18000000E+01           0.14117743E+01
   0.18100000E+01           0.15536185E+01
   0.18200000E+01           0.17072490E+01
   0.18300000E+01           0.18786587E+01
   0.18400000E+01           0.20656205E+01
   0.18500000E+01           0.22710283E+01
   0.18600000E+01           0.24995492E+01
   0.18700000E+01           0.27510620E+01
   0.18800000E+01           0.30278044E+01
   0.18900000E+01           0.33298526E+01
   0.19000000E+01           0.36649220E+01
   0.19100000E+01           0.40319613E+01
   0.19200000E+01           0.44358019E+01
   0.19300000E+01           0.48843897E+01
   0.19400000E+01           0.53754947E+01
   0.19500000E+01           0.59178711E+01
   0.19600000E+01           0.65145860E+01
   0.19700000E+01           0.71703747E+01
   0.19800000E+01           0.78967233E+01
   0.19900000E+01           0.86941131E+01
   0.20000000E+01           0.46707965E+01
 #T=    24.0000
  -0.20000000E+01           0.00000000E+00
  -0.19900000E+01           0.00000000E+00
  -0.19800000E+01           0.00000000E+00
  -0.19700000E+01           0.00000000E+00
  -0.19600000E+01           0.00000000E+00
  -0.19500000E+01           0.00000000E+00
  -0.19400000E+01           0.00000000E+00
  -0.19300000E+01           0.00000000E+00
  -0.19200000E+01           0.00000000E+00
  -0.19100000E+01           0.00000000E+00
  -0.19000000E+01           0.00000000E+00
  -0.18900000E+01           0.00000000E+00
  -0.18800000E+01           0.00000000E+00
  -0.18700000E+01           0.00000000E+00
  -0.18600000E+01           0.00000000E+00
  -0.18500000E+01           0.00000000E+00
  -0.18400000E+01           0.00000000E+00
  -0.18300000E+01           0.00000000E+00
  -0.18200000E+01           0.00000000E+00
  -0.18100000E+01           0.00000000E+00
  -0.18000000E+01           0.00000000E+00
  -0.17900000E+01           0.00000000E+00
  -0.17800000E+01           0.00000000E+00
  -0.17700000E+01           0.00000000E+00
  -0.17600000E+01           0.00000000E+00
  -0.17500000E+01           0.00000000E+00
  -0.17400000E+01           0.00000000E+00
  -0.17300000E+01           0.00000000E+00
  -0.17200000E+01           0.00000000E+00
  -0.17100000E+01           0.00000000E+00
  -0.17000000E+01           0.00000000E+00
  -0.16900000E+01           0.00000000E+00
  -0.16800000E+01           0.00000000E+00
  -0.16700000E+01           0.00000000E+00
  -0.16600000E+01           0.00000000E+00
  -0.16500000E+01           0.00000000E+00
  -0.16400000E+01           0.00000000E+00
  -0.16300000E+01           0.00000000E+00
  -0.16200000E+01           0.00000000E+00
  -0.16100000E+01           0.00000000E+00
  -0.16000000E+01           0.00000000E+00
  -0.15900000E+01           0.00000000E+00
  -0.15800000E+01           0.00000000E+00
  -0.15700000E+01           0.00000000E+00
  -0.15600000E+01           0.00000000E+00
  -0.15500000E+01           0.00000000E+00
  -0.15400000E+01           0.00000000E+00
  -0.15300000E+01           0.00000000E+00
  -0.15200000E+01           0.00000000E+00
  -0.15100000E+01           0.00000000E+00
  -0.15000000E+01           0.00000000E+00
  -0.14900000E+01           0.00000000E+00
  -0.14800000E+01           0.00000000E+00
  -0.14700000E+01           0.00000000E+00
  -0.14600000E+01           0.00000000E+00
  -0.14500000E+01           0.00000000E+00
  -0.14400000E+01           0.00000000E+00
  -0.14300000E+01           0.00000000E+00
  -0.14200000E+01           0.00000000E+00
  -0.14100000E+01           0.00000000E+00
  -0.14000000E+01           0.00000000E+00
  -0.13900000E+01           0.00000000E+00
  -0.13800000E+01           0.00000000E+00
  -0.13700000E+01           0.00000000E+00
  -0.13600000E+01           0.00000000E+00
  -0.13500000E+01           0.00000000E+00
  -0.13400000E+01           0.00000000E+00
  -0.13300000E+01           0.00000000E+00
  -0.13200000E+01           0.00000000E+00
  -0.13100000E+01           0.00000000E+00
  -0.13000000E+01           0.00000000E+00
  -0.12900000E+01           0.00000000E+00
  -0.12800000E+01           0.00000000E+00
  -0.12700000E+01           0.00000000E+00
  -0.12600000E+01           0.00000000E+00
  -0.12500000E+01           0.00000000E+00
  -0.12400000E+01           0.00000000E+00
  -0.12300000E+01           0.00000000E+00
  -0.12200000E+01           0.00000000E+00
  -0.12100000E+01           0.00000000E+00
  -0.12000000E+01           0.00000000E+00
  -0.11900000E+01           0.00000000E+00
  -0.11800000E+01           0.00000000E+00
  -0.11700000E+01           0.00000000E+00
  -0.11600000E+01           0.00000000E+00
  -0.11500000E+01           0.00000000E+00
  -0.11400000E+01           0.00000000E+00
  -0.11300000E+01           0.00000000E+00
  -0.11200000E+01           0.00000000E+00
  -0.11100000E+01           0.00000000E+00
  -0.11000000E+01           0.00000000E+00
  -0.10900000E+01           0.00000000E+00
  -0.10800000E+01           0.00000000E+00
  -0.10700000E+01           0.00000000E+00
  -0.10600000E+01           0.00000000E+00
  -0.10500000E+01           0.00000000E+00
  -0.10400000E+01           0.00000000E+00
  -0.10300000E+01           0.00000000E+00
  -0.10200000E+01           0.00000000E+00
  -0.10100000E+01           0.00000000E+00
  -0.10000000E+01           0.00000000E+00
  -0.99000000E+00           0.00000000E+00
  -0.98000000E+00           0.00000000E+00
  -0.97000000E+00           0.00000000E+00
  -0.96000000E+00           0.00000000E+00
  -0.95000000E+00           0.00000000E+00
  -0.94000000E+00           0.00000000E+00
  -0.93000000E+00           0.00000000E+00
  -0.92000000E+00           0.00000000E+00
  -0.91000000E+00           0.00000000E+00
  -0.90000000E+00           0.00000000E+00
  -0.89000000E+00           0.00000000E+00
  -0.88000000E+00           0.00000000E+00
  -0.87000000E+00           0.00000000E+00
  -0.86000000E+00           0.00000000E+00
  -0.85000000E+00           0.00000000E+00
  -0.84000000E+00           0.00000000E+00
  -0.83000000E+00           0.00000000E+00
  -0.82000000E+00           0.00000000E+00
  -0.81000000E+00           0.00000000E+00
  -0.80000000E+00           0.00000000E+00
  -0.79000000E+00           0.00000000E+00
  -0.78000000E+00           0.00000000E+00
  -0.77000000E+00           0.00000000E+00
  -0.76000000E+00           0.00000000E+00
  -0.75000000E+00           0.00000000E+00
  -0.74000000E+00           0.00000000E+00
  -0.73000000E+00           0.00000000E+00
  -0.72000000E+00           0.00000000E+00
  -0.71000000E+00           0.00000000E+00
  -0.70000000E+00           0.00000000E+00
  -0.69000000E+00           0.00000000E+00
  -0.68000000E+00           0.00000000E+00
  -0.67000000E+00           0.00000000E+00
  -0.66000000E+00           0.00000000E+00
  -0.65000000E+00           0.00000000E+00
  -0.64000000E+00           0.00000000E+00
  -0.63000000E+00           0.00000000E+00
  -0.62000000E+00           0.00000000E+00
  -0.61000000E+00           0.00000000E+00
  -0.60000000E+00           0.00000000E+00
  -0.59000000E+00           0.00000000E+00
  -0.58000000E+00           0.00000000E+00
  -0.57000000E+00           0.00000000E+00
  -0.56000000E+00           0.00000000E+00
  -0.55000000E+00           0.00000000E+00
  -0.54000000E+00           0.00000000E+00
  -0.53000000E+00           0.00000000E+00
  -0.52000000E+00           0.00000000E+00
  -0.51000000E+00           0.00000000E+00
  -0.50000000E+00           0.00000000E+00
  -0.49000000E+00           0.00000000E+00
  -0.48000000E+00           0.00000000E+00
  -0.47000000E+00           0.00000000E+00
  -0.46000000E+00           0.00000000E+00
  -0.45000000E+00           0.00000000E+00
  -0.44000000E+00           0.00000000E+00
  -0.43000000E+00           0.00000000E+00
  -0.42000000E+00           0.00000000E+00
  -0.41000000E+00           0.00000000E+00
  -0.40000000E+00           0.00000000E+00
  -0.39000000E+00           0.00000000E+00
  -0.38000000E+00           0.00000000E+00
  -0.37000000E+00           0.00000000E+00
  -0.36000000E+00           0.00000000E+00
  -0.35000000E+00           0.00000000E+00
  -0.34000000E+00           0.00000000E+00
  -0.33000000E+00           0.00000000E+00
  -0.32000000E+00           0.00000000E+00
  -0.31000000E+00           0.00000000E+00
  -0.30000000E+00           0.00000000E+00
  -0.29000000E+00           0.00000000E+00
  -0.28000000E+00           0.00000000E+00
  -0.27000000E+00           0.00000000E+00
  -0.26000000E+00           0.00000000E+00
  -0.25000000E+00           0.00000000E+00
  -0.24000000E+00           0.00000000E+00
  -0.23000000E+00           0.00000000E+00
  -0.22000000E+00           0.00000000E+00
  -0.21000000E+00           0.00000000E+00
  -0.20000000E+00           0.00000000E+00
  -0.19000000E+00           0.00000000E+00
  -0.18000000E+00           0.00000000E+00
  -0.17000000E+00           0.00000000E+00
  -0.16000000E+00           0.00000000E+00
  -0.15000000E+00           0.00000000E+00
  -0.14000000E+00           0.00000000E+00
  -0.13000000E+00           0.00000000E+00
  -0.12000000E+00           0.00000000E+00
  -0.11000000E+00           0.00000000E+00
  -0.10000000E+00           0.00000000E+00
  -0.90000000E-01           0.00000000E+00
  -0.80000000E-01           0.00000000E+00
  -0.70000000E-01           0.00000000E+00
  -0.60000000E-01           0.00000000E+00
  -0.50000000E-01           0.00000000E+00
  -0.40000000E-01           0.00000000E+00
  -0.30000000E-01           0.00000000E+00
  -0.20000000E-01           0.00000000E+00
  -0.10000000E-01           0.00000000E+00
   0.00000000E+00           0.00000000E+00
   0.10000000E-01           0.00000000E+00
   0.20000000E-01           0.00000000E+00
   0.30000000E-01           0.88183422E-07
   0.40000000E-01           0.26455026E-06
   0.50000000E-01           0.35273369E-06
   0.60000000E-01           0.26455026E-06
   0.70000000E-01           0.44091711E-06
   0.80000000E-01           0.26455026E-06
   0.90000000E-01           0.26455026E-06
   0.10000000E+00           0.17636684E-06
   0.11000000E+00           0.61728395E-06
   0.12000000E+00           0.61728395E-06
   0.13000000E+00           0.44091711E-06
   0.14000000E+00           0.52910053E-06
   0.15000000E+00           0.88183422E-06
   0.16000000E+00           0.79365079E-06
   0.17000000E+00           0.61728395E-06
   0.18000000E+00           0.10582011E-05
   0.19000000E+00           0.88183422E-06
   0.20000000E+00           0.16754850E-05
   0.21000000E+00           0.12345679E-05
   0.22000000E+00           0.17636684E-05
   0.23000000E+00           0.14109347E-05
   0.24000000E+00           0.22045855E-05
   0.25000000E+00           0.21164021E-05
   0.26000000E+00           0.22045855E-05
   0.27000000E+00           0.23809524E-05
   0.28000000E+00           0.25573192E-05
   0.29000000E+00           0.33509700E-05
   0.30000000E+00           0.30864198E-05
   0.31000000E+00           0.35273369E-05
   0.32000000E+00           0.40564374E-05
   0.33000000E+00           0.37918871E-05
   0.34000000E+00           0.46737213E-05
   0.35000000E+00           0.52910053E-05
   0.36000000E+00           0.47619048E-05
   0.37000000E+00           0.53791887E-05
   0.38000000E+00           0.58201058E-05
   0.39000000E+00           0.66137566E-05
   0.40000000E+00           0.76719577E-05
   0.41000000E+00           0.73192240E-05
   0.42000000E+00           0.97001764E-05
   0.43000000E+00           0.68783069E-05
   0.44000000E+00           0.10934744E-04
   0.45000000E+00           0.10934744E-04
   0.46000000E+00           0.97883598E-05
   0.47000000E+00           0.11375661E-04
   0.48000000E+00           0.15784832E-04
   0.49000000E+00           0.16225750E-04
   0.50000000E+00           0.17901235E-04
   0.51000000E+00           0.19841270E-04
   0.52000000E+00           0.20987654E-04
   0.53000000E+00           0.21428571E-04
   0.54000000E+00           0.21340388E-04
   0.55000000E+00           0.24514991E-04
   0.56000000E+00           0.27865961E-04
   0.57000000E+00           0.31216931E-04
   0.58000000E+00           0.32627866E-04
   0.59000000E+00           0.36331570E-04
   0.60000000E+00           0.38624339E-04
   0.61000000E+00           0.44268078E-04
   0.62000000E+00           0.46119929E-04
   0.63000000E+00           0.51058201E-04
   0.64000000E+00           0.51940035E-04
   0.65000000E+00           0.61552028E-04
   0.66000000E+00           0.67901235E-04
   0.67000000E+00           0.73192240E-04
   0.68000000E+00           0.72222222E-04
   0.69000000E+00           0.85273369E-04
   0.70000000E+00           0.89153439E-04
   0.71000000E+00           0.97883598E-04
   0.72000000E+00           0.10855379E-03
   0.73000000E+00           0.12063492E-03
   0.74000000E+00           0.12910053E-03
   0.75000000E+00           0.14726631E-03
   0.76000000E+00           0.15167549E-03
   0.77000000E+00           0.16887125E-03
   0.78000000E+00           0.17380952E-03
   0.79000000E+00           0.20202822E-03
   0.80000000E+00           0.21675485E-03
   0.81000000E+00           0.24074074E-03
   0.82000000E+00           0.25784832E-03
   0.83000000E+00           0.28447972E-03
   0.84000000E+00           0.31463845E-03
   0.85000000E+00           0.33395062E-03
   0.86000000E+00           0.36358025E-03
   0.87000000E+00           0.39911817E-03
   0.88000000E+00           0.43853616E-03
   0.89000000E+00           0.48571429E-03
   0.90000000E+00           0.51022928E-03
   0.91000000E+00           0.57204586E-03
   0.92000000E+00           0.60873016E-03
   0.93000000E+00           0.65264550E-03
   0.94000000E+00           0.72874780E-03
   0.95000000E+00           0.79550265E-03
   0.96000000E+00           0.88421517E-03
   0.97000000E+00           0.96701940E-03
   0.98000000E+00           0.10440917E-02
   0.99000000E+00           0.11174603E-02
   0.10000000E+01           0.12345679E-02
   0.10100000E+01           0.13209877E-02
   0.10200000E+01           0.14766314E-02
   0.10300000E+01           0.16051146E-02
   0.10400000E+01           0.17379189E-02
   0.10500000E+01           0.18949735E-02
   0.10600000E+01           0.20716931E-02
   0.10700000E+01           0.22761905E-02
   0.10800000E+01           0.24972663E-02
   0.10900000E+01           0.27242504E-02
   0.11000000E+01           0.29448854E-02
   0.11100000E+01           0.32030864E-02
   0.11200000E+01           0.34879189E-02
   0.11300000E+01           0.38043210E-02
   0.11400000E+01           0.41891534E-02
   0.11500000E+01           0.45461199E-02
   0.11600000E+01           0.49455026E-02
   0.11700000E+01           0.54145503E-02
   0.11800000E+01           0.58686067E-02
   0.11900000E+01           0.64315697E-02
   0.12000000E+01           0.70360670E-02
   0.12100000E+01           0.77106702E-02
   0.12200000E+01           0.83798060E-02
   0.12300000E+01           0.91469136E-02
   0.12400000E+01           0.10011993E-01
   0.12500000E+01           0.10888977E-01
   0.12600000E+01           0.11956437E-01
   0.12700000E+01           0.12977601E-01
   0.12800000E+01           0.14065873E-01
   0.12900000E+01           0.15557848E-01
   0.13000000E+01           0.16935979E-01
   0.13100000E+01           0.18441446E-01
   0.13200000E+01           0.20196032E-01
   0.13300000E+01           0.22030511E-01
   0.13400000E+01           0.24097354E-01
   0.13500000E+01           0.26334480E-01
   0.13600000E+01           0.28623721E-01
   0.13700000E+01           0.31370635E-01
   0.13800000E+01           0.34309436E-01
   0.13900000E+01           0.37450617E-01
   0.14000000E+01           0.40808025E-01
   0.14100000E+01           0.44742593E-01
   0.14200000E+01           0.48818166E-01
   0.14300000E+01           0.53309347E-01
   0.14400000E+01           0.58323457E-01
   0.14500000E+01           0.63886332E-01
   0.14600000E+01           0.69602381E-01
   0.14700000E+01           0.76021517E-01
   0.14800000E+01           0.83249206E-01
   0.14900000E+01           0.90773457E-01
   0.15000000E+01           0.99522840E-01
   0.15100000E+01           0.10844850E+00
   0.15200000E+01           0.11873845E+00
   0.15300000E+01           0.12955697E+00
   0.15400000E+01           0.14188695E+00
   0.15500000E+01           0.15478034E+00
   0.15600000E+01           0.16967822E+00
   0.15700000E+01           0.18572240E+00
   0.15800000E+01           0.20263228E+00
   0.15900000E+01           0.22167090E+00
   0.16000000E+01           0.24249162E+00
   0.16100000E+01           0.26519489E+00
   0.16200000E+01           0.29029524E+00
   0.16300000E+01           0.31694365E+00
   0.16400000E+01           0.34727566E+00
   0.16500000E+01           0.37939444E+00
   0.16600000E+01           0.41492998E+00
   0.16700000E+01           0.45415476E+00
   0.16800000E+01           0.49725608E+00
   0.16900000E+01           0.54449295E+00
   0.17000000E+01           0.59538166E+00
   0.17100000E+01           0.65182363E+00
   0.17200000E+01           0.71298589E+00
   0.17300000E+01           0.78059418E+00
   0.17400000E+01           0.85459885E+00
   0.17500000E+01           0.93538677E+00
   0.17600000E+01           0.10232286E+01
   0.17700000E+01           0.11201459E+01
   0.17800000E+01           0.12270250E+01
   0.17900000E+01           0.13433671E+01
   0.18000000E+01           0.14708373E+01
   0.18100000E+01           0.16099432E+01
   0.18200000E+01           0.17626995E+01
   0.18300000E+01           0.19308768E+01
   0.18400000E+01           0.21153279E+01
   0.18500000E+01           0.23156664E+01
   0.18600000E+01           0.25362836E+01
   0.18700000E+01           0.27776658E+01
   0.18800000E+01           0.30428917E+01
   0.18900000E+01           0.33340677E+01
   0.19000000E+01           0.36524498E+01
   0.19100000E+01           0.40027980E+01
   0.19200000E+01           0.43829407E+01
   0.19300000E+01           0.48030020E+01
   0.19400000E+01           0.52640982E+01
   0.19500000E+01           0.57678390E+01
   0.19600000E+01           0.63210685E+01
   0.19700000E+01           0.69274492E+01
   0.19800000E+01           0.75951622E+01
   0.19900000E+01           0.83252162E+01
   0.20000000E+01           0.44577451E+01
 #T=    25.0000
  -0.20000000E+01           0.00000000E+00
  -0.19900000E+01           0.00000000E+00
  -0.19800000E+01           0.00000000E+00
  -0.19700000E+01           0.00000000E+00
  -0.19600000E+01           0.00000000E+00
  -0.19500000E+01           0.00000000E+00
  -0.19400000E+01           0.00000000E+00
  -0.19300000E+01           0.00000000E+00
  -0.19200000E+01           0.00000000E+00
  -0.19100000E+01           0.00000000E+00
  -0.19000000E+01           0.00000000E+00
  -0.18900000E+01           0.00000000E+00
  -0.18800000E+01           0.00000000E+00
  -0.18700000E+01           0.00000000E+00
  -0.18600000E+01           0.00000000E+00
  -0.18500000E+01           0.00000000E+00
  -0.18400000E+01           0.00000000E+00
  -0.18300000E+01           0.00000000E+00
  -0.18200000E+01           0.00000000E+00
  -0.18100000E+01           0.00000000E+00
  -0.18000000E+01           0.00000000E+00
  -0.17900000E+01           0.00000000E+00
  -0.17800000E+01           0.00000000E+00
  -0.17700000E+01           0.00000000E+00
  -0.17600000E+01           0.00000000E+00
  -0.17500000E+01           0.00000000E+00
  -0.17400000E+01           0.00000000E+00
  -0.17300000E+01           0.00000000E+00
  -0.17200000E+01           0.00000000E+00
  -0.17100000E+01           0.00000000E+00
  -0.17000000E+01           0.00000000E+00
  -0.16900000E+01           0.00000000E+00
  -0.16800000E+01           0.00000000E+00
  -0.16700000E+01           0.00000000E+00
  -0.16600000E+01           0.00000000E+00
  -0.16500000E+01           0.00000000E+00
  -0.16400000E+01           0.00000000E+00
  -0.16300000E+01           0.00000000E+00
  -0.16200000E+01           0.00000000E+00
  -0.16100000E+01           0.00000000E+00
  -0.16000000E+01           0.00000000E+00
  -0.15900000E+01           0.00000000E+00
  -0.15800000E+01           0.00000000E+00
  -0.15700000E+01           0.00000000E+00
  -0.15600000E+01           0.00000000E+00
  -0.15500000E+01           0.00000000E+00
  -0.15400000E+01           0.00000000E+00
  -0.15300000E+01           0.00000000E+00
  -0.15200000E+01           0.00000000E+00
  -0.15100000E+01           0.00000000E+00
  -0.15000000E+01           0.00000000E+00
  -0.14900000E+01           0.00000000E+00
  -0.14800000E+01           0.00000000E+00
  -0.14700000E+01           0.00000000E+00
  -0.14600000E+01           0.00000000E+00
  -0.14500000E+01           0.00000000E+00
  -0.14400000E+01           0.00000000E+00
  -0.14300000E+01           0.00000000E+00
  -0.14200000E+01           0.00000000E+00
  -0.14100000E+01           0.00000000E+00
  -0.14000000E+01           0.00000000E+00
  -0.13900000E+01           0.00000000E+00
  -0.13800000E+01           0.00000000E+00
  -0.13700000E+01           0.00000000E+00
  -0.13600000E+01           0.00000000E+00
  -0.13500000E+01           0.00000000E+00
  -0.13400000E+01           0.00000000E+00
  -0.13300000E+01           0.00000000E+00
  -0.13200000E+01           0.00000000E+00
  -0.13100000E+01           0.00000000E+00
  -0.13000000E+01           0.00000000E+00
  -0.12900000E+01           0.00000000E+00
  -0.12800000E+01           0.00000000E+00
  -0.12700000E+01           0.00000000E+00
  -0.12600000E+01           0.00000000E+00
  -0.12500000E+01           0.00000000E+00
  -0.12400000E+01           0.00000000E+00
  -0.12300000E+01           0.00000000E+00
  -0.12200000E+01           0.00000000E+00
  -0.12100000E+01           0.00000000E+00
  -0.12000000E+01           0.00000000E+00
  -0.11900000E+01           0.00000000E+00
  -0.11800000E+01           0.00000000E+00
  -0.11700000E+01           0.00000000E+00
  -0.11600000E+01           0.00000000E+00
  -0.11500000E+01           0.00000000E+00
  -0.11400000E+01           0.00000000E+00
  -0.11300000E+01           0.00000000E+00
  -0.11200000E+01           0.00000000E+00
  -0.11100000E+01           0.00000000E+00
  -0.11000000E+01           0.00000000E+00
  -0.10900000E+01           0.00000000E+00
  -0.10800000E+01           0.00000000E+00
  -0.10700000E+01           0.00000000E+00
  -0.10600000E+01           0.00000000E+00
  -0.10500000E+01           0.00000000E+00
  -0.10400000E+01           0.00000000E+00
  -0.10300000E+01           0.00000000E+00
  -0.10200000E+01           0.00000000E+00
  -0.10100000E+01           0.00000000E+00
  -0.10000000E+01           0.00000000E+00
  -0.99000000E+00           0.00000000E+00
  -0.98000000E+00           0.00000000E+00
  -0.97000000E+00           0.00000000E+00
  -0.96000000E+00           0.00000000E+00
  -0.95000000E+00           0.00000000E+00
  -0.94000000E+00           0.00000000E+00
  -0.93000000E+00           0.00000000E+00
  -0.92000000E+00           0.00000000E+00
  -0.91000000E+00           0.00000000E+00
  -0.90000000E+00           0.00000000E+00
  -0.89000000E+00           0.00000000E+00
  -0.88000000E+00           0.00000000E+00
  -0.87000000E+00           0.00000000E+00
  -0.86000000E+00           0.00000000E+00
  -0.85000000E+00           0.00000000E+00
  -0.84000000E+00           0.00000000E+00
  -0.83000000E+00           0.00000000E+00
  -0.82000000E+00           0.00000000E+00
  -0.81000000E+00           0.00000000E+00
  -0.80000000E+00           0.00000000E+00
  -0.79000000E+00           0.00000000E+00
  -0.78000000E+00           0.00000000E+00
  -0.77000000E+00           0.00000000E+00
  -0.76000000E+00           0.00000000E+00
  -0.75000000E+00           0.00000000E+00
  -0.74000000E+00           0.00000000E+00
  -0.73000000E+00           0.00000000E+00
  -0.72000000E+00           0.00000000E+00
  -0.71000000E+00           0.00000000E+00
  -0.70000000E+00           0.00000000E+00
  -0.69000000E+00           0.00000000E+00
  -0.68000000E+00           0.00000000E+00
  -0.67000000E+00           0.00000000E+00
  -0.66000000E+00           0.00000000E+00
  -0.65000000E+00           0.00000000E+00
  -0.64000000E+00           0.00000000E+00
  -0.63000000E+00           0.00000000E+00
  -0.62000000E+00           0.00000000E+00
  -0.61000000E+00           0.00000000E+00
  -0.60000000E+00           0.00000000E+00
  -0.59000000E+00           0.00000000E+00
  -0.58000000E+00           0.00000000E+00
  -0.57000000E+00           0.00000000E+00
  -0.56000000E+00           0.00000000E+00
  -0.55000000E+00           0.00000000E+00
  -0.54000000E+00           0.00000000E+00
  -0.53000000E+00           0.00000000E+00
  -0.52000000E+00           0.00000000E+00
  -0.51000000E+00           0.00000000E+00
  -0.50000000E+00           0.00000000E+00
  -0.49000000E+00           0.00000000E+00
  -0.48000000E+00           0.00000000E+00
  -0.47000000E+00           0.00000000E+00
  -0.46000000E+00           0.00000000E+00
  -0.45000000E+00           0.00000000E+00
  -0.44000000E+00           0.00000000E+00
  -0.43000000E+00           0.00000000E+00
  -0.42000000E+00           0.00000000E+00
  -0.41000000E+00           0.00000000E+00
  -0.40000000E+00           0.00000000E+00
  -0.39000000E+00           0.00000000E+00
  -0.38000000E+00           0.00000000E+00
  -0.37000000E+00           0.00000000E+00
  -0.36000000E+00           0.00000000E+00
  -0.35000000E+00           0.00000000E+00
  -0.34000000E+00           0.00000000E+00
  -0.33000000E+00           0.00000000E+00
  -0.32000000E+00           0.00000000E+00
  -0.31000000E+00           0.00000000E+00
  -0.30000000E+00           0.00000000E+00
  -0.29000000E+00           0.00000000E+00
  -0.28000000E+00           0.00000000E+00
  -0.27000000E+00           0.00000000E+00
  -0.26000000E+00           0.00000000E+00
  -0.25000000E+00           0.00000000E+00
  -0.24000000E+00           0.00000000E+00
  -0.23000000E+00           0.00000000E+00
  -0.22000000E+00           0.00000000E+00
  -0.21000000E+00           0.00000000E+00
  -0.20000000E+00           0.00000000E+00
  -0.19000000E+00           0.00000000E+00
  -0.18000000E+00           0.00000000E+00
  -0.17000000E+00           0.00000000E+00
  -0.16000000E+00           0.00000000E+00
  -0.15000000E+00           0.00000000E+00
  -0.14000000E+00           0.00000000E+00
  -0.13000000E+00           0.00000000E+00
  -0.12000000E+00           0.00000000E+00
  -0.11000000E+00           0.00000000E+00
  -0.10000000E+00           0.00000000E+00
  -0.90000000E-01           0.00000000E+00
  -0.80000000E-01           0.00000000E+00
  -0.70000000E-01           0.00000000E+00
  -0.60000000E-01           0.00000000E+00
  -0.50000000E-01           0.00000000E+00
  -0.40000000E-01           0.00000000E+00
  -0.30000000E-01           0.00000000E+00
  -0.20000000E-01           0.00000000E+00
  -0.10000000E-01           0.00000000E+00
   0.00000000E+00           0.00000000E+00
   0.10000000E-01           0.88183422E-07
   0.20000000E-01           0.88183422E-07
   0.30000000E-01           0.17636684E-06
   0.40000000E-01           0.35273369E-06
   0.50000000E-01           0.44091711E-06
   0.60000000E-01           0.52910053E-06
   0.70000000E-01           0.26455026E-06
   0.80000000E-01           0.35273369E-06
   0.90000000E-01           0.61728395E-06
   0.10000000E+00           0.11463845E-05
   0.11000000E+00           0.97001764E-06
   0.12000000E+00           0.79365079E-06
   0.13000000E+00           0.14109347E-05
   0.14000000E+00           0.12345679E-05
   0.15000000E+00           0.18518519E-05
   0.16000000E+00           0.14991182E-05
   0.17000000E+00           0.14109347E-05
   0.18000000E+00           0.20282187E-05
   0.19000000E+00           0.19400353E-05
   0.20000000E+00           0.26455026E-05
   0.21000000E+00           0.25573192E-05
   0.22000000E+00           0.33509700E-05
   0.23000000E+00           0.28218695E-05
   0.24000000E+00           0.29100529E-05
   0.25000000E+00           0.31746032E-05
   0.26000000E+00           0.39682540E-05
   0.27000000E+00           0.39682540E-05
   0.28000000E+00           0.38800705E-05
   0.29000000E+00           0.49382716E-05
   0.30000000E+00           0.58201058E-05
   0.31000000E+00           0.75837743E-05
   0.32000000E+00           0.61728395E-05
   0.33000000E+00           0.58201058E-05
   0.34000000E+00           0.89947090E-05
   0.35000000E+00           0.87301587E-05
   0.36000000E+00           0.83774250E-05
   0.37000000E+00           0.10758377E-04
   0.38000000E+00           0.11199295E-04
   0.39000000E+00           0.10229277E-04
   0.40000000E+00           0.14814815E-04
   0.41000000E+00           0.14373898E-04
   0.42000000E+00           0.15255732E-04
   0.43000000E+00           0.16313933E-04
   0.44000000E+00           0.19223986E-04
   0.45000000E+00           0.21869489E-04
   0.46000000E+00           0.20546737E-04
   0.47000000E+00           0.24250441E-04
   0.48000000E+00           0.25132275E-04
   0.49000000E+00           0.27513228E-04
[...]
   0.13800000E+01           0.66666182E+00
   0.13900000E+01           0.67463580E+00
   0.14000000E+01           0.68243924E+00
   0.14100000E+01           0.69074374E+00
   0.14200000E+01           0.69884903E+00
   0.14300000E+01           0.70657522E+00
   0.14400000E+01           0.71575600E+00
   0.14500000E+01           0.72429780E+00
   0.14600000E+01           0.73265362E+00
   0.14700000E+01           0.74156720E+00
   0.14800000E+01           0.75041623E+00
   0.14900000E+01           0.75894092E+00
   0.15000000E+01           0.76806314E+00
   0.15100000E+01           0.77708210E+00
   0.15200000E+01           0.78630811E+00
   0.15300000E+01           0.79565247E+00
   0.15400000E+01           0.80488501E+00
   0.15500000E+01           0.81367099E+00
   0.15600000E+01           0.82336481E+00
   0.15700000E+01           0.83330132E+00
   0.15800000E+01           0.84249868E+00
   0.15900000E+01           0.85297407E+00
   0.16000000E+01           0.86297884E+00
   0.16100000E+01           0.87266490E+00
   0.16200000E+01           0.88352081E+00
   0.16300000E+01           0.89410758E+00
   0.16400000E+01           0.90379735E+00
   0.16500000E+01           0.91443862E+00
   0.16600000E+01           0.92549365E+00
   0.16700000E+01           0.93556958E+00
   0.16800000E+01           0.94678131E+00
   0.16900000E+01           0.95797751E+00
   0.17000000E+01           0.96931781E+00
   0.17100000E+01           0.97981561E+00
   0.17200000E+01           0.99162134E+00
   0.17300000E+01           0.10033164E+01
   0.17400000E+01           0.10150929E+01
   0.17500000E+01           0.10261258E+01
   0.17600000E+01           0.10389167E+01
   0.17700000E+01           0.10513578E+01
   0.17800000E+01           0.10631669E+01
   0.17900000E+01           0.10761427E+01
   0.18000000E+01           0.10875028E+01
   0.18100000E+01           0.11009951E+01
   0.18200000E+01           0.11141859E+01
   0.18300000E+01           0.11265663E+01
   0.18400000E+01           0.11401071E+01
   0.18500000E+01           0.11532649E+01
   0.18600000E+01           0.11661274E+01
   0.18700000E+01           0.11801821E+01
   0.18800000E+01           0.11937151E+01
   0.18900000E+01           0.12078630E+01
   0.19000000E+01           0.12222558E+01
   0.19100000E+01           0.12360828E+01
   0.19200000E+01           0.12510171E+01
   0.19300000E+01           0.12653838E+01
   0.19400000E+01           0.12805628E+01
   0.19500000E+01           0.12949713E+01
   0.19600000E+01           0.13105364E+01
   0.19700000E+01           0.13255020E+01
   0.19800000E+01           0.13414817E+01
   0.19900000E+01           0.13570121E+01
   0.20000000E+01           0.68447707E+00
 #T=   100.0000
  -0.20000000E+01           0.00000000E+00
  -0.19900000E+01           0.00000000E+00
  -0.19800000E+01           0.00000000E+00
  -0.19700000E+01           0.00000000E+00
  -0.19600000E+01           0.00000000E+00
  -0.19500000E+01           0.00000000E+00
  -0.19400000E+01           0.00000000E+00
  -0.19300000E+01           0.00000000E+00
  -0.19200000E+01           0.00000000E+00
  -0.19100000E+01           0.00000000E+00
  -0.19000000E+01           0.00000000E+00
  -0.18900000E+01           0.00000000E+00
  -0.18800000E+01           0.00000000E+00
  -0.18700000E+01           0.00000000E+00
  -0.18600000E+01           0.00000000E+00
  -0.18500000E+01           0.00000000E+00
  -0.18400000E+01           0.00000000E+00
  -0.18300000E+01           0.00000000E+00
  -0.18200000E+01           0.00000000E+00
  -0.18100000E+01           0.00000000E+00
  -0.18000000E+01           0.00000000E+00
  -0.17900000E+01           0.00000000E+00
  -0.17800000E+01           0.00000000E+00
  -0.17700000E+01           0.00000000E+00
  -0.17600000E+01           0.00000000E+00
  -0.17500000E+01           0.00000000E+00
  -0.17400000E+01           0.00000000E+00
  -0.17300000E+01           0.00000000E+00
  -0.17200000E+01           0.00000000E+00
  -0.17100000E+01           0.00000000E+00
  -0.17000000E+01           0.00000000E+00
  -0.16900000E+01           0.00000000E+00
  -0.16800000E+01           0.00000000E+00
  -0.16700000E+01           0.00000000E+00
  -0.16600000E+01           0.00000000E+00
  -0.16500000E+01           0.00000000E+00
  -0.16400000E+01           0.00000000E+00
  -0.16300000E+01           0.00000000E+00
  -0.16200000E+01           0.00000000E+00
  -0.16100000E+01           0.00000000E+00
  -0.16000000E+01           0.00000000E+00
  -0.15900000E+01           0.00000000E+00
  -0.15800000E+01           0.00000000E+00
  -0.15700000E+01           0.00000000E+00
  -0.15600000E+01           0.00000000E+00
  -0.15500000E+01           0.00000000E+00
  -0.15400000E+01           0.00000000E+00
  -0.15300000E+01           0.00000000E+00
  -0.15200000E+01           0.00000000E+00
  -0.15100000E+01           0.00000000E+00
  -0.15000000E+01           0.00000000E+00
  -0.14900000E+01           0.00000000E+00
  -0.14800000E+01           0.00000000E+00
  -0.14700000E+01           0.00000000E+00
  -0.14600000E+01           0.00000000E+00
  -0.14500000E+01           0.00000000E+00
  -0.14400000E+01           0.00000000E+00
  -0.14300000E+01           0.00000000E+00
  -0.14200000E+01           0.00000000E+00
  -0.14100000E+01           0.00000000E+00
  -0.14000000E+01           0.00000000E+00
  -0.13900000E+01           0.00000000E+00
  -0.13800000E+01           0.00000000E+00
  -0.13700000E+01           0.00000000E+00
  -0.13600000E+01           0.00000000E+00
  -0.13500000E+01           0.00000000E+00
  -0.13400000E+01           0.00000000E+00
  -0.13300000E+01           0.00000000E+00
  -0.13200000E+01           0.00000000E+00
  -0.13100000E+01           0.00000000E+00
  -0.13000000E+01           0.00000000E+00
  -0.12900000E+01           0.00000000E+00
  -0.12800000E+01           0.00000000E+00
  -0.12700000E+01           0.00000000E+00
  -0.12600000E+01           0.00000000E+00
  -0.12500000E+01           0.00000000E+00
  -0.12400000E+01           0.00000000E+00
  -0.12300000E+01           0.00000000E+00
  -0.12200000E+01           0.00000000E+00
  -0.12100000E+01           0.00000000E+00
  -0.12000000E+01           0.00000000E+00
  -0.11900000E+01           0.00000000E+00
  -0.11800000E+01           0.00000000E+00
  -0.11700000E+01           0.00000000E+00
  -0.11600000E+01           0.00000000E+00
  -0.11500000E+01           0.00000000E+00
  -0.11400000E+01           0.00000000E+00
  -0.11300000E+01           0.00000000E+00
  -0.11200000E+01           0.00000000E+00
  -0.11100000E+01           0.00000000E+00
  -0.11000000E+01           0.00000000E+00
  -0.10900000E+01           0.00000000E+00
  -0.10800000E+01           0.00000000E+00
  -0.10700000E+01           0.00000000E+00
  -0.10600000E+01           0.00000000E+00
  -0.10500000E+01           0.00000000E+00
  -0.10400000E+01           0.00000000E+00
  -0.10300000E+01           0.00000000E+00
  -0.10200000E+01           0.00000000E+00
  -0.10100000E+01           0.00000000E+00
  -0.10000000E+01           0.00000000E+00
  -0.99000000E+00           0.00000000E+00
  -0.98000000E+00           0.00000000E+00
  -0.97000000E+00           0.00000000E+00
  -0.96000000E+00           0.00000000E+00
  -0.95000000E+00           0.00000000E+00
  -0.94000000E+00           0.00000000E+00
  -0.93000000E+00           0.00000000E+00
  -0.92000000E+00           0.00000000E+00
  -0.91000000E+00           0.00000000E+00
  -0.90000000E+00           0.00000000E+00
  -0.89000000E+00           0.00000000E+00
  -0.88000000E+00           0.00000000E+00
  -0.87000000E+00           0.00000000E+00
  -0.86000000E+00           0.00000000E+00
  -0.85000000E+00           0.00000000E+00
  -0.84000000E+00           0.00000000E+00
  -0.83000000E+00           0.00000000E+00
  -0.82000000E+00           0.00000000E+00
  -0.81000000E+00           0.00000000E+00
  -0.80000000E+00           0.00000000E+00
  -0.79000000E+00           0.00000000E+00
  -0.78000000E+00           0.00000000E+00
  -0.77000000E+00           0.00000000E+00
  -0.76000000E+00           0.00000000E+00
  -0.75000000E+00           0.00000000E+00
  -0.74000000E+00           0.00000000E+00
  -0.73000000E+00           0.00000000E+00
  -0.72000000E+00           0.00000000E+00
  -0.71000000E+00           0.00000000E+00
  -0.70000000E+00           0.00000000E+00
  -0.69000000E+00           0.00000000E+00
  -0.68000000E+00           0.00000000E+00
  -0.67000000E+00           0.00000000E+00
  -0.66000000E+00           0.00000000E+00
  -0.65000000E+00           0.00000000E+00
  -0.64000000E+00           0.00000000E+00
  -0.63000000E+00           0.00000000E+00
  -0.62000000E+00           0.00000000E+00
  -0.61000000E+00           0.00000000E+00
  -0.60000000E+00           0.00000000E+00
  -0.59000000E+00           0.00000000E+00
  -0.58000000E+00           0.00000000E+00
  -0.57000000E+00           0.00000000E+00
  -0.56000000E+00           0.00000000E+00
  -0.55000000E+00           0.00000000E+00
  -0.54000000E+00           0.00000000E+00
  -0.53000000E+00           0.00000000E+00
  -0.52000000E+00           0.00000000E+00
  -0.51000000E+00           0.00000000E+00
  -0.50000000E+00           0.00000000E+00
  -0.49000000E+00           0.00000000E+00
  -0.48000000E+00           0.00000000E+00
  -0.47000000E+00           0.00000000E+00
  -0.46000000E+00           0.00000000E+00
  -0.45000000E+00           0.00000000E+00
  -0.44000000E+00           0.00000000E+00
  -0.43000000E+00           0.00000000E+00
  -0.42000000E+00           0.00000000E+00
  -0.41000000E+00           0.00000000E+00
  -0.40000000E+00           0.00000000E+00
  -0.39000000E+00           0.00000000E+00
  -0.38000000E+00           0.00000000E+00
  -0.37000000E+00           0.00000000E+00
  -0.36000000E+00           0.00000000E+00
  -0.35000000E+00           0.00000000E+00
  -0.34000000E+00           0.00000000E+00
  -0.33000000E+00           0.00000000E+00
  -0.32000000E+00           0.00000000E+00
  -0.31000000E+00           0.00000000E+00
  -0.30000000E+00           0.00000000E+00
  -0.29000000E+00           0.00000000E+00
  -0.28000000E+00           0.00000000E+00
  -0.27000000E+00           0.00000000E+00
  -0.26000000E+00           0.00000000E+00
  -0.25000000E+00           0.00000000E+00
  -0.24000000E+00           0.00000000E+00
  -0.23000000E+00           0.00000000E+00
  -0.22000000E+00           0.00000000E+00
  -0.21000000E+00           0.00000000E+00
  -0.20000000E+00           0.00000000E+00
  -0.19000000E+00           0.00000000E+00
  -0.18000000E+00           0.00000000E+00
  -0.17000000E+00           0.00000000E+00
  -0.16000000E+00           0.00000000E+00
  -0.15000000E+00           0.00000000E+00
  -0.14000000E+00           0.00000000E+00
  -0.13000000E+00           0.00000000E+00
  -0.12000000E+00           0.00000000E+00
  -0.11000000E+00           0.00000000E+00
  -0.10000000E+00           0.00000000E+00
  -0.90000000E-01           0.00000000E+00
  -0.80000000E-01           0.00000000E+00
  -0.70000000E-01           0.00000000E+00
  -0.60000000E-01           0.00000000E+00
  -0.50000000E-01           0.00000000E+00
  -0.40000000E-01           0.00000000E+00
  -0.30000000E-01           0.00000000E+00
  -0.20000000E-01           0.00000000E+00
  -0.10000000E-01           0.00000000E+00
   0.00000000E+00           0.44559083E-03
   0.10000000E-01           0.35271605E-02
   0.20000000E-01           0.70379189E-02
   0.30000000E-01           0.10523369E-01
   0.40000000E-01           0.14084215E-01
   0.50000000E-01           0.17524339E-01
   0.60000000E-01           0.21153263E-01
   0.70000000E-01           0.24722575E-01
   0.80000000E-01           0.28204321E-01
   0.90000000E-01           0.31726984E-01
   0.10000000E+00           0.35221164E-01
   0.11000000E+00           0.38803351E-01
   0.12000000E+00           0.42410406E-01
   0.13000000E+00           0.45852028E-01
   0.14000000E+00           0.49501675E-01
   0.15000000E+00           0.52927160E-01
   0.16000000E+00           0.56598236E-01
   0.17000000E+00           0.60189859E-01
   0.18000000E+00           0.63643474E-01
   0.19000000E+00           0.67278042E-01
   0.20000000E+00           0.70696649E-01
   0.21000000E+00           0.74600000E-01
   0.22000000E+00           0.78208642E-01
   0.23000000E+00           0.81799206E-01
   0.24000000E+00           0.85495414E-01
   0.25000000E+00           0.89029012E-01
   0.26000000E+00           0.92623280E-01
   0.27000000E+00           0.96321781E-01
   0.28000000E+00           0.10004497E+00
   0.29000000E+00           0.10379489E+00
   0.30000000E+00           0.10729215E+00
   0.31000000E+00           0.11081940E+00
   0.32000000E+00           0.11471252E+00
   0.33000000E+00           0.11854630E+00
   0.34000000E+00           0.12208395E+00
   0.35000000E+00           0.12572892E+00
   0.36000000E+00           0.12961190E+00
   0.37000000E+00           0.13344436E+00
   0.38000000E+00           0.13706120E+00
   0.39000000E+00           0.14091464E+00
   0.40000000E+00           0.14482019E+00
   0.41000000E+00           0.14849718E+00
   0.42000000E+00           0.15241473E+00
   0.43000000E+00           0.15602690E+00
   0.44000000E+00           0.15989868E+00
   0.45000000E+00           0.16386711E+00
   0.46000000E+00           0.16790203E+00
   0.47000000E+00           0.17185750E+00
   0.48000000E+00           0.17575062E+00
   0.49000000E+00           0.17969162E+00
   0.50000000E+00           0.18361649E+00
   0.51000000E+00           0.18761958E+00
   0.52000000E+00           0.19126605E+00
   0.53000000E+00           0.19582919E+00
   0.54000000E+00           0.19952116E+00
   0.55000000E+00           0.20357469E+00
   0.56000000E+00           0.20796164E+00
   0.57000000E+00           0.21183413E+00
   0.58000000E+00           0.21618580E+00
   0.59000000E+00           0.22022275E+00
   0.60000000E+00           0.22438774E+00
   0.61000000E+00           0.22877293E+00
   0.62000000E+00           0.23294965E+00
   0.63000000E+00           0.23715944E+00
   0.64000000E+00           0.24152372E+00
   0.65000000E+00           0.24562504E+00
   0.66000000E+00           0.25006966E+00
   0.67000000E+00           0.25423466E+00
   0.68000000E+00           0.25898272E+00
   0.69000000E+00           0.26304612E+00
   0.70000000E+00           0.26793607E+00
   0.71000000E+00           0.27202557E+00
   0.72000000E+00           0.27662663E+00
   0.73000000E+00           0.28091402E+00
   0.74000000E+00           0.28557813E+00
   0.75000000E+00           0.28965988E+00
   0.76000000E+00           0.29456155E+00
   0.77000000E+00           0.29941393E+00
   0.78000000E+00           0.30431287E+00
   0.79000000E+00           0.30855794E+00
   0.80000000E+00           0.31348201E+00
   0.81000000E+00           0.31822275E+00
   0.82000000E+00           0.32324894E+00
   0.83000000E+00           0.32794691E+00
   0.84000000E+00           0.33271173E+00
   0.85000000E+00           0.33813651E+00
   0.86000000E+00           0.34249982E+00
   0.87000000E+00           0.34757063E+00
   0.88000000E+00           0.35245344E+00
   0.89000000E+00           0.35763228E+00
   0.90000000E+00           0.36310882E+00
   0.91000000E+00           0.36778563E+00
   0.92000000E+00           0.37335088E+00
   0.93000000E+00           0.37828739E+00
   0.94000000E+00           0.38353739E+00
   0.95000000E+00           0.38869656E+00
   0.96000000E+00           0.39426914E+00
   0.97000000E+00           0.39975062E+00
   0.98000000E+00           0.40525123E+00
   0.99000000E+00           0.41050220E+00
   0.10000000E+01           0.41555653E+00
   0.10100000E+01           0.42181543E+00
   0.10200000E+01           0.42693898E+00
   0.10300000E+01           0.43263131E+00
   0.10400000E+01           0.43848668E+00
   0.10500000E+01           0.44417460E+00
   0.10600000E+01           0.45016834E+00
   0.10700000E+01           0.45610996E+00
   0.10800000E+01           0.46181235E+00
   0.10900000E+01           0.46785291E+00
   0.11000000E+01           0.47371005E+00
   0.11100000E+01           0.47978192E+00
   0.11200000E+01           0.48610088E+00
   0.11300000E+01           0.49232575E+00
   0.11400000E+01           0.49862196E+00
   0.11500000E+01           0.50437275E+00
   0.11600000E+01           0.51068951E+00
   0.11700000E+01           0.51741085E+00
   0.11800000E+01           0.52368510E+00
   0.11900000E+01           0.53006455E+00
   0.12000000E+01           0.53729312E+00
   0.12100000E+01           0.54394392E+00
   0.12200000E+01           0.55046658E+00
   0.12300000E+01           0.55771993E+00
   0.12400000E+01           0.56392399E+00
   0.12500000E+01           0.57100697E+00
   0.12600000E+01           0.57755679E+00
   0.12700000E+01           0.58478924E+00
   0.12800000E+01           0.59221349E+00
   0.12900000E+01           0.59901526E+00
   0.13000000E+01           0.60608166E+00
   0.13100000E+01           0.61371852E+00
   0.13200000E+01           0.62091041E+00
   0.13300000E+01           0.62837593E+00
   0.13400000E+01           0.63638069E+00
   0.13500000E+01           0.64394083E+00
   0.13600000E+01           0.65124621E+00
   0.13700000E+01           0.65957840E+00
   0.13800000E+01           0.66705944E+00
   0.13900000E+01           0.67503651E+00
   0.14000000E+01           0.68265776E+00
   0.14100000E+01           0.69079127E+00
   0.14200000E+01           0.69959647E+00
   0.14300000E+01           0.70765397E+00
   0.14400000E+01           0.71594524E+00
   0.14500000E+01           0.72395961E+00
   0.14600000E+01           0.73250697E+00
   0.14700000E+01           0.74158589E+00
   0.14800000E+01           0.75038448E+00
   0.14900000E+01           0.75932002E+00
   0.15000000E+01           0.76746675E+00
   0.15100000E+01           0.77706825E+00
   0.15200000E+01           0.78581499E+00
   0.15300000E+01           0.79486737E+00
   0.15400000E+01           0.80399550E+00
   0.15500000E+01           0.81344586E+00
   0.15600000E+01           0.82320423E+00
   0.15700000E+01           0.83264215E+00
   0.15800000E+01           0.84248210E+00
   0.15900000E+01           0.85189392E+00
   0.16000000E+01           0.86194683E+00
   0.16100000E+01           0.87201552E+00
   0.16200000E+01           0.88243325E+00
   0.16300000E+01           0.89248836E+00
   0.16400000E+01           0.90298633E+00
   0.16500000E+01           0.91336958E+00
   0.16600000E+01           0.92445450E+00
   0.16700000E+01           0.93456005E+00
   0.16800000E+01           0.94508316E+00
   0.16900000E+01           0.95655379E+00
   0.17000000E+01           0.96729894E+00
   0.17100000E+01           0.97853007E+00
   0.17200000E+01           0.99016499E+00
   0.17300000E+01           0.10011452E+01
   0.17400000E+01           0.10126287E+01
   0.17500000E+01           0.10248636E+01
   0.17600000E+01           0.10367051E+01
   0.17700000E+01           0.10486724E+01
   0.17800000E+01           0.10604328E+01
   0.17900000E+01           0.10724163E+01
   0.18000000E+01           0.10854894E+01
   0.18100000E+01           0.10980425E+01
   0.18200000E+01           0.11101929E+01
   0.18300000E+01           0.11236802E+01
   0.18400000E+01           0.11363494E+01
   0.18500000E+01           0.11500605E+01
   0.18600000E+01           0.11629378E+01
   0.18700000E+01           0.11758087E+01
   0.18800000E+01           0.11901765E+01
   0.18900000E+01           0.12042990E+01
   0.19000000E+01           0.12184989E+01
   0.19100000E+01           0.12319471E+01
   0.19200000E+01           0.12463925E+01
   0.19300000E+01           0.12605126E+01
   0.19400000E+01           0.12750120E+01
   0.19500000E+01           0.12904220E+01
   0.19600000E+01           0.13056450E+01
   0.19700000E+01           0.13202706E+01
   0.19800000E+01           0.13355502E+01
   0.19900000E+01           0.13513543E+01
   0.20000000E+01           0.68141155E+00
