 #written on 11Sep2024 at 23:55:21 
 #----------------- MONTECARLO -------------------#
 #        M                      P(M)             #
 #------------------------------------------------#
 #T=    10.0000
  -0.40000000E+01           0.00000000E+00
  -0.39900000E+01           0.00000000E+00
  -0.39800000E+01           0.00000000E+00
  -0.39700000E+01           0.00000000E+00
  -0.39600000E+01           0.00000000E+00
  -0.39500000E+01           0.00000000E+00
  -0.39400000E+01           0.00000000E+00
  -0.39300000E+01           0.00000000E+00
  -0.39200000E+01           0.00000000E+00
  -0.39100000E+01           0.00000000E+00
  -0.39000000E+01           0.00000000E+00
  -0.38900000E+01           0.00000000E+00
  -0.38800000E+01           0.00000000E+00
  -0.38700000E+01           0.00000000E+00
  -0.38600000E+01           0.00000000E+00
  -0.38500000E+01           0.00000000E+00
  -0.38400000E+01           0.00000000E+00
  -0.38300000E+01           0.00000000E+00
  -0.38200000E+01           0.00000000E+00
  -0.38100000E+01           0.00000000E+00
  -0.38000000E+01           0.00000000E+00
  -0.37900000E+01           0.00000000E+00
  -0.37800000E+01           0.00000000E+00
  -0.37700000E+01           0.00000000E+00
  -0.37600000E+01           0.00000000E+00
  -0.37500000E+01           0.00000000E+00
  -0.37400000E+01           0.00000000E+00
  -0.37300000E+01           0.00000000E+00
  -0.37200000E+01           0.00000000E+00
  -0.37100000E+01           0.00000000E+00
  -0.37000000E+01           0.00000000E+00
  -0.36900000E+01           0.00000000E+00
  -0.36800000E+01           0.00000000E+00
  -0.36700000E+01           0.00000000E+00
  -0.36600000E+01           0.00000000E+00
  -0.36500000E+01           0.00000000E+00
  -0.36400000E+01           0.00000000E+00
  -0.36300000E+01           0.00000000E+00
  -0.36200000E+01           0.00000000E+00
  -0.36100000E+01           0.00000000E+00
  -0.36000000E+01           0.00000000E+00
  -0.35900000E+01           0.00000000E+00
  -0.35800000E+01           0.00000000E+00
  -0.35700000E+01           0.00000000E+00
  -0.35600000E+01           0.00000000E+00
  -0.35500000E+01           0.00000000E+00
  -0.35400000E+01           0.00000000E+00
  -0.35300000E+01           0.00000000E+00
  -0.35200000E+01           0.00000000E+00
  -0.35100000E+01           0.00000000E+00
  -0.35000000E+01           0.00000000E+00
  -0.34900000E+01           0.00000000E+00
  -0.34800000E+01           0.00000000E+00
  -0.34700000E+01           0.00000000E+00
  -0.34600000E+01           0.00000000E+00
  -0.34500000E+01           0.00000000E+00
  -0.34400000E+01           0.00000000E+00
  -0.34300000E+01           0.00000000E+00
  -0.34200000E+01           0.00000000E+00
  -0.34100000E+01           0.00000000E+00
  -0.34000000E+01           0.00000000E+00
  -0.33900000E+01           0.00000000E+00
  -0.33800000E+01           0.00000000E+00
  -0.33700000E+01           0.00000000E+00
  -0.33600000E+01           0.00000000E+00
  -0.33500000E+01           0.00000000E+00
  -0.33400000E+01           0.00000000E+00
  -0.33300000E+01           0.00000000E+00
  -0.33200000E+01           0.00000000E+00
  -0.33100000E+01           0.00000000E+00
  -0.33000000E+01           0.00000000E+00
  -0.32900000E+01           0.00000000E+00
  -0.32800000E+01           0.00000000E+00
  -0.32700000E+01           0.00000000E+00
  -0.32600000E+01           0.00000000E+00
  -0.32500000E+01           0.00000000E+00
  -0.32400000E+01           0.00000000E+00
  -0.32300000E+01           0.00000000E+00
  -0.32200000E+01           0.00000000E+00
  -0.32100000E+01           0.00000000E+00
  -0.32000000E+01           0.00000000E+00
  -0.31900000E+01           0.00000000E+00
  -0.31800000E+01           0.00000000E+00
  -0.31700000E+01           0.00000000E+00
  -0.31600000E+01           0.00000000E+00
  -0.31500000E+01           0.00000000E+00
  -0.31400000E+01           0.00000000E+00
  -0.31300000E+01           0.00000000E+00
  -0.31200000E+01           0.00000000E+00
  -0.31100000E+01           0.00000000E+00
  -0.31000000E+01           0.00000000E+00
  -0.30900000E+01           0.00000000E+00
  -0.30800000E+01           0.00000000E+00
  -0.30700000E+01           0.00000000E+00
  -0.30600000E+01           0.00000000E+00
  -0.30500000E+01           0.00000000E+00
  -0.30400000E+01           0.00000000E+00
  -0.30300000E+01           0.00000000E+00
  -0.30200000E+01           0.00000000E+00
  -0.30100000E+01           0.00000000E+00
  -0.30000000E+01           0.00000000E+00
  -0.29900000E+01           0.00000000E+00
  -0.29800000E+01           0.00000000E+00
  -0.29700000E+01           0.00000000E+00
  -0.29600000E+01           0.00000000E+00
  -0.29500000E+01           0.00000000E+00
  -0.29400000E+01           0.00000000E+00
  -0.29300000E+01           0.00000000E+00
  -0.29200000E+01           0.00000000E+00
  -0.29100000E+01           0.00000000E+00
  -0.29000000E+01           0.00000000E+00
  -0.28900000E+01           0.00000000E+00
  -0.28800000E+01           0.00000000E+00
  -0.28700000E+01           0.00000000E+00
  -0.28600000E+01           0.00000000E+00
  -0.28500000E+01           0.00000000E+00
  -0.28400000E+01           0.00000000E+00
  -0.28300000E+01           0.00000000E+00
  -0.28200000E+01           0.00000000E+00
  -0.28100000E+01           0.00000000E+00
  -0.28000000E+01           0.00000000E+00
  -0.27900000E+01           0.00000000E+00
  -0.27800000E+01           0.00000000E+00
  -0.27700000E+01           0.00000000E+00
  -0.27600000E+01           0.00000000E+00
  -0.27500000E+01           0.00000000E+00
  -0.27400000E+01           0.00000000E+00
  -0.27300000E+01           0.00000000E+00
  -0.27200000E+01           0.00000000E+00
  -0.27100000E+01           0.00000000E+00
  -0.27000000E+01           0.00000000E+00
  -0.26900000E+01           0.00000000E+00
  -0.26800000E+01           0.00000000E+00
  -0.26700000E+01           0.00000000E+00
  -0.26600000E+01           0.00000000E+00
  -0.26500000E+01           0.00000000E+00
  -0.26400000E+01           0.00000000E+00
  -0.26300000E+01           0.00000000E+00
  -0.26200000E+01           0.00000000E+00
  -0.26100000E+01           0.00000000E+00
  -0.26000000E+01           0.00000000E+00
  -0.25900000E+01           0.00000000E+00
  -0.25800000E+01           0.00000000E+00
  -0.25700000E+01           0.00000000E+00
  -0.25600000E+01           0.00000000E+00
  -0.25500000E+01           0.00000000E+00
  -0.25400000E+01           0.00000000E+00
  -0.25300000E+01           0.00000000E+00
  -0.25200000E+01           0.00000000E+00
  -0.25100000E+01           0.00000000E+00
  -0.25000000E+01           0.00000000E+00
  -0.24900000E+01           0.00000000E+00
  -0.24800000E+01           0.00000000E+00
  -0.24700000E+01           0.00000000E+00
  -0.24600000E+01           0.00000000E+00
  -0.24500000E+01           0.00000000E+00
  -0.24400000E+01           0.00000000E+00
  -0.24300000E+01           0.00000000E+00
  -0.24200000E+01           0.00000000E+00
  -0.24100000E+01           0.00000000E+00
  -0.24000000E+01           0.00000000E+00
  -0.23900000E+01           0.00000000E+00
  -0.23800000E+01           0.00000000E+00
  -0.23700000E+01           0.00000000E+00
  -0.23600000E+01           0.00000000E+00
  -0.23500000E+01           0.00000000E+00
  -0.23400000E+01           0.00000000E+00
  -0.23300000E+01           0.00000000E+00
  -0.23200000E+01           0.00000000E+00
  -0.23100000E+01           0.00000000E+00
  -0.23000000E+01           0.00000000E+00
  -0.22900000E+01           0.00000000E+00
  -0.22800000E+01           0.00000000E+00
  -0.22700000E+01           0.00000000E+00
  -0.22600000E+01           0.00000000E+00
  -0.22500000E+01           0.00000000E+00
  -0.22400000E+01           0.00000000E+00
  -0.22300000E+01           0.00000000E+00
  -0.22200000E+01           0.00000000E+00
  -0.22100000E+01           0.00000000E+00
  -0.22000000E+01           0.00000000E+00
  -0.21900000E+01           0.00000000E+00
  -0.21800000E+01           0.00000000E+00
  -0.21700000E+01           0.00000000E+00
  -0.21600000E+01           0.00000000E+00
  -0.21500000E+01           0.00000000E+00
  -0.21400000E+01           0.00000000E+00
  -0.21300000E+01           0.00000000E+00
  -0.21200000E+01           0.00000000E+00
  -0.21100000E+01           0.00000000E+00
  -0.21000000E+01           0.00000000E+00
  -0.20900000E+01           0.00000000E+00
  -0.20800000E+01           0.00000000E+00
  -0.20700000E+01           0.00000000E+00
  -0.20600000E+01           0.00000000E+00
  -0.20500000E+01           0.00000000E+00
  -0.20400000E+01           0.00000000E+00
  -0.20300000E+01           0.00000000E+00
  -0.20200000E+01           0.00000000E+00
  -0.20100000E+01           0.00000000E+00
  -0.20000000E+01           0.00000000E+00
  -0.19900000E+01           0.00000000E+00
  -0.19800000E+01           0.00000000E+00
  -0.19700000E+01           0.00000000E+00
  -0.19600000E+01           0.00000000E+00
  -0.19500000E+01           0.00000000E+00
  -0.19400000E+01           0.00000000E+00
  -0.19300000E+01           0.00000000E+00
  -0.19200000E+01           0.00000000E+00
  -0.19100000E+01           0.00000000E+00
  -0.19000000E+01           0.00000000E+00
  -0.18900000E+01           0.00000000E+00
  -0.18800000E+01           0.00000000E+00
  -0.18700000E+01           0.00000000E+00
  -0.18600000E+01           0.00000000E+00
  -0.18500000E+01           0.00000000E+00
  -0.18400000E+01           0.00000000E+00
  -0.18300000E+01           0.00000000E+00
  -0.18200000E+01           0.00000000E+00
  -0.18100000E+01           0.00000000E+00
  -0.18000000E+01           0.00000000E+00
  -0.17900000E+01           0.00000000E+00
  -0.17800000E+01           0.00000000E+00
  -0.17700000E+01           0.00000000E+00
  -0.17600000E+01           0.00000000E+00
  -0.17500000E+01           0.00000000E+00
  -0.17400000E+01           0.00000000E+00
  -0.17300000E+01           0.00000000E+00
  -0.17200000E+01           0.00000000E+00
  -0.17100000E+01           0.00000000E+00
  -0.17000000E+01           0.00000000E+00
  -0.16900000E+01           0.00000000E+00
  -0.16800000E+01           0.00000000E+00
  -0.16700000E+01           0.00000000E+00
  -0.16600000E+01           0.00000000E+00
  -0.16500000E+01           0.00000000E+00
  -0.16400000E+01           0.00000000E+00
  -0.16300000E+01           0.00000000E+00
  -0.16200000E+01           0.00000000E+00
  -0.16100000E+01           0.00000000E+00
  -0.16000000E+01           0.00000000E+00
  -0.15900000E+01           0.00000000E+00
  -0.15800000E+01           0.00000000E+00
  -0.15700000E+01           0.00000000E+00
  -0.15600000E+01           0.00000000E+00
  -0.15500000E+01           0.00000000E+00
  -0.15400000E+01           0.00000000E+00
  -0.15300000E+01           0.00000000E+00
  -0.15200000E+01           0.00000000E+00
  -0.15100000E+01           0.00000000E+00
  -0.15000000E+01           0.00000000E+00
  -0.14900000E+01           0.00000000E+00
  -0.14800000E+01           0.00000000E+00
  -0.14700000E+01           0.00000000E+00
  -0.14600000E+01           0.00000000E+00
  -0.14500000E+01           0.00000000E+00
  -0.14400000E+01           0.00000000E+00
  -0.14300000E+01           0.00000000E+00
  -0.14200000E+01           0.00000000E+00
  -0.14100000E+01           0.00000000E+00
  -0.14000000E+01           0.00000000E+00
  -0.13900000E+01           0.00000000E+00
  -0.13800000E+01           0.00000000E+00
  -0.13700000E+01           0.00000000E+00
  -0.13600000E+01           0.00000000E+00
  -0.13500000E+01           0.00000000E+00
  -0.13400000E+01           0.00000000E+00
  -0.13300000E+01           0.00000000E+00
  -0.13200000E+01           0.00000000E+00
  -0.13100000E+01           0.00000000E+00
  -0.13000000E+01           0.00000000E+00
  -0.12900000E+01           0.00000000E+00
  -0.12800000E+01           0.00000000E+00
  -0.12700000E+01           0.00000000E+00
  -0.12600000E+01           0.00000000E+00
  -0.12500000E+01           0.00000000E+00
  -0.12400000E+01           0.00000000E+00
  -0.12300000E+01           0.00000000E+00
  -0.12200000E+01           0.00000000E+00
  -0.12100000E+01           0.00000000E+00
  -0.12000000E+01           0.00000000E+00
  -0.11900000E+01           0.00000000E+00
  -0.11800000E+01           0.00000000E+00
  -0.11700000E+01           0.00000000E+00
  -0.11600000E+01           0.00000000E+00
  -0.11500000E+01           0.00000000E+00
  -0.11400000E+01           0.00000000E+00
  -0.11300000E+01           0.00000000E+00
  -0.11200000E+01           0.00000000E+00
  -0.11100000E+01           0.00000000E+00
  -0.11000000E+01           0.00000000E+00
  -0.10900000E+01           0.00000000E+00
  -0.10800000E+01           0.00000000E+00
  -0.10700000E+01           0.00000000E+00
  -0.10600000E+01           0.00000000E+00
  -0.10500000E+01           0.00000000E+00
  -0.10400000E+01           0.00000000E+00
  -0.10300000E+01           0.00000000E+00
  -0.10200000E+01           0.00000000E+00
  -0.10100000E+01           0.00000000E+00
  -0.10000000E+01           0.00000000E+00
  -0.99000000E+00           0.00000000E+00
  -0.98000000E+00           0.00000000E+00
  -0.97000000E+00           0.00000000E+00
  -0.96000000E+00           0.00000000E+00
  -0.95000000E+00           0.00000000E+00
  -0.94000000E+00           0.00000000E+00
  -0.93000000E+00           0.00000000E+00
  -0.92000000E+00           0.00000000E+00
  -0.91000000E+00           0.00000000E+00
  -0.90000000E+00           0.00000000E+00
  -0.89000000E+00           0.00000000E+00
  -0.88000000E+00           0.00000000E+00
  -0.87000000E+00           0.00000000E+00
  -0.86000000E+00           0.00000000E+00
  -0.85000000E+00           0.00000000E+00
  -0.84000000E+00           0.00000000E+00
  -0.83000000E+00           0.00000000E+00
  -0.82000000E+00           0.00000000E+00
  -0.81000000E+00           0.00000000E+00
  -0.80000000E+00           0.00000000E+00
  -0.79000000E+00           0.00000000E+00
  -0.78000000E+00           0.00000000E+00
  -0.77000000E+00           0.00000000E+00
  -0.76000000E+00           0.00000000E+00
  -0.75000000E+00           0.00000000E+00
  -0.74000000E+00           0.00000000E+00
  -0.73000000E+00           0.00000000E+00
  -0.72000000E+00           0.00000000E+00
  -0.71000000E+00           0.00000000E+00
  -0.70000000E+00           0.00000000E+00
  -0.69000000E+00           0.00000000E+00
  -0.68000000E+00           0.00000000E+00
  -0.67000000E+00           0.00000000E+00
  -0.66000000E+00           0.00000000E+00
  -0.65000000E+00           0.00000000E+00
  -0.64000000E+00           0.00000000E+00
  -0.63000000E+00           0.00000000E+00
  -0.62000000E+00           0.00000000E+00
  -0.61000000E+00           0.00000000E+00
  -0.60000000E+00           0.00000000E+00
  -0.59000000E+00           0.00000000E+00
  -0.58000000E+00           0.00000000E+00
  -0.57000000E+00           0.00000000E+00
  -0.56000000E+00           0.00000000E+00
  -0.55000000E+00           0.00000000E+00
  -0.54000000E+00           0.00000000E+00
  -0.53000000E+00           0.00000000E+00
  -0.52000000E+00           0.00000000E+00
  -0.51000000E+00           0.00000000E+00
  -0.50000000E+00           0.00000000E+00
  -0.49000000E+00           0.00000000E+00
  -0.48000000E+00           0.00000000E+00
  -0.47000000E+00           0.00000000E+00
  -0.46000000E+00           0.00000000E+00
  -0.45000000E+00           0.00000000E+00
  -0.44000000E+00           0.00000000E+00
  -0.43000000E+00           0.00000000E+00
  -0.42000000E+00           0.00000000E+00
  -0.41000000E+00           0.00000000E+00
  -0.40000000E+00           0.00000000E+00
  -0.39000000E+00           0.00000000E+00
  -0.38000000E+00           0.00000000E+00
  -0.37000000E+00           0.00000000E+00
  -0.36000000E+00           0.00000000E+00
  -0.35000000E+00           0.00000000E+00
  -0.34000000E+00           0.00000000E+00
  -0.33000000E+00           0.00000000E+00
  -0.32000000E+00           0.00000000E+00
  -0.31000000E+00           0.00000000E+00
  -0.30000000E+00           0.00000000E+00
  -0.29000000E+00           0.00000000E+00
  -0.28000000E+00           0.00000000E+00
  -0.27000000E+00           0.00000000E+00
  -0.26000000E+00           0.00000000E+00
  -0.25000000E+00           0.00000000E+00
  -0.24000000E+00           0.00000000E+00
  -0.23000000E+00           0.00000000E+00
  -0.22000000E+00           0.00000000E+00
  -0.21000000E+00           0.00000000E+00
  -0.20000000E+00           0.00000000E+00
  -0.19000000E+00           0.00000000E+00
  -0.18000000E+00           0.00000000E+00
  -0.17000000E+00           0.00000000E+00
  -0.16000000E+00           0.00000000E+00
  -0.15000000E+00           0.00000000E+00
  -0.14000000E+00           0.00000000E+00
  -0.13000000E+00           0.00000000E+00
  -0.12000000E+00           0.00000000E+00
  -0.11000000E+00           0.00000000E+00
  -0.10000000E+00           0.00000000E+00
  -0.90000000E-01           0.00000000E+00
  -0.80000000E-01           0.00000000E+00
  -0.70000000E-01           0.00000000E+00
  -0.60000000E-01           0.00000000E+00
  -0.50000000E-01           0.00000000E+00
  -0.40000000E-01           0.00000000E+00
  -0.30000000E-01           0.00000000E+00
  -0.20000000E-01           0.00000000E+00
  -0.10000000E-01           0.00000000E+00
   0.00000000E+00           0.63180000E-03
   0.10000000E-01           0.15975800E-01
   0.20000000E-01           0.54167200E-01
   0.30000000E-01           0.10891400E+00
   0.40000000E-01           0.17384200E+00
   0.50000000E-01           0.24668260E+00
   0.60000000E-01           0.32339760E+00
   0.70000000E-01           0.40236120E+00
   0.80000000E-01           0.48154720E+00
   0.90000000E-01           0.55893680E+00
   0.10000000E+00           0.63714880E+00
   0.11000000E+00           0.71291600E+00
   0.12000000E+00           0.78738440E+00
   0.13000000E+00           0.85457500E+00
   0.14000000E+00           0.92437180E+00
   0.15000000E+00           0.98770820E+00
   0.16000000E+00           0.10485660E+01
   0.17000000E+00           0.11088522E+01
   0.18000000E+00           0.11646948E+01
   0.19000000E+00           0.12174536E+01
   0.20000000E+00           0.12682262E+01
   0.21000000E+00           0.13163300E+01
   0.22000000E+00           0.13610822E+01
   0.23000000E+00           0.13985652E+01
   0.24000000E+00           0.14393112E+01
   0.25000000E+00           0.14735616E+01
   0.26000000E+00           0.15055304E+01
   0.27000000E+00           0.15345430E+01
   0.28000000E+00           0.15606780E+01
   0.29000000E+00           0.15833132E+01
   0.30000000E+00           0.16065146E+01
   0.31000000E+00           0.16228188E+01
   0.32000000E+00           0.16404532E+01
   0.33000000E+00           0.16512400E+01
   0.34000000E+00           0.16597776E+01
   0.35000000E+00           0.16670092E+01
   0.36000000E+00           0.16715120E+01
   0.37000000E+00           0.16734304E+01
   0.38000000E+00           0.16730758E+01
   0.39000000E+00           0.16713498E+01
   0.40000000E+00           0.16650782E+01
   0.41000000E+00           0.16568642E+01
   0.42000000E+00           0.16489928E+01
   0.43000000E+00           0.16342700E+01
   0.44000000E+00           0.16198768E+01
   0.45000000E+00           0.16049888E+01
   0.46000000E+00           0.15878380E+01
   0.47000000E+00           0.15688272E+01
   0.48000000E+00           0.15489764E+01
   0.49000000E+00           0.15229526E+01
   0.50000000E+00           0.15006966E+01
   0.51000000E+00           0.14766150E+01
   0.52000000E+00           0.14484702E+01
   0.53000000E+00           0.14215154E+01
   0.54000000E+00           0.13909278E+01
   0.55000000E+00           0.13623274E+01
   0.56000000E+00           0.13341764E+01
   0.57000000E+00           0.13015410E+01
   0.58000000E+00           0.12692414E+01
   0.59000000E+00           0.12372694E+01
   0.60000000E+00           0.12041796E+01
   0.61000000E+00           0.11713556E+01
   0.62000000E+00           0.11366252E+01
   0.63000000E+00           0.11046096E+01
   0.64000000E+00           0.10692508E+01
   0.65000000E+00           0.10367564E+01
   0.66000000E+00           0.10030208E+01
   0.67000000E+00           0.96974380E+00
   0.68000000E+00           0.93631740E+00
   0.69000000E+00           0.90276240E+00
   0.70000000E+00           0.86869920E+00
   0.71000000E+00           0.83710640E+00
   0.72000000E+00           0.80541480E+00
   0.73000000E+00           0.77371800E+00
   0.74000000E+00           0.74296020E+00
   0.75000000E+00           0.71144820E+00
   0.76000000E+00           0.68115620E+00
   0.77000000E+00           0.65275200E+00
   0.78000000E+00           0.62383500E+00
   0.79000000E+00           0.59581640E+00
   0.80000000E+00           0.56862120E+00
   0.81000000E+00           0.54174400E+00
   0.82000000E+00           0.51647520E+00
   0.83000000E+00           0.49143540E+00
   0.84000000E+00           0.46668000E+00
   0.85000000E+00           0.44256380E+00
   0.86000000E+00           0.41959740E+00
   0.87000000E+00           0.39754700E+00
   0.88000000E+00           0.37628560E+00
   0.89000000E+00           0.35652420E+00
   0.90000000E+00           0.33701360E+00
   0.91000000E+00           0.31798800E+00
   0.92000000E+00           0.29955080E+00
   0.93000000E+00           0.28287380E+00
   0.94000000E+00           0.26588060E+00
   0.95000000E+00           0.24979020E+00
   0.96000000E+00           0.23491440E+00
   0.97000000E+00           0.22065620E+00
   0.98000000E+00           0.20635240E+00
   0.99000000E+00           0.19341960E+00
   0.10000000E+01           0.18112200E+00
   0.10100000E+01           0.16937280E+00
   0.10200000E+01           0.15759920E+00
   0.10300000E+01           0.14706180E+00
   0.10400000E+01           0.13762100E+00
   0.10500000E+01           0.12769440E+00
   0.10600000E+01           0.11908880E+00
   0.10700000E+01           0.11033220E+00
   0.10800000E+01           0.10201600E+00
   0.10900000E+01           0.95045400E-01
   0.11000000E+01           0.88432200E-01
   0.11100000E+01           0.81512000E-01
   0.11200000E+01           0.74956400E-01
   0.11300000E+01           0.69612200E-01
   0.11400000E+01           0.64400200E-01
   0.11500000E+01           0.59271400E-01
   0.11600000E+01           0.54727000E-01
   0.11700000E+01           0.50167600E-01
   0.11800000E+01           0.46021600E-01
   0.11900000E+01           0.42384200E-01
   0.12000000E+01           0.39050600E-01
   0.12100000E+01           0.35583400E-01
   0.12200000E+01           0.32599600E-01
   0.12300000E+01           0.29591800E-01
   0.12400000E+01           0.27065800E-01
   0.12500000E+01           0.24680800E-01
   0.12600000E+01           0.22558800E-01
   0.12700000E+01           0.20578600E-01
   0.12800000E+01           0.18471200E-01
   0.12900000E+01           0.16881000E-01
   0.13000000E+01           0.15538400E-01
   0.13100000E+01           0.13928000E-01
   0.13200000E+01           0.12525800E-01
   0.13300000E+01           0.11525600E-01
   0.13400000E+01           0.10388400E-01
   0.13500000E+01           0.93562000E-02
   0.13600000E+01           0.84394000E-02
   0.13700000E+01           0.76380000E-02
   0.13800000E+01           0.67298000E-02
   0.13900000E+01           0.60958000E-02
   0.14000000E+01           0.54816000E-02
   0.14100000E+01           0.48584000E-02
   0.14200000E+01           0.43932000E-02
   0.14300000E+01           0.39032000E-02
   0.14400000E+01           0.34758000E-02
   0.14500000E+01           0.31050000E-02
   0.14600000E+01           0.27970000E-02
   0.14700000E+01           0.24988000E-02
   0.14800000E+01           0.21432000E-02
   0.14900000E+01           0.19162000E-02
   0.15000000E+01           0.17040000E-02
   0.15100000E+01           0.15298000E-02
   0.15200000E+01           0.13686000E-02
   0.15300000E+01           0.12118000E-02
   0.15400000E+01           0.10616000E-02
   0.15500000E+01           0.94020000E-03
   0.15600000E+01           0.85040000E-03
   0.15700000E+01           0.74220000E-03
   0.15800000E+01           0.65020000E-03
   0.15900000E+01           0.57760000E-03
   0.16000000E+01           0.49400000E-03
   0.16100000E+01           0.43760000E-03
   0.16200000E+01           0.37740000E-03
   0.16300000E+01           0.32240000E-03
   0.16400000E+01           0.28600000E-03
   0.16500000E+01           0.26280000E-03
   0.16600000E+01           0.24820000E-03
   0.16700000E+01           0.19560000E-03
   0.16800000E+01           0.17940000E-03
   0.16900000E+01           0.14280000E-03
   0.17000000E+01           0.10900000E-03
   0.17100000E+01           0.11100000E-03
   0.17200000E+01           0.81600000E-04
   0.17300000E+01           0.84000000E-04
   0.17400000E+01           0.67800000E-04
   0.17500000E+01           0.52400000E-04
   0.17600000E+01           0.51800000E-04
   0.17700000E+01           0.43000000E-04
   0.17800000E+01           0.37600000E-04
   0.17900000E+01           0.33000000E-04
   0.18000000E+01           0.26800000E-04
   0.18100000E+01           0.21800000E-04
   0.18200000E+01           0.16600000E-04
   0.18300000E+01           0.17600000E-04
   0.18400000E+01           0.13400000E-04
   0.18500000E+01           0.12800000E-04
   0.18600000E+01           0.11200000E-04
   0.18700000E+01           0.76000000E-05
   0.18800000E+01           0.92000000E-05
   0.18900000E+01           0.64000000E-05
   0.19000000E+01           0.50000000E-05
   0.19100000E+01           0.44000000E-05
   0.19200000E+01           0.42000000E-05
   0.19300000E+01           0.32000000E-05
   0.19400000E+01           0.16000000E-05
   0.19500000E+01           0.10000000E-05
   0.19600000E+01           0.16000000E-05
   0.19700000E+01           0.40000000E-06
   0.19800000E+01           0.16000000E-05
   0.19900000E+01           0.40000000E-06
   0.20000000E+01           0.10000000E-05
   0.20100000E+01           0.60000000E-06
   0.20200000E+01           0.80000000E-06
   0.20300000E+01           0.80000000E-06
   0.20400000E+01           0.20000000E-06
   0.20500000E+01           0.40000000E-06
   0.20600000E+01           0.20000000E-06
   0.20700000E+01           0.60000000E-06
   0.20800000E+01           0.00000000E+00
   0.20900000E+01           0.00000000E+00
   0.21000000E+01           0.00000000E+00
   0.21100000E+01           0.00000000E+00
   0.21200000E+01           0.00000000E+00
   0.21300000E+01           0.40000000E-06
   0.21400000E+01           0.00000000E+00
   0.21500000E+01           0.00000000E+00
   0.21600000E+01           0.00000000E+00
   0.21700000E+01           0.00000000E+00
   0.21800000E+01           0.00000000E+00
   0.21900000E+01           0.00000000E+00
   0.22000000E+01           0.00000000E+00
   0.22100000E+01           0.00000000E+00
   0.22200000E+01           0.20000000E-06
   0.22300000E+01           0.00000000E+00
   0.22400000E+01           0.00000000E+00
   0.22500000E+01           0.00000000E+00
   0.22600000E+01           0.00000000E+00
   0.22700000E+01           0.00000000E+00
   0.22800000E+01           0.00000000E+00
   0.22900000E+01           0.00000000E+00
   0.23000000E+01           0.00000000E+00
   0.23100000E+01           0.00000000E+00
   0.23200000E+01           0.00000000E+00
   0.23300000E+01           0.00000000E+00
   0.23400000E+01           0.00000000E+00
   0.23500000E+01           0.00000000E+00
   0.23600000E+01           0.00000000E+00
   0.23700000E+01           0.00000000E+00
   0.23800000E+01           0.00000000E+00
   0.23900000E+01           0.00000000E+00
   0.24000000E+01           0.00000000E+00
   0.24100000E+01           0.00000000E+00
   0.24200000E+01           0.00000000E+00
   0.24300000E+01           0.00000000E+00
   0.24400000E+01           0.00000000E+00
   0.24500000E+01           0.00000000E+00
   0.24600000E+01           0.00000000E+00
   0.24700000E+01           0.00000000E+00
   0.24800000E+01           0.00000000E+00
   0.24900000E+01           0.00000000E+00
   0.25000000E+01           0.00000000E+00
   0.25100000E+01           0.00000000E+00
   0.25200000E+01           0.00000000E+00
   0.25300000E+01           0.00000000E+00
   0.25400000E+01           0.00000000E+00
   0.25500000E+01           0.00000000E+00
   0.25600000E+01           0.00000000E+00
   0.25700000E+01           0.00000000E+00
   0.25800000E+01           0.00000000E+00
   0.25900000E+01           0.00000000E+00
   0.26000000E+01           0.00000000E+00
   0.26100000E+01           0.00000000E+00
   0.26200000E+01           0.00000000E+00
   0.26300000E+01           0.00000000E+00
   0.26400000E+01           0.00000000E+00
   0.26500000E+01           0.00000000E+00
   0.26600000E+01           0.00000000E+00
   0.26700000E+01           0.00000000E+00
   0.26800000E+01           0.00000000E+00
   0.26900000E+01           0.00000000E+00
   0.27000000E+01           0.00000000E+00
   0.27100000E+01           0.00000000E+00
   0.27200000E+01           0.00000000E+00
   0.27300000E+01           0.00000000E+00
   0.27400000E+01           0.00000000E+00
   0.27500000E+01           0.00000000E+00
   0.27600000E+01           0.00000000E+00
   0.27700000E+01           0.00000000E+00
   0.27800000E+01           0.00000000E+00
   0.27900000E+01           0.00000000E+00
   0.28000000E+01           0.00000000E+00
   0.28100000E+01           0.00000000E+00
   0.28200000E+01           0.00000000E+00
   0.28300000E+01           0.00000000E+00
   0.28400000E+01           0.00000000E+00
   0.28500000E+01           0.00000000E+00
   0.28600000E+01           0.00000000E+00
   0.28700000E+01           0.00000000E+00
   0.28800000E+01           0.00000000E+00
   0.28900000E+01           0.00000000E+00
   0.29000000E+01           0.00000000E+00
   0.29100000E+01           0.00000000E+00
   0.29200000E+01           0.00000000E+00
   0.29300000E+01           0.00000000E+00
   0.29400000E+01           0.00000000E+00
   0.29500000E+01           0.00000000E+00
   0.29600000E+01           0.00000000E+00
   0.29700000E+01           0.00000000E+00
   0.29800000E+01           0.00000000E+00
   0.29900000E+01           0.00000000E+00
   0.30000000E+01           0.00000000E+00
   0.30100000E+01           0.00000000E+00
   0.30200000E+01           0.00000000E+00
   0.30300000E+01           0.00000000E+00
   0.30400000E+01           0.00000000E+00
   0.30500000E+01           0.00000000E+00
   0.30600000E+01           0.00000000E+00
   0.30700000E+01           0.00000000E+00
   0.30800000E+01           0.00000000E+00
   0.30900000E+01           0.00000000E+00
   0.31000000E+01           0.00000000E+00
   0.31100000E+01           0.00000000E+00
   0.31200000E+01           0.00000000E+00
   0.31300000E+01           0.00000000E+00
   0.31400000E+01           0.00000000E+00
   0.31500000E+01           0.00000000E+00
   0.31600000E+01           0.00000000E+00
   0.31700000E+01           0.00000000E+00
   0.31800000E+01           0.00000000E+00
   0.31900000E+01           0.00000000E+00
   0.32000000E+01           0.00000000E+00
   0.32100000E+01           0.00000000E+00
   0.32200000E+01           0.00000000E+00
   0.32300000E+01           0.00000000E+00
   0.32400000E+01           0.00000000E+00
   0.32500000E+01           0.00000000E+00
   0.32600000E+01           0.00000000E+00
   0.32700000E+01           0.00000000E+00
   0.32800000E+01           0.00000000E+00
   0.32900000E+01           0.00000000E+00
   0.33000000E+01           0.00000000E+00
   0.33100000E+01           0.00000000E+00
   0.33200000E+01           0.00000000E+00
   0.33300000E+01           0.00000000E+00
   0.33400000E+01           0.00000000E+00
   0.33500000E+01           0.00000000E+00
   0.33600000E+01           0.00000000E+00
   0.33700000E+01           0.00000000E+00
   0.33800000E+01           0.00000000E+00
   0.33900000E+01           0.00000000E+00
   0.34000000E+01           0.00000000E+00
   0.34100000E+01           0.00000000E+00
   0.34200000E+01           0.00000000E+00
   0.34300000E+01           0.00000000E+00
   0.34400000E+01           0.00000000E+00
   0.34500000E+01           0.00000000E+00
   0.34600000E+01           0.00000000E+00
   0.34700000E+01           0.00000000E+00
   0.34800000E+01           0.00000000E+00
   0.34900000E+01           0.00000000E+00
   0.35000000E+01           0.00000000E+00
   0.35100000E+01           0.00000000E+00
   0.35200000E+01           0.00000000E+00
   0.35300000E+01           0.00000000E+00
   0.35400000E+01           0.00000000E+00
   0.35500000E+01           0.00000000E+00
   0.35600000E+01           0.00000000E+00
   0.35700000E+01           0.00000000E+00
   0.35800000E+01           0.00000000E+00
   0.35900000E+01           0.00000000E+00
   0.36000000E+01           0.00000000E+00
   0.36100000E+01           0.00000000E+00
   0.36200000E+01           0.00000000E+00
   0.36300000E+01           0.00000000E+00
   0.36400000E+01           0.00000000E+00
   0.36500000E+01           0.00000000E+00
   0.36600000E+01           0.00000000E+00
   0.36700000E+01           0.00000000E+00
   0.36800000E+01           0.00000000E+00
   0.36900000E+01           0.00000000E+00
   0.37000000E+01           0.00000000E+00
   0.37100000E+01           0.00000000E+00
   0.37200000E+01           0.00000000E+00
   0.37300000E+01           0.00000000E+00
   0.37400000E+01           0.00000000E+00
   0.37500000E+01           0.00000000E+00
   0.37600000E+01           0.00000000E+00
   0.37700000E+01           0.00000000E+00
   0.37800000E+01           0.00000000E+00
   0.37900000E+01           0.00000000E+00
   0.38000000E+01           0.00000000E+00
   0.38100000E+01           0.00000000E+00
   0.38200000E+01           0.00000000E+00
   0.38300000E+01           0.00000000E+00
   0.38400000E+01           0.00000000E+00
   0.38500000E+01           0.00000000E+00
   0.38600000E+01           0.00000000E+00
   0.38700000E+01           0.00000000E+00
   0.38800000E+01           0.00000000E+00
   0.38900000E+01           0.00000000E+00
   0.39000000E+01           0.00000000E+00
   0.39100000E+01           0.00000000E+00
   0.39200000E+01           0.00000000E+00
   0.39300000E+01           0.00000000E+00
   0.39400000E+01           0.00000000E+00
   0.39500000E+01           0.00000000E+00
   0.39600000E+01           0.00000000E+00
   0.39700000E+01           0.00000000E+00
   0.39800000E+01           0.00000000E+00
   0.39900000E+01           0.00000000E+00
   0.40000000E+01           0.00000000E+00
 #T=    11.0000
  -0.40000000E+01           0.00000000E+00
  -0.39900000E+01           0.00000000E+00
  -0.39800000E+01           0.00000000E+00
  -0.39700000E+01           0.00000000E+00
  -0.39600000E+01           0.00000000E+00
  -0.39500000E+01           0.00000000E+00
  -0.39400000E+01           0.00000000E+00
  -0.39300000E+01           0.00000000E+00
  -0.39200000E+01           0.00000000E+00
  -0.39100000E+01           0.00000000E+00
  -0.39000000E+01           0.00000000E+00
  -0.38900000E+01           0.00000000E+00
  -0.38800000E+01           0.00000000E+00
  -0.38700000E+01           0.00000000E+00
  -0.38600000E+01           0.00000000E+00
  -0.38500000E+01           0.00000000E+00
  -0.38400000E+01           0.00000000E+00
  -0.38300000E+01           0.00000000E+00
  -0.38200000E+01           0.00000000E+00
  -0.38100000E+01           0.00000000E+00
  -0.38000000E+01           0.00000000E+00
  -0.37900000E+01           0.00000000E+00
  -0.37800000E+01           0.00000000E+00
  -0.37700000E+01           0.00000000E+00
  -0.37600000E+01           0.00000000E+00
  -0.37500000E+01           0.00000000E+00
  -0.37400000E+01           0.00000000E+00
  -0.37300000E+01           0.00000000E+00
  -0.37200000E+01           0.00000000E+00
  -0.37100000E+01           0.00000000E+00
  -0.37000000E+01           0.00000000E+00
  -0.36900000E+01           0.00000000E+00
  -0.36800000E+01           0.00000000E+00
  -0.36700000E+01           0.00000000E+00
  -0.36600000E+01           0.00000000E+00
  -0.36500000E+01           0.00000000E+00
  -0.36400000E+01           0.00000000E+00
  -0.36300000E+01           0.00000000E+00
  -0.36200000E+01           0.00000000E+00
  -0.36100000E+01           0.00000000E+00
  -0.36000000E+01           0.00000000E+00
  -0.35900000E+01           0.00000000E+00
  -0.35800000E+01           0.00000000E+00
  -0.35700000E+01           0.00000000E+00
  -0.35600000E+01           0.00000000E+00
  -0.35500000E+01           0.00000000E+00
  -0.35400000E+01           0.00000000E+00
  -0.35300000E+01           0.00000000E+00
  -0.35200000E+01           0.00000000E+00
  -0.35100000E+01           0.00000000E+00
  -0.35000000E+01           0.00000000E+00
  -0.34900000E+01           0.00000000E+00
  -0.34800000E+01           0.00000000E+00
  -0.34700000E+01           0.00000000E+00
  -0.34600000E+01           0.00000000E+00
  -0.34500000E+01           0.00000000E+00
  -0.34400000E+01           0.00000000E+00
  -0.34300000E+01           0.00000000E+00
  -0.34200000E+01           0.00000000E+00
  -0.34100000E+01           0.00000000E+00
  -0.34000000E+01           0.00000000E+00
  -0.33900000E+01           0.00000000E+00
  -0.33800000E+01           0.00000000E+00
  -0.33700000E+01           0.00000000E+00
  -0.33600000E+01           0.00000000E+00
  -0.33500000E+01           0.00000000E+00
  -0.33400000E+01           0.00000000E+00
  -0.33300000E+01           0.00000000E+00
  -0.33200000E+01           0.00000000E+00
  -0.33100000E+01           0.00000000E+00
  -0.33000000E+01           0.00000000E+00
  -0.32900000E+01           0.00000000E+00
  -0.32800000E+01           0.00000000E+00
  -0.32700000E+01           0.00000000E+00
  -0.32600000E+01           0.00000000E+00
  -0.32500000E+01           0.00000000E+00
  -0.32400000E+01           0.00000000E+00
  -0.32300000E+01           0.00000000E+00
  -0.32200000E+01           0.00000000E+00
  -0.32100000E+01           0.00000000E+00
  -0.32000000E+01           0.00000000E+00
  -0.31900000E+01           0.00000000E+00
  -0.31800000E+01           0.00000000E+00
  -0.31700000E+01           0.00000000E+00
  -0.31600000E+01           0.00000000E+00
  -0.31500000E+01           0.00000000E+00
  -0.31400000E+01           0.00000000E+00
  -0.31300000E+01           0.00000000E+00
  -0.31200000E+01           0.00000000E+00
  -0.31100000E+01           0.00000000E+00
  -0.31000000E+01           0.00000000E+00
  -0.30900000E+01           0.00000000E+00
  -0.30800000E+01           0.00000000E+00
  -0.30700000E+01           0.00000000E+00
  -0.30600000E+01           0.00000000E+00
  -0.30500000E+01           0.00000000E+00
  -0.30400000E+01           0.00000000E+00
  -0.30300000E+01           0.00000000E+00
  -0.30200000E+01           0.00000000E+00
  -0.30100000E+01           0.00000000E+00
  -0.30000000E+01           0.00000000E+00
  -0.29900000E+01           0.00000000E+00
  -0.29800000E+01           0.00000000E+00
  -0.29700000E+01           0.00000000E+00
  -0.29600000E+01           0.00000000E+00
  -0.29500000E+01           0.00000000E+00
  -0.29400000E+01           0.00000000E+00
  -0.29300000E+01           0.00000000E+00
  -0.29200000E+01           0.00000000E+00
  -0.29100000E+01           0.00000000E+00
  -0.29000000E+01           0.00000000E+00
  -0.28900000E+01           0.00000000E+00
  -0.28800000E+01           0.00000000E+00
  -0.28700000E+01           0.00000000E+00
  -0.28600000E+01           0.00000000E+00
  -0.28500000E+01           0.00000000E+00
  -0.28400000E+01           0.00000000E+00
  -0.28300000E+01           0.00000000E+00
  -0.28200000E+01           0.00000000E+00
  -0.28100000E+01           0.00000000E+00
  -0.28000000E+01           0.00000000E+00
  -0.27900000E+01           0.00000000E+00
  -0.27800000E+01           0.00000000E+00
  -0.27700000E+01           0.00000000E+00
  -0.27600000E+01           0.00000000E+00
  -0.27500000E+01           0.00000000E+00
  -0.27400000E+01           0.00000000E+00
  -0.27300000E+01           0.00000000E+00
  -0.27200000E+01           0.00000000E+00
  -0.27100000E+01           0.00000000E+00
  -0.27000000E+01           0.00000000E+00
  -0.26900000E+01           0.00000000E+00
  -0.26800000E+01           0.00000000E+00
  -0.26700000E+01           0.00000000E+00
  -0.26600000E+01           0.00000000E+00
  -0.26500000E+01           0.00000000E+00
  -0.26400000E+01           0.00000000E+00
  -0.26300000E+01           0.00000000E+00
  -0.26200000E+01           0.00000000E+00
  -0.26100000E+01           0.00000000E+00
  -0.26000000E+01           0.00000000E+00
  -0.25900000E+01           0.00000000E+00
  -0.25800000E+01           0.00000000E+00
  -0.25700000E+01           0.00000000E+00
  -0.25600000E+01           0.00000000E+00
  -0.25500000E+01           0.00000000E+00
  -0.25400000E+01           0.00000000E+00
  -0.25300000E+01           0.00000000E+00
  -0.25200000E+01           0.00000000E+00
  -0.25100000E+01           0.00000000E+00
  -0.25000000E+01           0.00000000E+00
  -0.24900000E+01           0.00000000E+00
  -0.24800000E+01           0.00000000E+00
  -0.24700000E+01           0.00000000E+00
  -0.24600000E+01           0.00000000E+00
  -0.24500000E+01           0.00000000E+00
  -0.24400000E+01           0.00000000E+00
  -0.24300000E+01           0.00000000E+00
  -0.24200000E+01           0.00000000E+00
  -0.24100000E+01           0.00000000E+00
  -0.24000000E+01           0.00000000E+00
  -0.23900000E+01           0.00000000E+00
  -0.23800000E+01           0.00000000E+00
  -0.23700000E+01           0.00000000E+00
  -0.23600000E+01           0.00000000E+00
  -0.23500000E+01           0.00000000E+00
  -0.23400000E+01           0.00000000E+00
  -0.23300000E+01           0.00000000E+00
  -0.23200000E+01           0.00000000E+00
  -0.23100000E+01           0.00000000E+00
  -0.23000000E+01           0.00000000E+00
  -0.22900000E+01           0.00000000E+00
  -0.22800000E+01           0.00000000E+00
  -0.22700000E+01           0.00000000E+00
  -0.22600000E+01           0.00000000E+00
  -0.22500000E+01           0.00000000E+00
  -0.22400000E+01           0.00000000E+00
  -0.22300000E+01           0.00000000E+00
  -0.22200000E+01           0.00000000E+00
  -0.22100000E+01           0.00000000E+00
  -0.22000000E+01           0.00000000E+00
  -0.21900000E+01           0.00000000E+00
  -0.21800000E+01           0.00000000E+00
  -0.21700000E+01           0.00000000E+00
  -0.21600000E+01           0.00000000E+00
  -0.21500000E+01           0.00000000E+00
  -0.21400000E+01           0.00000000E+00
  -0.21300000E+01           0.00000000E+00
  -0.21200000E+01           0.00000000E+00
  -0.21100000E+01           0.00000000E+00
  -0.21000000E+01           0.00000000E+00
  -0.20900000E+01           0.00000000E+00
  -0.20800000E+01           0.00000000E+00
  -0.20700000E+01           0.00000000E+00
  -0.20600000E+01           0.00000000E+00
  -0.20500000E+01           0.00000000E+00
  -0.20400000E+01           0.00000000E+00
  -0.20300000E+01           0.00000000E+00
  -0.20200000E+01           0.00000000E+00
  -0.20100000E+01           0.00000000E+00
  -0.20000000E+01           0.00000000E+00
  -0.19900000E+01           0.00000000E+00
  -0.19800000E+01           0.00000000E+00
  -0.19700000E+01           0.00000000E+00
  -0.19600000E+01           0.00000000E+00
  -0.19500000E+01           0.00000000E+00
  -0.19400000E+01           0.00000000E+00
  -0.19300000E+01           0.00000000E+00
  -0.19200000E+01           0.00000000E+00
  -0.19100000E+01           0.00000000E+00
  -0.19000000E+01           0.00000000E+00
  -0.18900000E+01           0.00000000E+00
  -0.18800000E+01           0.00000000E+00
  -0.18700000E+01           0.00000000E+00
  -0.18600000E+01           0.00000000E+00
  -0.18500000E+01           0.00000000E+00
  -0.18400000E+01           0.00000000E+00
  -0.18300000E+01           0.00000000E+00
  -0.18200000E+01           0.00000000E+00
  -0.18100000E+01           0.00000000E+00
  -0.18000000E+01           0.00000000E+00
  -0.17900000E+01           0.00000000E+00
  -0.17800000E+01           0.00000000E+00
  -0.17700000E+01           0.00000000E+00
  -0.17600000E+01           0.00000000E+00
  -0.17500000E+01           0.00000000E+00
  -0.17400000E+01           0.00000000E+00
  -0.17300000E+01           0.00000000E+00
  -0.17200000E+01           0.00000000E+00
  -0.17100000E+01           0.00000000E+00
  -0.17000000E+01           0.00000000E+00
  -0.16900000E+01           0.00000000E+00
  -0.16800000E+01           0.00000000E+00
  -0.16700000E+01           0.00000000E+00
  -0.16600000E+01           0.00000000E+00
  -0.16500000E+01           0.00000000E+00
  -0.16400000E+01           0.00000000E+00
  -0.16300000E+01           0.00000000E+00
  -0.16200000E+01           0.00000000E+00
  -0.16100000E+01           0.00000000E+00
  -0.16000000E+01           0.00000000E+00
  -0.15900000E+01           0.00000000E+00
  -0.15800000E+01           0.00000000E+00
  -0.15700000E+01           0.00000000E+00
  -0.15600000E+01           0.00000000E+00
  -0.15500000E+01           0.00000000E+00
  -0.15400000E+01           0.00000000E+00
  -0.15300000E+01           0.00000000E+00
  -0.15200000E+01           0.00000000E+00
  -0.15100000E+01           0.00000000E+00
  -0.15000000E+01           0.00000000E+00
  -0.14900000E+01           0.00000000E+00
  -0.14800000E+01           0.00000000E+00
  -0.14700000E+01           0.00000000E+00
  -0.14600000E+01           0.00000000E+00
  -0.14500000E+01           0.00000000E+00
  -0.14400000E+01           0.00000000E+00
  -0.14300000E+01           0.00000000E+00
  -0.14200000E+01           0.00000000E+00
  -0.14100000E+01           0.00000000E+00
  -0.14000000E+01           0.00000000E+00
  -0.13900000E+01           0.00000000E+00
  -0.13800000E+01           0.00000000E+00
  -0.13700000E+01           0.00000000E+00
  -0.13600000E+01           0.00000000E+00
  -0.13500000E+01           0.00000000E+00
  -0.13400000E+01           0.00000000E+00
  -0.13300000E+01           0.00000000E+00
  -0.13200000E+01           0.00000000E+00
  -0.13100000E+01           0.00000000E+00
  -0.13000000E+01           0.00000000E+00
  -0.12900000E+01           0.00000000E+00
  -0.12800000E+01           0.00000000E+00
  -0.12700000E+01           0.00000000E+00
  -0.12600000E+01           0.00000000E+00
  -0.12500000E+01           0.00000000E+00
  -0.12400000E+01           0.00000000E+00
  -0.12300000E+01           0.00000000E+00
  -0.12200000E+01           0.00000000E+00
  -0.12100000E+01           0.00000000E+00
  -0.12000000E+01           0.00000000E+00
  -0.11900000E+01           0.00000000E+00
  -0.11800000E+01           0.00000000E+00
  -0.11700000E+01           0.00000000E+00
  -0.11600000E+01           0.00000000E+00
  -0.11500000E+01           0.00000000E+00
  -0.11400000E+01           0.00000000E+00
  -0.11300000E+01           0.00000000E+00
  -0.11200000E+01           0.00000000E+00
  -0.11100000E+01           0.00000000E+00
  -0.11000000E+01           0.00000000E+00
  -0.10900000E+01           0.00000000E+00
  -0.10800000E+01           0.00000000E+00
  -0.10700000E+01           0.00000000E+00
  -0.10600000E+01           0.00000000E+00
  -0.10500000E+01           0.00000000E+00
  -0.10400000E+01           0.00000000E+00
  -0.10300000E+01           0.00000000E+00
  -0.10200000E+01           0.00000000E+00
  -0.10100000E+01           0.00000000E+00
  -0.10000000E+01           0.00000000E+00
  -0.99000000E+00           0.00000000E+00
  -0.98000000E+00           0.00000000E+00
  -0.97000000E+00           0.00000000E+00
  -0.96000000E+00           0.00000000E+00
  -0.95000000E+00           0.00000000E+00
  -0.94000000E+00           0.00000000E+00
  -0.93000000E+00           0.00000000E+00
  -0.92000000E+00           0.00000000E+00
  -0.91000000E+00           0.00000000E+00
  -0.90000000E+00           0.00000000E+00
  -0.89000000E+00           0.00000000E+00
  -0.88000000E+00           0.00000000E+00
  -0.87000000E+00           0.00000000E+00
  -0.86000000E+00           0.00000000E+00
  -0.85000000E+00           0.00000000E+00
  -0.84000000E+00           0.00000000E+00
  -0.83000000E+00           0.00000000E+00
  -0.82000000E+00           0.00000000E+00
  -0.81000000E+00           0.00000000E+00
  -0.80000000E+00           0.00000000E+00
  -0.79000000E+00           0.00000000E+00
  -0.78000000E+00           0.00000000E+00
  -0.77000000E+00           0.00000000E+00
  -0.76000000E+00           0.00000000E+00
  -0.75000000E+00           0.00000000E+00
  -0.74000000E+00           0.00000000E+00
  -0.73000000E+00           0.00000000E+00
  -0.72000000E+00           0.00000000E+00
  -0.71000000E+00           0.00000000E+00
  -0.70000000E+00           0.00000000E+00
  -0.69000000E+00           0.00000000E+00
  -0.68000000E+00           0.00000000E+00
  -0.67000000E+00           0.00000000E+00
  -0.66000000E+00           0.00000000E+00
  -0.65000000E+00           0.00000000E+00
  -0.64000000E+00           0.00000000E+00
  -0.63000000E+00           0.00000000E+00
  -0.62000000E+00           0.00000000E+00
  -0.61000000E+00           0.00000000E+00
  -0.60000000E+00           0.00000000E+00
  -0.59000000E+00           0.00000000E+00
  -0.58000000E+00           0.00000000E+00
  -0.57000000E+00           0.00000000E+00
  -0.56000000E+00           0.00000000E+00
  -0.55000000E+00           0.00000000E+00
  -0.54000000E+00           0.00000000E+00
  -0.53000000E+00           0.00000000E+00
  -0.52000000E+00           0.00000000E+00
  -0.51000000E+00           0.00000000E+00
  -0.50000000E+00           0.00000000E+00
  -0.49000000E+00           0.00000000E+00
  -0.48000000E+00           0.00000000E+00
  -0.47000000E+00           0.00000000E+00
  -0.46000000E+00           0.00000000E+00
  -0.45000000E+00           0.00000000E+00
  -0.44000000E+00           0.00000000E+00
  -0.43000000E+00           0.00000000E+00
  -0.42000000E+00           0.00000000E+00
  -0.41000000E+00           0.00000000E+00
  -0.40000000E+00           0.00000000E+00
  -0.39000000E+00           0.00000000E+00
  -0.38000000E+00           0.00000000E+00
  -0.37000000E+00           0.00000000E+00
  -0.36000000E+00           0.00000000E+00
  -0.35000000E+00           0.00000000E+00
  -0.34000000E+00           0.00000000E+00
  -0.33000000E+00           0.00000000E+00
  -0.32000000E+00           0.00000000E+00
  -0.31000000E+00           0.00000000E+00
  -0.30000000E+00           0.00000000E+00
  -0.29000000E+00           0.00000000E+00
  -0.28000000E+00           0.00000000E+00
  -0.27000000E+00           0.00000000E+00
  -0.26000000E+00           0.00000000E+00
  -0.25000000E+00           0.00000000E+00
  -0.24000000E+00           0.00000000E+00
  -0.23000000E+00           0.00000000E+00
  -0.22000000E+00           0.00000000E+00
  -0.21000000E+00           0.00000000E+00
  -0.20000000E+00           0.00000000E+00
  -0.19000000E+00           0.00000000E+00
  -0.18000000E+00           0.00000000E+00
  -0.17000000E+00           0.00000000E+00
  -0.16000000E+00           0.00000000E+00
  -0.15000000E+00           0.00000000E+00
  -0.14000000E+00           0.00000000E+00
  -0.13000000E+00           0.00000000E+00
  -0.12000000E+00           0.00000000E+00
  -0.11000000E+00           0.00000000E+00
  -0.10000000E+00           0.00000000E+00
  -0.90000000E-01           0.00000000E+00
  -0.80000000E-01           0.00000000E+00
  -0.70000000E-01           0.00000000E+00
  -0.60000000E-01           0.00000000E+00
  -0.50000000E-01           0.00000000E+00
  -0.40000000E-01           0.00000000E+00
  -0.30000000E-01           0.00000000E+00
  -0.20000000E-01           0.00000000E+00
  -0.10000000E-01           0.00000000E+00
   0.00000000E+00           0.53900000E-03
   0.10000000E-01           0.13114000E-01
   0.20000000E-01           0.45280400E-01
   0.30000000E-01           0.91430600E-01
   0.40000000E-01           0.14852560E+00
   0.50000000E-01           0.21190820E+00
   0.60000000E-01           0.28105120E+00
   0.70000000E-01           0.35060320E+00
   0.80000000E-01           0.42145040E+00
   0.90000000E-01           0.49192820E+00
   0.10000000E+00           0.56362560E+00
   0.11000000E+00           0.63298560E+00
   0.12000000E+00           0.70112600E+00
   0.13000000E+00           0.76701400E+00
   0.14000000E+00           0.82898020E+00
   0.15000000E+00           0.89166660E+00
   0.16000000E+00           0.95002560E+00
   0.17000000E+00           0.10063232E+01
   0.18000000E+00           0.10605252E+01
   0.19000000E+00           0.11112438E+01
   0.20000000E+00           0.11591260E+01
   0.21000000E+00           0.12034400E+01
   0.22000000E+00           0.12471434E+01
   0.23000000E+00           0.12889328E+01
   0.24000000E+00           0.13260220E+01
   0.25000000E+00           0.13625702E+01
   0.26000000E+00           0.13950482E+01
   0.27000000E+00           0.14262746E+01
   0.28000000E+00           0.14521794E+01
   0.29000000E+00           0.14784056E+01
   0.30000000E+00           0.15022206E+01
   0.31000000E+00           0.15234958E+01
   0.32000000E+00           0.15381986E+01
   0.33000000E+00           0.15538948E+01
   0.34000000E+00           0.15649082E+01
   0.35000000E+00           0.15769250E+01
   0.36000000E+00           0.15857328E+01
   0.37000000E+00           0.15898060E+01
   0.38000000E+00           0.15955010E+01
   0.39000000E+00           0.15968666E+01
   0.40000000E+00           0.15958098E+01
   0.41000000E+00           0.15911626E+01
   0.42000000E+00           0.15897100E+01
   0.43000000E+00           0.15806512E+01
   0.44000000E+00           0.15739946E+01
   0.45000000E+00           0.15620100E+01
   0.46000000E+00           0.15492674E+01
   0.47000000E+00           0.15368936E+01
   0.48000000E+00           0.15201518E+01
   0.49000000E+00           0.15029786E+01
   0.50000000E+00           0.14848264E+01
   0.51000000E+00           0.14642082E+01
   0.52000000E+00           0.14455694E+01
   0.53000000E+00           0.14213546E+01
   0.54000000E+00           0.13983674E+01
   0.55000000E+00           0.13751066E+01
   0.56000000E+00           0.13471388E+01
   0.57000000E+00           0.13212090E+01
   0.58000000E+00           0.12946054E+01
   0.59000000E+00           0.12665754E+01
   0.60000000E+00           0.12392476E+01
   0.61000000E+00           0.12076252E+01
   0.62000000E+00           0.11795966E+01
   0.63000000E+00           0.11520246E+01
   0.64000000E+00           0.11206472E+01
   0.65000000E+00           0.10901134E+01
   0.66000000E+00           0.10596580E+01
   0.67000000E+00           0.10290060E+01
   0.68000000E+00           0.99708660E+00
   0.69000000E+00           0.96587920E+00
   0.70000000E+00           0.93675160E+00
   0.71000000E+00           0.90557020E+00
   0.72000000E+00           0.87675140E+00
   0.73000000E+00           0.84677480E+00
   0.74000000E+00           0.81558680E+00
   0.75000000E+00           0.78687920E+00
   0.76000000E+00           0.75682160E+00
   0.77000000E+00           0.72894480E+00
   0.78000000E+00           0.70147520E+00
   0.79000000E+00           0.67281540E+00
   0.80000000E+00           0.64488380E+00
   0.81000000E+00           0.61858820E+00
   0.82000000E+00           0.59259780E+00
   0.83000000E+00           0.56647680E+00
   0.84000000E+00           0.54258880E+00
   0.85000000E+00           0.51881720E+00
   0.86000000E+00           0.49402080E+00
   0.87000000E+00           0.47232260E+00
   0.88000000E+00           0.44909820E+00
   0.89000000E+00           0.42780960E+00
   0.90000000E+00           0.40633540E+00
   0.91000000E+00           0.38582780E+00
   0.92000000E+00           0.36684320E+00
   0.93000000E+00           0.34867980E+00
   0.94000000E+00           0.32981420E+00
   0.95000000E+00           0.31212660E+00
   0.96000000E+00           0.29486660E+00
   0.97000000E+00           0.27897360E+00
   0.98000000E+00           0.26352520E+00
   0.99000000E+00           0.24868400E+00
   0.10000000E+01           0.23364560E+00
   0.10100000E+01           0.22000380E+00
   0.10200000E+01           0.20698220E+00
   0.10300000E+01           0.19553680E+00
   0.10400000E+01           0.18354080E+00
   0.10500000E+01           0.17192560E+00
   0.10600000E+01           0.16108080E+00
   0.10700000E+01           0.15096660E+00
   0.10800000E+01           0.14084780E+00
   0.10900000E+01           0.13232940E+00
   0.11000000E+01           0.12296500E+00
   0.11100000E+01           0.11538720E+00
   0.11200000E+01           0.10717820E+00
   0.11300000E+01           0.10007120E+00
   0.11400000E+01           0.93150400E-01
   0.11500000E+01           0.86328400E-01
   0.11600000E+01           0.80515400E-01
   0.11700000E+01           0.74631000E-01
   0.11800000E+01           0.68947000E-01
   0.11900000E+01           0.63871000E-01
   0.12000000E+01           0.59183200E-01
   0.12100000E+01           0.54612800E-01
   0.12200000E+01           0.50488000E-01
   0.12300000E+01           0.46527000E-01
   0.12400000E+01           0.43016200E-01
   0.12500000E+01           0.39628400E-01
   0.12600000E+01           0.36521800E-01
   0.12700000E+01           0.33518600E-01
   0.12800000E+01           0.30655200E-01
   0.12900000E+01           0.28072200E-01
   0.13000000E+01           0.25870800E-01
   0.13100000E+01           0.23599200E-01
   0.13200000E+01           0.21680800E-01
   0.13300000E+01           0.19646600E-01
   0.13400000E+01           0.17954400E-01
   0.13500000E+01           0.16575800E-01
   0.13600000E+01           0.14934600E-01
   0.13700000E+01           0.13727400E-01
   0.13800000E+01           0.12364800E-01
   0.13900000E+01           0.11112200E-01
   0.14000000E+01           0.10236000E-01
   0.14100000E+01           0.92744000E-02
   0.14200000E+01           0.83832000E-02
   0.14300000E+01           0.74636000E-02
   0.14400000E+01           0.67434000E-02
   0.14500000E+01           0.62364000E-02
   0.14600000E+01           0.56050000E-02
   0.14700000E+01           0.50546000E-02
   0.14800000E+01           0.45652000E-02
   0.14900000E+01           0.41452000E-02
   0.15000000E+01           0.36446000E-02
   0.15100000E+01           0.31978000E-02
   0.15200000E+01           0.28680000E-02
   0.15300000E+01           0.26256000E-02
   0.15400000E+01           0.23248000E-02
   0.15500000E+01           0.20786000E-02
   0.15600000E+01           0.19364000E-02
   0.15700000E+01           0.16578000E-02
   0.15800000E+01           0.14884000E-02
   0.15900000E+01           0.12852000E-02
   0.16000000E+01           0.11812000E-02
   0.16100000E+01           0.10656000E-02
   0.16200000E+01           0.95820000E-03
   0.16300000E+01           0.81660000E-03
   0.16400000E+01           0.75980000E-03
   0.16500000E+01           0.64400000E-03
   0.16600000E+01           0.53720000E-03
   0.16700000E+01           0.51880000E-03
   0.16800000E+01           0.43220000E-03
   0.16900000E+01           0.37340000E-03
   0.17000000E+01           0.34400000E-03
   0.17100000E+01           0.28360000E-03
   0.17200000E+01           0.24780000E-03
   0.17300000E+01           0.24260000E-03
   0.17400000E+01           0.19520000E-03
   0.17500000E+01           0.16560000E-03
   0.17600000E+01           0.15760000E-03
   0.17700000E+01           0.12500000E-03
   0.17800000E+01           0.10820000E-03
   0.17900000E+01           0.88200000E-04
   0.18000000E+01           0.89000000E-04
   0.18100000E+01           0.62200000E-04
   0.18200000E+01           0.57000000E-04
   0.18300000E+01           0.53800000E-04
   0.18400000E+01           0.46600000E-04
   0.18500000E+01           0.38000000E-04
   0.18600000E+01           0.34800000E-04
   0.18700000E+01           0.33000000E-04
   0.18800000E+01           0.22400000E-04
   0.18900000E+01           0.23400000E-04
   0.19000000E+01           0.14800000E-04
   0.19100000E+01           0.15200000E-04
   0.19200000E+01           0.13400000E-04
   0.19300000E+01           0.16000000E-04
   0.19400000E+01           0.70000000E-05
   0.19500000E+01           0.88000000E-05
   0.19600000E+01           0.64000000E-05
   0.19700000E+01           0.88000000E-05
   0.19800000E+01           0.46000000E-05
   0.19900000E+01           0.48000000E-05
   0.20000000E+01           0.26000000E-05
   0.20100000E+01           0.30000000E-05
   0.20200000E+01           0.24000000E-05
   0.20300000E+01           0.14000000E-05
   0.20400000E+01           0.26000000E-05
   0.20500000E+01           0.30000000E-05
   0.20600000E+01           0.14000000E-05
   0.20700000E+01           0.12000000E-05
   0.20800000E+01           0.80000000E-06
   0.20900000E+01           0.80000000E-06
   0.21000000E+01           0.60000000E-06
   0.21100000E+01           0.20000000E-06
   0.21200000E+01           0.00000000E+00
   0.21300000E+01           0.80000000E-06
   0.21400000E+01           0.00000000E+00
   0.21500000E+01           0.00000000E+00
   0.21600000E+01           0.40000000E-06
   0.21700000E+01           0.20000000E-06
   0.21800000E+01           0.00000000E+00
   0.21900000E+01           0.20000000E-06
   0.22000000E+01           0.00000000E+00
   0.22100000E+01           0.00000000E+00
   0.22200000E+01           0.20000000E-06
   0.22300000E+01           0.20000000E-06
   0.22400000E+01           0.20000000E-06
   0.22500000E+01           0.00000000E+00
   0.22600000E+01           0.00000000E+00
   0.22700000E+01           0.00000000E+00
   0.22800000E+01           0.00000000E+00
   0.22900000E+01           0.00000000E+00
   0.23000000E+01           0.00000000E+00
   0.23100000E+01           0.00000000E+00
   0.23200000E+01           0.00000000E+00
   0.23300000E+01           0.00000000E+00
   0.23400000E+01           0.00000000E+00
   0.23500000E+01           0.00000000E+00
   0.23600000E+01           0.00000000E+00
   0.23700000E+01           0.00000000E+00
   0.23800000E+01           0.00000000E+00
   0.23900000E+01           0.00000000E+00
   0.24000000E+01           0.00000000E+00
   0.24100000E+01           0.00000000E+00
   0.24200000E+01           0.00000000E+00
   0.24300000E+01           0.00000000E+00
   0.24400000E+01           0.00000000E+00
   0.24500000E+01           0.00000000E+00
   0.24600000E+01           0.00000000E+00
   0.24700000E+01           0.00000000E+00
   0.24800000E+01           0.00000000E+00
   0.24900000E+01           0.00000000E+00
   0.25000000E+01           0.00000000E+00
   0.25100000E+01           0.00000000E+00
   0.25200000E+01           0.00000000E+00
   0.25300000E+01           0.00000000E+00
   0.25400000E+01           0.00000000E+00
   0.25500000E+01           0.00000000E+00
   0.25600000E+01           0.00000000E+00
   0.25700000E+01           0.00000000E+00
   0.25800000E+01           0.00000000E+00
   0.25900000E+01           0.00000000E+00
   0.26000000E+01           0.00000000E+00
   0.26100000E+01           0.00000000E+00
   0.26200000E+01           0.00000000E+00
   0.26300000E+01           0.00000000E+00
   0.26400000E+01           0.00000000E+00
   0.26500000E+01           0.00000000E+00
   0.26600000E+01           0.00000000E+00
   0.26700000E+01           0.00000000E+00
   0.26800000E+01           0.00000000E+00
   0.26900000E+01           0.00000000E+00
   0.27000000E+01           0.00000000E+00
   0.27100000E+01           0.00000000E+00
   0.27200000E+01           0.00000000E+00
   0.27300000E+01           0.00000000E+00
   0.27400000E+01           0.00000000E+00
   0.27500000E+01           0.00000000E+00
   0.27600000E+01           0.00000000E+00
   0.27700000E+01           0.00000000E+00
   0.27800000E+01           0.00000000E+00
   0.27900000E+01           0.00000000E+00
   0.28000000E+01           0.00000000E+00
   0.28100000E+01           0.00000000E+00
   0.28200000E+01           0.00000000E+00
   0.28300000E+01           0.00000000E+00
   0.28400000E+01           0.00000000E+00
   0.28500000E+01           0.00000000E+00
   0.28600000E+01           0.00000000E+00
   0.28700000E+01           0.00000000E+00
   0.28800000E+01           0.00000000E+00
   0.28900000E+01           0.00000000E+00
   0.29000000E+01           0.00000000E+00
   0.29100000E+01           0.00000000E+00
   0.29200000E+01           0.00000000E+00
   0.29300000E+01           0.00000000E+00
   0.29400000E+01           0.00000000E+00
   0.29500000E+01           0.00000000E+00
   0.29600000E+01           0.00000000E+00
   0.29700000E+01           0.00000000E+00
   0.29800000E+01           0.00000000E+00
   0.29900000E+01           0.00000000E+00
   0.30000000E+01           0.00000000E+00
   0.30100000E+01           0.00000000E+00
   0.30200000E+01           0.00000000E+00
   0.30300000E+01           0.00000000E+00
   0.30400000E+01           0.00000000E+00
   0.30500000E+01           0.00000000E+00
   0.30600000E+01           0.00000000E+00
   0.30700000E+01           0.00000000E+00
   0.30800000E+01           0.00000000E+00
   0.30900000E+01           0.00000000E+00
   0.31000000E+01           0.00000000E+00
   0.31100000E+01           0.00000000E+00
   0.31200000E+01           0.00000000E+00
   0.31300000E+01           0.00000000E+00
   0.31400000E+01           0.00000000E+00
   0.31500000E+01           0.00000000E+00
   0.31600000E+01           0.00000000E+00
   0.31700000E+01           0.00000000E+00
   0.31800000E+01           0.00000000E+00
   0.31900000E+01           0.00000000E+00
   0.32000000E+01           0.00000000E+00
   0.32100000E+01           0.00000000E+00
   0.32200000E+01           0.00000000E+00
   0.32300000E+01           0.00000000E+00
   0.32400000E+01           0.00000000E+00
   0.32500000E+01           0.00000000E+00
   0.32600000E+01           0.00000000E+00
   0.32700000E+01           0.00000000E+00
   0.32800000E+01           0.00000000E+00
   0.32900000E+01           0.00000000E+00
   0.33000000E+01           0.00000000E+00
   0.33100000E+01           0.00000000E+00
   0.33200000E+01           0.00000000E+00
   0.33300000E+01           0.00000000E+00
   0.33400000E+01           0.00000000E+00
   0.33500000E+01           0.00000000E+00
   0.33600000E+01           0.00000000E+00
   0.33700000E+01           0.00000000E+00
   0.33800000E+01           0.00000000E+00
   0.33900000E+01           0.00000000E+00
   0.34000000E+01           0.00000000E+00
   0.34100000E+01           0.00000000E+00
   0.34200000E+01           0.00000000E+00
   0.34300000E+01           0.00000000E+00
   0.34400000E+01           0.00000000E+00
   0.34500000E+01           0.00000000E+00
   0.34600000E+01           0.00000000E+00
   0.34700000E+01           0.00000000E+00
   0.34800000E+01           0.00000000E+00
   0.34900000E+01           0.00000000E+00
   0.35000000E+01           0.00000000E+00
   0.35100000E+01           0.00000000E+00
   0.35200000E+01           0.00000000E+00
   0.35300000E+01           0.00000000E+00
   0.35400000E+01           0.00000000E+00
   0.35500000E+01           0.00000000E+00
   0.35600000E+01           0.00000000E+00
   0.35700000E+01           0.00000000E+00
   0.35800000E+01           0.00000000E+00
   0.35900000E+01           0.00000000E+00
   0.36000000E+01           0.00000000E+00
   0.36100000E+01           0.00000000E+00
   0.36200000E+01           0.00000000E+00
   0.36300000E+01           0.00000000E+00
   0.36400000E+01           0.00000000E+00
   0.36500000E+01           0.00000000E+00
   0.36600000E+01           0.00000000E+00
   0.36700000E+01           0.00000000E+00
   0.36800000E+01           0.00000000E+00
   0.36900000E+01           0.00000000E+00
   0.37000000E+01           0.00000000E+00
   0.37100000E+01           0.00000000E+00
   0.37200000E+01           0.00000000E+00
   0.37300000E+01           0.00000000E+00
   0.37400000E+01           0.00000000E+00
   0.37500000E+01           0.00000000E+00
   0.37600000E+01           0.00000000E+00
   0.37700000E+01           0.00000000E+00
   0.37800000E+01           0.00000000E+00
   0.37900000E+01           0.00000000E+00
   0.38000000E+01           0.00000000E+00
   0.38100000E+01           0.00000000E+00
   0.38200000E+01           0.00000000E+00
   0.38300000E+01           0.00000000E+00
   0.38400000E+01           0.00000000E+00
   0.38500000E+01           0.00000000E+00
   0.38600000E+01           0.00000000E+00
   0.38700000E+01           0.00000000E+00
   0.38800000E+01           0.00000000E+00
   0.38900000E+01           0.00000000E+00
   0.39000000E+01           0.00000000E+00
   0.39100000E+01           0.00000000E+00
   0.39200000E+01           0.00000000E+00
   0.39300000E+01           0.00000000E+00
   0.39400000E+01           0.00000000E+00
   0.39500000E+01           0.00000000E+00
   0.39600000E+01           0.00000000E+00
   0.39700000E+01           0.00000000E+00
   0.39800000E+01           0.00000000E+00
   0.39900000E+01           0.00000000E+00
   0.40000000E+01           0.00000000E+00
 #T=    12.0000
  -0.40000000E+01           0.00000000E+00
  -0.39900000E+01           0.00000000E+00
  -0.39800000E+01           0.00000000E+00
  -0.39700000E+01           0.00000000E+00
  -0.39600000E+01           0.00000000E+00
  -0.39500000E+01           0.00000000E+00
  -0.39400000E+01           0.00000000E+00
  -0.39300000E+01           0.00000000E+00
  -0.39200000E+01           0.00000000E+00
  -0.39100000E+01           0.00000000E+00
  -0.39000000E+01           0.00000000E+00
  -0.38900000E+01           0.00000000E+00
  -0.38800000E+01           0.00000000E+00
  -0.38700000E+01           0.00000000E+00
  -0.38600000E+01           0.00000000E+00
  -0.38500000E+01           0.00000000E+00
  -0.38400000E+01           0.00000000E+00
  -0.38300000E+01           0.00000000E+00
  -0.38200000E+01           0.00000000E+00
  -0.38100000E+01           0.00000000E+00
  -0.38000000E+01           0.00000000E+00
  -0.37900000E+01           0.00000000E+00
  -0.37800000E+01           0.00000000E+00
  -0.37700000E+01           0.00000000E+00
  -0.37600000E+01           0.00000000E+00
  -0.37500000E+01           0.00000000E+00
  -0.37400000E+01           0.00000000E+00
  -0.37300000E+01           0.00000000E+00
  -0.37200000E+01           0.00000000E+00
  -0.37100000E+01           0.00000000E+00
  -0.37000000E+01           0.00000000E+00
  -0.36900000E+01           0.00000000E+00
  -0.36800000E+01           0.00000000E+00
  -0.36700000E+01           0.00000000E+00
  -0.36600000E+01           0.00000000E+00
  -0.36500000E+01           0.00000000E+00
  -0.36400000E+01           0.00000000E+00
  -0.36300000E+01           0.00000000E+00
  -0.36200000E+01           0.00000000E+00
  -0.36100000E+01           0.00000000E+00
  -0.36000000E+01           0.00000000E+00
  -0.35900000E+01           0.00000000E+00
  -0.35800000E+01           0.00000000E+00
  -0.35700000E+01           0.00000000E+00
  -0.35600000E+01           0.00000000E+00
  -0.35500000E+01           0.00000000E+00
  -0.35400000E+01           0.00000000E+00
  -0.35300000E+01           0.00000000E+00
  -0.35200000E+01           0.00000000E+00
  -0.35100000E+01           0.00000000E+00
  -0.35000000E+01           0.00000000E+00
  -0.34900000E+01           0.00000000E+00
  -0.34800000E+01           0.00000000E+00
  -0.34700000E+01           0.00000000E+00
  -0.34600000E+01           0.00000000E+00
  -0.34500000E+01           0.00000000E+00
  -0.34400000E+01           0.00000000E+00
  -0.34300000E+01           0.00000000E+00
  -0.34200000E+01           0.00000000E+00
  -0.34100000E+01           0.00000000E+00
  -0.34000000E+01           0.00000000E+00
  -0.33900000E+01           0.00000000E+00
  -0.33800000E+01           0.00000000E+00
  -0.33700000E+01           0.00000000E+00
  -0.33600000E+01           0.00000000E+00
  -0.33500000E+01           0.00000000E+00
  -0.33400000E+01           0.00000000E+00
  -0.33300000E+01           0.00000000E+00
  -0.33200000E+01           0.00000000E+00
  -0.33100000E+01           0.00000000E+00
  -0.33000000E+01           0.00000000E+00
  -0.32900000E+01           0.00000000E+00
  -0.32800000E+01           0.00000000E+00
  -0.32700000E+01           0.00000000E+00
  -0.32600000E+01           0.00000000E+00
  -0.32500000E+01           0.00000000E+00
  -0.32400000E+01           0.00000000E+00
  -0.32300000E+01           0.00000000E+00
  -0.32200000E+01           0.00000000E+00
  -0.32100000E+01           0.00000000E+00
  -0.32000000E+01           0.00000000E+00
  -0.31900000E+01           0.00000000E+00
  -0.31800000E+01           0.00000000E+00
  -0.31700000E+01           0.00000000E+00
  -0.31600000E+01           0.00000000E+00
  -0.31500000E+01           0.00000000E+00
  -0.31400000E+01           0.00000000E+00
  -0.31300000E+01           0.00000000E+00
  -0.31200000E+01           0.00000000E+00
  -0.31100000E+01           0.00000000E+00
  -0.31000000E+01           0.00000000E+00
  -0.30900000E+01           0.00000000E+00
  -0.30800000E+01           0.00000000E+00
  -0.30700000E+01           0.00000000E+00
  -0.30600000E+01           0.00000000E+00
  -0.30500000E+01           0.00000000E+00
  -0.30400000E+01           0.00000000E+00
  -0.30300000E+01           0.00000000E+00
  -0.30200000E+01           0.00000000E+00
  -0.30100000E+01           0.00000000E+00
  -0.30000000E+01           0.00000000E+00
  -0.29900000E+01           0.00000000E+00
  -0.29800000E+01           0.00000000E+00
  -0.29700000E+01           0.00000000E+00
  -0.29600000E+01           0.00000000E+00
  -0.29500000E+01           0.00000000E+00
  -0.29400000E+01           0.00000000E+00
  -0.29300000E+01           0.00000000E+00
  -0.29200000E+01           0.00000000E+00
  -0.29100000E+01           0.00000000E+00
  -0.29000000E+01           0.00000000E+00
  -0.28900000E+01           0.00000000E+00
  -0.28800000E+01           0.00000000E+00
  -0.28700000E+01           0.00000000E+00
  -0.28600000E+01           0.00000000E+00
  -0.28500000E+01           0.00000000E+00
  -0.28400000E+01           0.00000000E+00
  -0.28300000E+01           0.00000000E+00
  -0.28200000E+01           0.00000000E+00
  -0.28100000E+01           0.00000000E+00
  -0.28000000E+01           0.00000000E+00
  -0.27900000E+01           0.00000000E+00
  -0.27800000E+01           0.00000000E+00
  -0.27700000E+01           0.00000000E+00
  -0.27600000E+01           0.00000000E+00
  -0.27500000E+01           0.00000000E+00
  -0.27400000E+01           0.00000000E+00
  -0.27300000E+01           0.00000000E+00
  -0.27200000E+01           0.00000000E+00
  -0.27100000E+01           0.00000000E+00
  -0.27000000E+01           0.00000000E+00
  -0.26900000E+01           0.00000000E+00
  -0.26800000E+01           0.00000000E+00
  -0.26700000E+01           0.00000000E+00
  -0.26600000E+01           0.00000000E+00
  -0.26500000E+01           0.00000000E+00
  -0.26400000E+01           0.00000000E+00
  -0.26300000E+01           0.00000000E+00
  -0.26200000E+01           0.00000000E+00
  -0.26100000E+01           0.00000000E+00
  -0.26000000E+01           0.00000000E+00
  -0.25900000E+01           0.00000000E+00
  -0.25800000E+01           0.00000000E+00
  -0.25700000E+01           0.00000000E+00
  -0.25600000E+01           0.00000000E+00
  -0.25500000E+01           0.00000000E+00
  -0.25400000E+01           0.00000000E+00
  -0.25300000E+01           0.00000000E+00
  -0.25200000E+01           0.00000000E+00
  -0.25100000E+01           0.00000000E+00
  -0.25000000E+01           0.00000000E+00
  -0.24900000E+01           0.00000000E+00
  -0.24800000E+01           0.00000000E+00
  -0.24700000E+01           0.00000000E+00
  -0.24600000E+01           0.00000000E+00
  -0.24500000E+01           0.00000000E+00
  -0.24400000E+01           0.00000000E+00
  -0.24300000E+01           0.00000000E+00
  -0.24200000E+01           0.00000000E+00
  -0.24100000E+01           0.00000000E+00
  -0.24000000E+01           0.00000000E+00
  -0.23900000E+01           0.00000000E+00
  -0.23800000E+01           0.00000000E+00
  -0.23700000E+01           0.00000000E+00
  -0.23600000E+01           0.00000000E+00
  -0.23500000E+01           0.00000000E+00
  -0.23400000E+01           0.00000000E+00
  -0.23300000E+01           0.00000000E+00
  -0.23200000E+01           0.00000000E+00
  -0.23100000E+01           0.00000000E+00
  -0.23000000E+01           0.00000000E+00
  -0.22900000E+01           0.00000000E+00
  -0.22800000E+01           0.00000000E+00
  -0.22700000E+01           0.00000000E+00
  -0.22600000E+01           0.00000000E+00
  -0.22500000E+01           0.00000000E+00
  -0.22400000E+01           0.00000000E+00
  -0.22300000E+01           0.00000000E+00
  -0.22200000E+01           0.00000000E+00
  -0.22100000E+01           0.00000000E+00
  -0.22000000E+01           0.00000000E+00
  -0.21900000E+01           0.00000000E+00
  -0.21800000E+01           0.00000000E+00
  -0.21700000E+01           0.00000000E+00
  -0.21600000E+01           0.00000000E+00
  -0.21500000E+01           0.00000000E+00
  -0.21400000E+01           0.00000000E+00
  -0.21300000E+01           0.00000000E+00
  -0.21200000E+01           0.00000000E+00
  -0.21100000E+01           0.00000000E+00
  -0.21000000E+01           0.00000000E+00
  -0.20900000E+01           0.00000000E+00
  -0.20800000E+01           0.00000000E+00
  -0.20700000E+01           0.00000000E+00
  -0.20600000E+01           0.00000000E+00
  -0.20500000E+01           0.00000000E+00
  -0.20400000E+01           0.00000000E+00
  -0.20300000E+01           0.00000000E+00
  -0.20200000E+01           0.00000000E+00
  -0.20100000E+01           0.00000000E+00
  -0.20000000E+01           0.00000000E+00
  -0.19900000E+01           0.00000000E+00
  -0.19800000E+01           0.00000000E+00
  -0.19700000E+01           0.00000000E+00
  -0.19600000E+01           0.00000000E+00
  -0.19500000E+01           0.00000000E+00
  -0.19400000E+01           0.00000000E+00
  -0.19300000E+01           0.00000000E+00
  -0.19200000E+01           0.00000000E+00
  -0.19100000E+01           0.00000000E+00
  -0.19000000E+01           0.00000000E+00
  -0.18900000E+01           0.00000000E+00
  -0.18800000E+01           0.00000000E+00
  -0.18700000E+01           0.00000000E+00
  -0.18600000E+01           0.00000000E+00
  -0.18500000E+01           0.00000000E+00
  -0.18400000E+01           0.00000000E+00
  -0.18300000E+01           0.00000000E+00
  -0.18200000E+01           0.00000000E+00
  -0.18100000E+01           0.00000000E+00
  -0.18000000E+01           0.00000000E+00
  -0.17900000E+01           0.00000000E+00
  -0.17800000E+01           0.00000000E+00
  -0.17700000E+01           0.00000000E+00
  -0.17600000E+01           0.00000000E+00
  -0.17500000E+01           0.00000000E+00
  -0.17400000E+01           0.00000000E+00
  -0.17300000E+01           0.00000000E+00
  -0.17200000E+01           0.00000000E+00
  -0.17100000E+01           0.00000000E+00
  -0.17000000E+01           0.00000000E+00
  -0.16900000E+01           0.00000000E+00
  -0.16800000E+01           0.00000000E+00
  -0.16700000E+01           0.00000000E+00
  -0.16600000E+01           0.00000000E+00
  -0.16500000E+01           0.00000000E+00
  -0.16400000E+01           0.00000000E+00
  -0.16300000E+01           0.00000000E+00
  -0.16200000E+01           0.00000000E+00
  -0.16100000E+01           0.00000000E+00
  -0.16000000E+01           0.00000000E+00
  -0.15900000E+01           0.00000000E+00
  -0.15800000E+01           0.00000000E+00
  -0.15700000E+01           0.00000000E+00
  -0.15600000E+01           0.00000000E+00
  -0.15500000E+01           0.00000000E+00
  -0.15400000E+01           0.00000000E+00
  -0.15300000E+01           0.00000000E+00
  -0.15200000E+01           0.00000000E+00
  -0.15100000E+01           0.00000000E+00
  -0.15000000E+01           0.00000000E+00
  -0.14900000E+01           0.00000000E+00
[...]
  -0.64000000E+00           0.00000000E+00
  -0.63000000E+00           0.00000000E+00
  -0.62000000E+00           0.00000000E+00
  -0.61000000E+00           0.00000000E+00
  -0.60000000E+00           0.00000000E+00
  -0.59000000E+00           0.00000000E+00
  -0.58000000E+00           0.00000000E+00
  -0.57000000E+00           0.00000000E+00
  -0.56000000E+00           0.00000000E+00
  -0.55000000E+00           0.00000000E+00
  -0.54000000E+00           0.00000000E+00
  -0.53000000E+00           0.00000000E+00
  -0.52000000E+00           0.00000000E+00
  -0.51000000E+00           0.00000000E+00
  -0.50000000E+00           0.00000000E+00
  -0.49000000E+00           0.00000000E+00
  -0.48000000E+00           0.00000000E+00
  -0.47000000E+00           0.00000000E+00
  -0.46000000E+00           0.00000000E+00
  -0.45000000E+00           0.00000000E+00
  -0.44000000E+00           0.00000000E+00
  -0.43000000E+00           0.00000000E+00
  -0.42000000E+00           0.00000000E+00
  -0.41000000E+00           0.00000000E+00
  -0.40000000E+00           0.00000000E+00
  -0.39000000E+00           0.00000000E+00
  -0.38000000E+00           0.00000000E+00
  -0.37000000E+00           0.00000000E+00
  -0.36000000E+00           0.00000000E+00
  -0.35000000E+00           0.00000000E+00
  -0.34000000E+00           0.00000000E+00
  -0.33000000E+00           0.00000000E+00
  -0.32000000E+00           0.00000000E+00
  -0.31000000E+00           0.00000000E+00
  -0.30000000E+00           0.00000000E+00
  -0.29000000E+00           0.00000000E+00
  -0.28000000E+00           0.00000000E+00
  -0.27000000E+00           0.00000000E+00
  -0.26000000E+00           0.00000000E+00
  -0.25000000E+00           0.00000000E+00
  -0.24000000E+00           0.00000000E+00
  -0.23000000E+00           0.00000000E+00
  -0.22000000E+00           0.00000000E+00
  -0.21000000E+00           0.00000000E+00
  -0.20000000E+00           0.00000000E+00
  -0.19000000E+00           0.00000000E+00
  -0.18000000E+00           0.00000000E+00
  -0.17000000E+00           0.00000000E+00
  -0.16000000E+00           0.00000000E+00
  -0.15000000E+00           0.00000000E+00
  -0.14000000E+00           0.00000000E+00
  -0.13000000E+00           0.00000000E+00
  -0.12000000E+00           0.00000000E+00
  -0.11000000E+00           0.00000000E+00
  -0.10000000E+00           0.00000000E+00
  -0.90000000E-01           0.00000000E+00
  -0.80000000E-01           0.00000000E+00
  -0.70000000E-01           0.00000000E+00
  -0.60000000E-01           0.00000000E+00
  -0.50000000E-01           0.00000000E+00
  -0.40000000E-01           0.00000000E+00
  -0.30000000E-01           0.00000000E+00
  -0.20000000E-01           0.00000000E+00
  -0.10000000E-01           0.00000000E+00
   0.00000000E+00           0.42000000E-05
   0.10000000E-01           0.13820000E-03
   0.20000000E-01           0.48720000E-03
   0.30000000E-01           0.10824000E-02
   0.40000000E-01           0.19520000E-02
   0.50000000E-01           0.29572000E-02
   0.60000000E-01           0.43204000E-02
   0.70000000E-01           0.57608000E-02
   0.80000000E-01           0.75208000E-02
   0.90000000E-01           0.94512000E-02
   0.10000000E+00           0.11506000E-01
   0.11000000E+00           0.13940600E-01
   0.12000000E+00           0.16388400E-01
   0.13000000E+00           0.19101200E-01
   0.14000000E+00           0.21994400E-01
   0.15000000E+00           0.24976400E-01
   0.16000000E+00           0.28122000E-01
   0.17000000E+00           0.31589800E-01
   0.18000000E+00           0.35227000E-01
   0.19000000E+00           0.38850200E-01
   0.20000000E+00           0.42838400E-01
   0.21000000E+00           0.46736000E-01
   0.22000000E+00           0.50894400E-01
   0.23000000E+00           0.54937600E-01
   0.24000000E+00           0.59451600E-01
   0.25000000E+00           0.64189800E-01
   0.26000000E+00           0.68758600E-01
   0.27000000E+00           0.73544800E-01
   0.28000000E+00           0.78284600E-01
   0.29000000E+00           0.83208400E-01
   0.30000000E+00           0.88577800E-01
   0.31000000E+00           0.93846400E-01
   0.32000000E+00           0.99298800E-01
   0.33000000E+00           0.10426560E+00
   0.34000000E+00           0.10971820E+00
   0.35000000E+00           0.11537220E+00
   0.36000000E+00           0.12120740E+00
   0.37000000E+00           0.12688680E+00
   0.38000000E+00           0.13269580E+00
   0.39000000E+00           0.13840980E+00
   0.40000000E+00           0.14467160E+00
   0.41000000E+00           0.15047040E+00
   0.42000000E+00           0.15670780E+00
   0.43000000E+00           0.16240220E+00
   0.44000000E+00           0.16859460E+00
   0.45000000E+00           0.17512600E+00
   0.46000000E+00           0.18096860E+00
   0.47000000E+00           0.18738920E+00
   0.48000000E+00           0.19398880E+00
   0.49000000E+00           0.20027860E+00
   0.50000000E+00           0.20670640E+00
   0.51000000E+00           0.21293360E+00
   0.52000000E+00           0.21921380E+00
   0.53000000E+00           0.22581800E+00
   0.54000000E+00           0.23231640E+00
   0.55000000E+00           0.23875240E+00
   0.56000000E+00           0.24457860E+00
   0.57000000E+00           0.25162680E+00
   0.58000000E+00           0.25826760E+00
   0.59000000E+00           0.26504760E+00
   0.60000000E+00           0.27179080E+00
   0.61000000E+00           0.27843840E+00
   0.62000000E+00           0.28480260E+00
   0.63000000E+00           0.29090460E+00
   0.64000000E+00           0.29755340E+00
   0.65000000E+00           0.30430440E+00
   0.66000000E+00           0.31040160E+00
   0.67000000E+00           0.31749120E+00
   0.68000000E+00           0.32347500E+00
   0.69000000E+00           0.33017640E+00
   0.70000000E+00           0.33661420E+00
   0.71000000E+00           0.34294440E+00
   0.72000000E+00           0.34980800E+00
   0.73000000E+00           0.35592900E+00
   0.74000000E+00           0.36220760E+00
   0.75000000E+00           0.36804320E+00
   0.76000000E+00           0.37442140E+00
   0.77000000E+00           0.38115080E+00
   0.78000000E+00           0.38758820E+00
   0.79000000E+00           0.39342480E+00
   0.80000000E+00           0.39949660E+00
   0.81000000E+00           0.40586900E+00
   0.82000000E+00           0.41214540E+00
   0.83000000E+00           0.41808220E+00
   0.84000000E+00           0.42470820E+00
   0.85000000E+00           0.42956640E+00
   0.86000000E+00           0.43576300E+00
   0.87000000E+00           0.44156780E+00
   0.88000000E+00           0.44736480E+00
   0.89000000E+00           0.45312080E+00
   0.90000000E+00           0.45836720E+00
   0.91000000E+00           0.46431060E+00
   0.92000000E+00           0.47010360E+00
   0.93000000E+00           0.47532820E+00
   0.94000000E+00           0.48127880E+00
   0.95000000E+00           0.48698880E+00
   0.96000000E+00           0.49235140E+00
   0.97000000E+00           0.49678180E+00
   0.98000000E+00           0.50243160E+00
   0.99000000E+00           0.50798080E+00
   0.10000000E+01           0.51257520E+00
   0.10100000E+01           0.51761160E+00
   0.10200000E+01           0.52198520E+00
   0.10300000E+01           0.52771740E+00
   0.10400000E+01           0.53214780E+00
   0.10500000E+01           0.53765720E+00
   0.10600000E+01           0.54167460E+00
   0.10700000E+01           0.54612980E+00
   0.10800000E+01           0.55129100E+00
   0.10900000E+01           0.55577360E+00
   0.11000000E+01           0.55966700E+00
   0.11100000E+01           0.56434700E+00
   0.11200000E+01           0.56823360E+00
   0.11300000E+01           0.57284280E+00
   0.11400000E+01           0.57648180E+00
   0.11500000E+01           0.57966800E+00
   0.11600000E+01           0.58443920E+00
   0.11700000E+01           0.58818220E+00
   0.11800000E+01           0.59200700E+00
   0.11900000E+01           0.59525800E+00
   0.12000000E+01           0.59914320E+00
   0.12100000E+01           0.60255760E+00
   0.12200000E+01           0.60587200E+00
   0.12300000E+01           0.60925200E+00
   0.12400000E+01           0.61262120E+00
   0.12500000E+01           0.61541140E+00
   0.12600000E+01           0.61837900E+00
   0.12700000E+01           0.62105600E+00
   0.12800000E+01           0.62296640E+00
   0.12900000E+01           0.62578040E+00
   0.13000000E+01           0.62891600E+00
   0.13100000E+01           0.63142880E+00
   0.13200000E+01           0.63321360E+00
   0.13300000E+01           0.63592460E+00
   0.13400000E+01           0.63783000E+00
   0.13500000E+01           0.64068140E+00
   0.13600000E+01           0.64162460E+00
   0.13700000E+01           0.64378360E+00
   0.13800000E+01           0.64505460E+00
   0.13900000E+01           0.64674880E+00
   0.14000000E+01           0.64827900E+00
   0.14100000E+01           0.64878120E+00
   0.14200000E+01           0.65056760E+00
   0.14300000E+01           0.65195600E+00
   0.14400000E+01           0.65293400E+00
   0.14500000E+01           0.65341520E+00
   0.14600000E+01           0.65415000E+00
   0.14700000E+01           0.65424120E+00
   0.14800000E+01           0.65504860E+00
   0.14900000E+01           0.65532500E+00
   0.15000000E+01           0.65508740E+00
   0.15100000E+01           0.65555720E+00
   0.15200000E+01           0.65497100E+00
   0.15300000E+01           0.65581300E+00
   0.15400000E+01           0.65424460E+00
   0.15500000E+01           0.65355200E+00
   0.15600000E+01           0.65257700E+00
   0.15700000E+01           0.65240540E+00
   0.15800000E+01           0.65137420E+00
   0.15900000E+01           0.65006100E+00
   0.16000000E+01           0.64844120E+00
   0.16100000E+01           0.64725900E+00
   0.16200000E+01           0.64424380E+00
   0.16300000E+01           0.64337280E+00
   0.16400000E+01           0.64162260E+00
   0.16500000E+01           0.63892640E+00
   0.16600000E+01           0.63720420E+00
   0.16700000E+01           0.63338940E+00
   0.16800000E+01           0.63156280E+00
   0.16900000E+01           0.62947620E+00
   0.17000000E+01           0.62610240E+00
   0.17100000E+01           0.62286660E+00
   0.17200000E+01           0.62002040E+00
   0.17300000E+01           0.61764660E+00
   0.17400000E+01           0.61259220E+00
   0.17500000E+01           0.60876260E+00
   0.17600000E+01           0.60423360E+00
   0.17700000E+01           0.60159800E+00
   0.17800000E+01           0.59685100E+00
   0.17900000E+01           0.59217040E+00
   0.18000000E+01           0.58772640E+00
   0.18100000E+01           0.58293340E+00
   0.18200000E+01           0.57685480E+00
   0.18300000E+01           0.57249560E+00
   0.18400000E+01           0.56689040E+00
   0.18500000E+01           0.56121080E+00
   0.18600000E+01           0.55586140E+00
   0.18700000E+01           0.55034720E+00
   0.18800000E+01           0.54378960E+00
   0.18900000E+01           0.53771320E+00
   0.19000000E+01           0.53172020E+00
   0.19100000E+01           0.52502180E+00
   0.19200000E+01           0.51753080E+00
   0.19300000E+01           0.51106840E+00
   0.19400000E+01           0.50347720E+00
   0.19500000E+01           0.49603680E+00
   0.19600000E+01           0.48852420E+00
   0.19700000E+01           0.48102600E+00
   0.19800000E+01           0.47331700E+00
   0.19900000E+01           0.46528920E+00
   0.20000000E+01           0.45706680E+00
   0.20100000E+01           0.44856720E+00
   0.20200000E+01           0.43991220E+00
   0.20300000E+01           0.43143900E+00
   0.20400000E+01           0.42337020E+00
   0.20500000E+01           0.41563060E+00
   0.20600000E+01           0.40718640E+00
   0.20700000E+01           0.39955880E+00
   0.20800000E+01           0.39193200E+00
   0.20900000E+01           0.38384360E+00
   0.21000000E+01           0.37635680E+00
   0.21100000E+01           0.36865420E+00
   0.21200000E+01           0.36123700E+00
   0.21300000E+01           0.35339900E+00
   0.21400000E+01           0.34672680E+00
   0.21500000E+01           0.33957540E+00
   0.21600000E+01           0.33183540E+00
   0.21700000E+01           0.32453140E+00
   0.21800000E+01           0.31776140E+00
   0.21900000E+01           0.31056160E+00
   0.22000000E+01           0.30399620E+00
   0.22100000E+01           0.29708020E+00
   0.22200000E+01           0.29075940E+00
   0.22300000E+01           0.28387260E+00
   0.22400000E+01           0.27783440E+00
   0.22500000E+01           0.27142240E+00
   0.22600000E+01           0.26499180E+00
   0.22700000E+01           0.25850700E+00
   0.22800000E+01           0.25258300E+00
   0.22900000E+01           0.24646420E+00
   0.23000000E+01           0.24059200E+00
   0.23100000E+01           0.23499860E+00
   0.23200000E+01           0.22925720E+00
   0.23300000E+01           0.22366360E+00
   0.23400000E+01           0.21799620E+00
   0.23500000E+01           0.21282160E+00
   0.23600000E+01           0.20703900E+00
   0.23700000E+01           0.20165660E+00
   0.23800000E+01           0.19637540E+00
   0.23900000E+01           0.19172440E+00
   0.24000000E+01           0.18668580E+00
   0.24100000E+01           0.18184400E+00
   0.24200000E+01           0.17677340E+00
   0.24300000E+01           0.17189420E+00
   0.24400000E+01           0.16736780E+00
   0.24500000E+01           0.16285680E+00
   0.24600000E+01           0.15877780E+00
   0.24700000E+01           0.15416680E+00
   0.24800000E+01           0.14976160E+00
   0.24900000E+01           0.14517380E+00
   0.25000000E+01           0.14165300E+00
   0.25100000E+01           0.13753920E+00
   0.25200000E+01           0.13344440E+00
   0.25300000E+01           0.12959920E+00
   0.25400000E+01           0.12602060E+00
   0.25500000E+01           0.12203560E+00
   0.25600000E+01           0.11873040E+00
   0.25700000E+01           0.11503840E+00
   0.25800000E+01           0.11143780E+00
   0.25900000E+01           0.10813460E+00
   0.26000000E+01           0.10499320E+00
   0.26100000E+01           0.10168120E+00
   0.26200000E+01           0.98593200E-01
   0.26300000E+01           0.95689400E-01
   0.26400000E+01           0.92453200E-01
   0.26500000E+01           0.89614400E-01
   0.26600000E+01           0.86854000E-01
   0.26700000E+01           0.84200600E-01
   0.26800000E+01           0.81410800E-01
   0.26900000E+01           0.78612600E-01
   0.27000000E+01           0.76219200E-01
   0.27100000E+01           0.73409200E-01
   0.27200000E+01           0.71275600E-01
   0.27300000E+01           0.68885800E-01
   0.27400000E+01           0.66374200E-01
   0.27500000E+01           0.63931600E-01
   0.27600000E+01           0.61957200E-01
   0.27700000E+01           0.59703000E-01
   0.27800000E+01           0.57725600E-01
   0.27900000E+01           0.55797400E-01
   0.28000000E+01           0.53786200E-01
   0.28100000E+01           0.51813800E-01
   0.28200000E+01           0.49956800E-01
   0.28300000E+01           0.48337000E-01
   0.28400000E+01           0.46506600E-01
   0.28500000E+01           0.44786800E-01
   0.28600000E+01           0.43112800E-01
   0.28700000E+01           0.41558600E-01
   0.28800000E+01           0.39946600E-01
   0.28900000E+01           0.38596800E-01
   0.29000000E+01           0.37096200E-01
   0.29100000E+01           0.35768400E-01
   0.29200000E+01           0.34336400E-01
   0.29300000E+01           0.32897800E-01
   0.29400000E+01           0.31702800E-01
   0.29500000E+01           0.30396400E-01
   0.29600000E+01           0.29185200E-01
   0.29700000E+01           0.28016400E-01
   0.29800000E+01           0.26935600E-01
   0.29900000E+01           0.25967800E-01
   0.30000000E+01           0.24832800E-01
   0.30100000E+01           0.23980200E-01
   0.30200000E+01           0.22895000E-01
   0.30300000E+01           0.21893400E-01
   0.30400000E+01           0.20991400E-01
   0.30500000E+01           0.20112800E-01
   0.30600000E+01           0.19294400E-01
   0.30700000E+01           0.18370200E-01
   0.30800000E+01           0.17806200E-01
   0.30900000E+01           0.16917600E-01
   0.31000000E+01           0.16210400E-01
   0.31100000E+01           0.15466400E-01
   0.31200000E+01           0.14838800E-01
   0.31300000E+01           0.14203000E-01
   0.31400000E+01           0.13580800E-01
   0.31500000E+01           0.13016000E-01
   0.31600000E+01           0.12290000E-01
   0.31700000E+01           0.11836600E-01
   0.31800000E+01           0.11194800E-01
   0.31900000E+01           0.10741000E-01
   0.32000000E+01           0.10239200E-01
   0.32100000E+01           0.98116000E-02
   0.32200000E+01           0.92812000E-02
   0.32300000E+01           0.88086000E-02
   0.32400000E+01           0.83934000E-02
   0.32500000E+01           0.80422000E-02
   0.32600000E+01           0.76364000E-02
   0.32700000E+01           0.72462000E-02
   0.32800000E+01           0.69062000E-02
   0.32900000E+01           0.65502000E-02
   0.33000000E+01           0.62178000E-02
   0.33100000E+01           0.58468000E-02
   0.33200000E+01           0.56190000E-02
   0.33300000E+01           0.52732000E-02
   0.33400000E+01           0.50622000E-02
   0.33500000E+01           0.47756000E-02
   0.33600000E+01           0.45062000E-02
   0.33700000E+01           0.42828000E-02
   0.33800000E+01           0.40392000E-02
   0.33900000E+01           0.38418000E-02
   0.34000000E+01           0.36166000E-02
   0.34100000E+01           0.34252000E-02
   0.34200000E+01           0.32140000E-02
   0.34300000E+01           0.30348000E-02
   0.34400000E+01           0.28778000E-02
   0.34500000E+01           0.27132000E-02
   0.34600000E+01           0.25530000E-02
   0.34700000E+01           0.23830000E-02
   0.34800000E+01           0.22458000E-02
   0.34900000E+01           0.21096000E-02
   0.35000000E+01           0.20236000E-02
   0.35100000E+01           0.18620000E-02
   0.35200000E+01           0.17434000E-02
   0.35300000E+01           0.16334000E-02
   0.35400000E+01           0.15346000E-02
   0.35500000E+01           0.14080000E-02
   0.35600000E+01           0.13588000E-02
   0.35700000E+01           0.12916000E-02
   0.35800000E+01           0.11474000E-02
   0.35900000E+01           0.10834000E-02
   0.36000000E+01           0.10060000E-02
   0.36100000E+01           0.92340000E-03
   0.36200000E+01           0.87320000E-03
   0.36300000E+01           0.79360000E-03
   0.36400000E+01           0.73320000E-03
   0.36500000E+01           0.68420000E-03
   0.36600000E+01           0.63340000E-03
   0.36700000E+01           0.55380000E-03
   0.36800000E+01           0.52500000E-03
   0.36900000E+01           0.48580000E-03
   0.37000000E+01           0.45040000E-03
   0.37100000E+01           0.40280000E-03
   0.37200000E+01           0.38940000E-03
   0.37300000E+01           0.33160000E-03
   0.37400000E+01           0.31440000E-03
   0.37500000E+01           0.26700000E-03
   0.37600000E+01           0.23560000E-03
   0.37700000E+01           0.21960000E-03
   0.37800000E+01           0.18700000E-03
   0.37900000E+01           0.17300000E-03
   0.38000000E+01           0.16000000E-03
   0.38100000E+01           0.13240000E-03
   0.38200000E+01           0.12420000E-03
   0.38300000E+01           0.10960000E-03
   0.38400000E+01           0.97000000E-04
   0.38500000E+01           0.74600000E-04
   0.38600000E+01           0.65800000E-04
   0.38700000E+01           0.53800000E-04
   0.38800000E+01           0.50800000E-04
   0.38900000E+01           0.37600000E-04
   0.39000000E+01           0.32400000E-04
   0.39100000E+01           0.26400000E-04
   0.39200000E+01           0.18400000E-04
   0.39300000E+01           0.12800000E-04
   0.39400000E+01           0.10000000E-04
   0.39500000E+01           0.76000000E-05
   0.39600000E+01           0.44000000E-05
   0.39700000E+01           0.18000000E-05
   0.39800000E+01           0.16000000E-05
   0.39900000E+01           0.60000000E-06
   0.40000000E+01           0.00000000E+00
