 #written on 11Sep2024 at 23:55:21 
 #----------------------------------------------- MONTECARLO ---------------------------------------------------#
 # Temp      Magnetization     Energy_ave          C_M              Sus              U_E              U_M       #
 #--------------------------------------------------------------------------------------------------------------#
  10.0000   0.34387402E-02  -0.17179374E+03   0.10414295E+01   0.54344558E-03   0.66666431E+00   0.37073184E+00
  11.0000   0.36135549E-02  -0.17075121E+03   0.10403740E+01   0.53897531E-03   0.66666379E+00   0.37401538E+00
  12.0000   0.37821435E-02  -0.16970323E+03   0.10469964E+01   0.53460249E-03   0.66666318E+00   0.37679385E+00
  13.0000   0.39458637E-02  -0.16865016E+03   0.10600265E+01   0.53149439E-03   0.66666247E+00   0.37949271E+00
  14.0000   0.41022456E-02  -0.16758842E+03   0.10630177E+01   0.52743868E-03   0.66666172E+00   0.38244227E+00
  15.0000   0.42533815E-02  -0.16652477E+03   0.10696524E+01   0.52161640E-03   0.66666088E+00   0.38635400E+00
  16.0000   0.44075107E-02  -0.16545303E+03   0.10734585E+01   0.52107641E-03   0.66665998E+00   0.38901859E+00
  17.0000   0.45540011E-02  -0.16437617E+03   0.10845177E+01   0.51669580E-03   0.66665893E+00   0.39275311E+00
  18.0000   0.46964201E-02  -0.16329594E+03   0.10769427E+01   0.51501975E-03   0.66665794E+00   0.39465660E+00
  19.0000   0.48361229E-02  -0.16220258E+03   0.10914977E+01   0.51328436E-03   0.66665668E+00   0.39709827E+00
  20.0000   0.49701205E-02  -0.16110598E+03   0.11015005E+01   0.50935472E-03   0.66665535E+00   0.40011533E+00
  21.0000   0.51080553E-02  -0.16000121E+03   0.11038685E+01   0.50692549E-03   0.66665399E+00   0.40308696E+00
  22.0000   0.52387620E-02  -0.15888689E+03   0.11189292E+01   0.50733632E-03   0.66665237E+00   0.40390850E+00
  23.0000   0.53676328E-02  -0.15776917E+03   0.11220852E+01   0.50420074E-03   0.66665077E+00   0.40730239E+00
  24.0000   0.54906791E-02  -0.15663902E+03   0.11367594E+01   0.50227826E-03   0.66664888E+00   0.40918847E+00
  25.0000   0.56187888E-02  -0.15550071E+03   0.11418151E+01   0.50064275E-03   0.66664700E+00   0.41113705E+00
  26.0000   0.57463306E-02  -0.15434857E+03   0.11473483E+01   0.49937095E-03   0.66664497E+00   0.41351449E+00
  27.0000   0.58564304E-02  -0.15319398E+03   0.11652259E+01   0.49690046E-03   0.66664254E+00   0.41529697E+00
  28.0000   0.59834702E-02  -0.15202275E+03   0.11737065E+01   0.49726552E-03   0.66664013E+00   0.41723807E+00
  29.0000   0.60980890E-02  -0.15084393E+03   0.11851885E+01   0.49477810E-03   0.66663747E+00   0.41967005E+00
  30.0000   0.62209214E-02  -0.14964552E+03   0.12074902E+01   0.49514917E-03   0.66663432E+00   0.42116313E+00
  31.0000   0.63341022E-02  -0.14844279E+03   0.12115891E+01   0.49416617E-03   0.66663145E+00   0.42237737E+00
  32.0000   0.64482662E-02  -0.14722053E+03   0.12305329E+01   0.49298295E-03   0.66662792E+00   0.42460791E+00
  33.0000   0.65529737E-02  -0.14598659E+03   0.12508508E+01   0.49095283E-03   0.66662407E+00   0.42614860E+00
  34.0000   0.66714682E-02  -0.14472833E+03   0.12674992E+01   0.49181125E-03   0.66662005E+00   0.42745218E+00
  35.0000   0.67861231E-02  -0.14345644E+03   0.12867798E+01   0.49149984E-03   0.66661562E+00   0.42956828E+00
  36.0000   0.68982503E-02  -0.14216487E+03   0.13039863E+01   0.49339983E-03   0.66661094E+00   0.42984920E+00
  37.0000   0.70095443E-02  -0.14085442E+03   0.13259610E+01   0.49355922E-03   0.66660570E+00   0.43109064E+00
  38.0000   0.71113168E-02  -0.13952033E+03   0.13442919E+01   0.49246960E-03   0.66660022E+00   0.43234054E+00
  39.0000   0.72255246E-02  -0.13816026E+03   0.13807189E+01   0.49283116E-03   0.66659335E+00   0.43393361E+00
  40.0000   0.73296813E-02  -0.13677752E+03   0.14028505E+01   0.49168840E-03   0.66658672E+00   0.43561334E+00
  41.0000   0.74347412E-02  -0.13536763E+03   0.14241905E+01   0.49288627E-03   0.66657961E+00   0.43612071E+00
  42.0000   0.75516845E-02  -0.13392346E+03   0.14613976E+01   0.49477536E-03   0.66657090E+00   0.43747894E+00
  43.0000   0.76491507E-02  -0.13245619E+03   0.14963176E+01   0.49443027E-03   0.66656161E+00   0.43796533E+00
  44.0000   0.77551582E-02  -0.13093898E+03   0.15340610E+01   0.49505592E-03   0.66655126E+00   0.43915099E+00
  45.0000   0.78604356E-02  -0.12939561E+03   0.15650329E+01   0.49556540E-03   0.66654057E+00   0.44036159E+00
  46.0000   0.79765964E-02  -0.12779457E+03   0.16118411E+01   0.49942504E-03   0.66652754E+00   0.44015805E+00
  47.0000   0.80776335E-02  -0.12615101E+03   0.16711693E+01   0.49900283E-03   0.66651216E+00   0.44121430E+00
  48.0000   0.81820909E-02  -0.12446391E+03   0.17102986E+01   0.49996966E-03   0.66649724E+00   0.44242297E+00
  49.0000   0.82826616E-02  -0.12272462E+03   0.17809250E+01   0.50240902E-03   0.66647758E+00   0.44194030E+00
  50.0000   0.83993406E-02  -0.12091858E+03   0.18473462E+01   0.50477655E-03   0.66645633E+00   0.44344555E+00
  51.0000   0.85015892E-02  -0.11903686E+03   0.19091654E+01   0.50546751E-03   0.66643329E+00   0.44381068E+00
  52.0000   0.86138363E-02  -0.11709570E+03   0.19788207E+01   0.50997461E-03   0.66640678E+00   0.44351822E+00
  53.0000   0.87213184E-02  -0.11512203E+03   0.19817954E+01   0.51221252E-03   0.66638677E+00   0.44392080E+00
  54.0000   0.88303036E-02  -0.11316558E+03   0.18730871E+01   0.51480948E-03   0.66638222E+00   0.44408676E+00
  55.0000   0.89361417E-02  -0.11139602E+03   0.16601076E+01   0.51744907E-03   0.66639652E+00   0.44425888E+00
  56.0000   0.90327419E-02  -0.10985787E+03   0.14198336E+01   0.52010015E-03   0.66642038E+00   0.44418067E+00
  57.0000   0.91245392E-02  -0.10852944E+03   0.12359237E+01   0.51893210E-03   0.66643915E+00   0.44471024E+00
  58.0000   0.92125233E-02  -0.10735302E+03   0.11180445E+01   0.52108006E-03   0.66644896E+00   0.44461732E+00
  59.0000   0.92940980E-02  -0.10628865E+03   0.10313230E+01   0.52302193E-03   0.66645472E+00   0.44353131E+00
  60.0000   0.93877483E-02  -0.10529274E+03   0.96664589E+00   0.52230459E-03   0.66645735E+00   0.44445187E+00
  61.0000   0.94698207E-02  -0.10435401E+03   0.91728687E+00   0.52387974E-03   0.66645769E+00   0.44466067E+00
  62.0000   0.95574631E-02  -0.10346608E+03   0.87509451E+00   0.52511800E-03   0.66645719E+00   0.44422011E+00
  63.0000   0.96442418E-02  -0.10260177E+03   0.83927445E+00   0.52478589E-03   0.66645576E+00   0.44452870E+00
  64.0000   0.97238835E-02  -0.10177779E+03   0.81038386E+00   0.52531541E-03   0.66645308E+00   0.44463389E+00
  65.0000   0.97899849E-02  -0.10098110E+03   0.78652841E+00   0.52705778E-03   0.66644948E+00   0.44359687E+00
  66.0000   0.98744250E-02  -0.10020679E+03   0.76427177E+00   0.52761633E-03   0.66644571E+00   0.44382496E+00
  67.0000   0.99549647E-02  -0.99446119E+02   0.74428024E+00   0.52669424E-03   0.66644153E+00   0.44471513E+00
  68.0000   0.10032664E-01  -0.98712414E+02   0.72799203E+00   0.52736121E-03   0.66643645E+00   0.44444815E+00
  69.0000   0.10094191E-01  -0.97993201E+02   0.71227092E+00   0.52676129E-03   0.66643135E+00   0.44439824E+00
  70.0000   0.10173034E-01  -0.97286757E+02   0.69812330E+00   0.52633580E-03   0.66642585E+00   0.44463168E+00
  71.0000   0.10248320E-01  -0.96597084E+02   0.68498088E+00   0.52689586E-03   0.66642008E+00   0.44468966E+00
  72.0000   0.10320268E-01  -0.95914743E+02   0.67247052E+00   0.52690601E-03   0.66641418E+00   0.44404749E+00
  73.0000   0.10400278E-01  -0.95249245E+02   0.66031273E+00   0.52724239E-03   0.66640825E+00   0.44452055E+00
  74.0000   0.10467403E-01  -0.94593779E+02   0.65044269E+00   0.52738697E-03   0.66640146E+00   0.44468156E+00
  75.0000   0.10527153E-01  -0.93950588E+02   0.64062952E+00   0.52628340E-03   0.66639465E+00   0.44435937E+00
  76.0000   0.10611222E-01  -0.93311207E+02   0.63123467E+00   0.52672894E-03   0.66638769E+00   0.44439006E+00
  77.0000   0.10676176E-01  -0.92686916E+02   0.62130689E+00   0.52702602E-03   0.66638101E+00   0.44464988E+00
  78.0000   0.10740162E-01  -0.92071894E+02   0.61240806E+00   0.52700268E-03   0.66637385E+00   0.44411792E+00
  79.0000   0.10809495E-01  -0.91463748E+02   0.60361315E+00   0.52665447E-03   0.66636670E+00   0.44474306E+00
  80.0000   0.10866406E-01  -0.90863252E+02   0.59759966E+00   0.52545085E-03   0.66635807E+00   0.44474485E+00
  81.0000   0.10940434E-01  -0.90270222E+02   0.58854388E+00   0.52709029E-03   0.66635100E+00   0.44385408E+00
  82.0000   0.11013951E-01  -0.89685360E+02   0.58096202E+00   0.52641788E-03   0.66634318E+00   0.44464604E+00
  83.0000   0.11072164E-01  -0.89106428E+02   0.57354932E+00   0.52689731E-03   0.66633518E+00   0.44417637E+00
  84.0000   0.11139396E-01  -0.88534792E+02   0.56841281E+00   0.52788898E-03   0.66632585E+00   0.44317379E+00
  85.0000   0.11194692E-01  -0.87972241E+02   0.56167415E+00   0.52576784E-03   0.66631741E+00   0.44425468E+00
  86.0000   0.11253454E-01  -0.87411716E+02   0.55602613E+00   0.52442970E-03   0.66630818E+00   0.44439210E+00
  87.0000   0.11325611E-01  -0.86860559E+02   0.54854707E+00   0.52492145E-03   0.66630013E+00   0.44465668E+00
  88.0000   0.11380268E-01  -0.86312235E+02   0.54392748E+00   0.52470859E-03   0.66629009E+00   0.44396418E+00
  89.0000   0.11443717E-01  -0.85770812E+02   0.53684319E+00   0.52342158E-03   0.66628167E+00   0.44492748E+00
