 #written on 15Nov2024 at 14:12:22 
 #----------------- MONTECARLO -------------------#
 #        M                      P(M)             #
 #------------------------------------------------#
 #T=   200.0000
  -0.40000000E+01           0.00000000E+00
  -0.39900000E+01           0.00000000E+00
  -0.39800000E+01           0.00000000E+00
  -0.39700000E+01           0.00000000E+00
  -0.39600000E+01           0.00000000E+00
  -0.39500000E+01           0.00000000E+00
  -0.39400000E+01           0.00000000E+00
  -0.39300000E+01           0.00000000E+00
  -0.39200000E+01           0.00000000E+00
  -0.39100000E+01           0.00000000E+00
  -0.39000000E+01           0.00000000E+00
  -0.38900000E+01           0.00000000E+00
  -0.38800000E+01           0.00000000E+00
  -0.38700000E+01           0.00000000E+00
  -0.38600000E+01           0.00000000E+00
  -0.38500000E+01           0.00000000E+00
  -0.38400000E+01           0.00000000E+00
  -0.38300000E+01           0.00000000E+00
  -0.38200000E+01           0.00000000E+00
  -0.38100000E+01           0.00000000E+00
  -0.38000000E+01           0.00000000E+00
  -0.37900000E+01           0.00000000E+00
  -0.37800000E+01           0.00000000E+00
  -0.37700000E+01           0.00000000E+00
  -0.37600000E+01           0.00000000E+00
  -0.37500000E+01           0.00000000E+00
  -0.37400000E+01           0.00000000E+00
  -0.37300000E+01           0.00000000E+00
  -0.37200000E+01           0.00000000E+00
  -0.37100000E+01           0.00000000E+00
  -0.37000000E+01           0.00000000E+00
  -0.36900000E+01           0.00000000E+00
  -0.36800000E+01           0.00000000E+00
  -0.36700000E+01           0.00000000E+00
  -0.36600000E+01           0.00000000E+00
  -0.36500000E+01           0.00000000E+00
  -0.36400000E+01           0.00000000E+00
  -0.36300000E+01           0.00000000E+00
  -0.36200000E+01           0.00000000E+00
  -0.36100000E+01           0.00000000E+00
  -0.36000000E+01           0.00000000E+00
  -0.35900000E+01           0.00000000E+00
  -0.35800000E+01           0.00000000E+00
  -0.35700000E+01           0.00000000E+00
  -0.35600000E+01           0.00000000E+00
  -0.35500000E+01           0.00000000E+00
  -0.35400000E+01           0.00000000E+00
  -0.35300000E+01           0.00000000E+00
  -0.35200000E+01           0.00000000E+00
  -0.35100000E+01           0.00000000E+00
  -0.35000000E+01           0.00000000E+00
  -0.34900000E+01           0.00000000E+00
  -0.34800000E+01           0.00000000E+00
  -0.34700000E+01           0.00000000E+00
  -0.34600000E+01           0.00000000E+00
  -0.34500000E+01           0.00000000E+00
  -0.34400000E+01           0.00000000E+00
  -0.34300000E+01           0.00000000E+00
  -0.34200000E+01           0.00000000E+00
  -0.34100000E+01           0.00000000E+00
  -0.34000000E+01           0.00000000E+00
  -0.33900000E+01           0.00000000E+00
  -0.33800000E+01           0.00000000E+00
  -0.33700000E+01           0.00000000E+00
  -0.33600000E+01           0.00000000E+00
  -0.33500000E+01           0.00000000E+00
  -0.33400000E+01           0.00000000E+00
  -0.33300000E+01           0.00000000E+00
  -0.33200000E+01           0.00000000E+00
  -0.33100000E+01           0.00000000E+00
  -0.33000000E+01           0.00000000E+00
  -0.32900000E+01           0.00000000E+00
  -0.32800000E+01           0.00000000E+00
  -0.32700000E+01           0.00000000E+00
  -0.32600000E+01           0.00000000E+00
  -0.32500000E+01           0.00000000E+00
  -0.32400000E+01           0.00000000E+00
  -0.32300000E+01           0.00000000E+00
  -0.32200000E+01           0.00000000E+00
  -0.32100000E+01           0.00000000E+00
  -0.32000000E+01           0.00000000E+00
  -0.31900000E+01           0.00000000E+00
  -0.31800000E+01           0.00000000E+00
  -0.31700000E+01           0.00000000E+00
  -0.31600000E+01           0.00000000E+00
  -0.31500000E+01           0.00000000E+00
  -0.31400000E+01           0.00000000E+00
  -0.31300000E+01           0.00000000E+00
  -0.31200000E+01           0.00000000E+00
  -0.31100000E+01           0.00000000E+00
  -0.31000000E+01           0.00000000E+00
  -0.30900000E+01           0.00000000E+00
  -0.30800000E+01           0.00000000E+00
  -0.30700000E+01           0.00000000E+00
  -0.30600000E+01           0.00000000E+00
  -0.30500000E+01           0.00000000E+00
  -0.30400000E+01           0.00000000E+00
  -0.30300000E+01           0.00000000E+00
  -0.30200000E+01           0.00000000E+00
  -0.30100000E+01           0.00000000E+00
  -0.30000000E+01           0.00000000E+00
  -0.29900000E+01           0.00000000E+00
  -0.29800000E+01           0.00000000E+00
  -0.29700000E+01           0.00000000E+00
  -0.29600000E+01           0.00000000E+00
  -0.29500000E+01           0.00000000E+00
  -0.29400000E+01           0.00000000E+00
  -0.29300000E+01           0.00000000E+00
  -0.29200000E+01           0.00000000E+00
  -0.29100000E+01           0.00000000E+00
  -0.29000000E+01           0.00000000E+00
  -0.28900000E+01           0.00000000E+00
  -0.28800000E+01           0.00000000E+00
  -0.28700000E+01           0.00000000E+00
  -0.28600000E+01           0.00000000E+00
  -0.28500000E+01           0.00000000E+00
  -0.28400000E+01           0.00000000E+00
  -0.28300000E+01           0.00000000E+00
  -0.28200000E+01           0.00000000E+00
  -0.28100000E+01           0.00000000E+00
  -0.28000000E+01           0.00000000E+00
  -0.27900000E+01           0.00000000E+00
  -0.27800000E+01           0.00000000E+00
  -0.27700000E+01           0.00000000E+00
  -0.27600000E+01           0.00000000E+00
  -0.27500000E+01           0.00000000E+00
  -0.27400000E+01           0.00000000E+00
  -0.27300000E+01           0.00000000E+00
  -0.27200000E+01           0.00000000E+00
  -0.27100000E+01           0.00000000E+00
  -0.27000000E+01           0.00000000E+00
  -0.26900000E+01           0.00000000E+00
  -0.26800000E+01           0.00000000E+00
  -0.26700000E+01           0.00000000E+00
  -0.26600000E+01           0.00000000E+00
  -0.26500000E+01           0.00000000E+00
  -0.26400000E+01           0.00000000E+00
  -0.26300000E+01           0.00000000E+00
  -0.26200000E+01           0.00000000E+00
  -0.26100000E+01           0.00000000E+00
  -0.26000000E+01           0.00000000E+00
  -0.25900000E+01           0.00000000E+00
  -0.25800000E+01           0.00000000E+00
  -0.25700000E+01           0.00000000E+00
  -0.25600000E+01           0.00000000E+00
  -0.25500000E+01           0.00000000E+00
  -0.25400000E+01           0.00000000E+00
  -0.25300000E+01           0.00000000E+00
  -0.25200000E+01           0.00000000E+00
  -0.25100000E+01           0.00000000E+00
  -0.25000000E+01           0.00000000E+00
  -0.24900000E+01           0.00000000E+00
  -0.24800000E+01           0.00000000E+00
  -0.24700000E+01           0.00000000E+00
  -0.24600000E+01           0.00000000E+00
  -0.24500000E+01           0.00000000E+00
  -0.24400000E+01           0.00000000E+00
  -0.24300000E+01           0.00000000E+00
  -0.24200000E+01           0.00000000E+00
  -0.24100000E+01           0.00000000E+00
  -0.24000000E+01           0.00000000E+00
  -0.23900000E+01           0.00000000E+00
  -0.23800000E+01           0.00000000E+00
  -0.23700000E+01           0.00000000E+00
  -0.23600000E+01           0.00000000E+00
  -0.23500000E+01           0.00000000E+00
  -0.23400000E+01           0.00000000E+00
  -0.23300000E+01           0.00000000E+00
  -0.23200000E+01           0.00000000E+00
  -0.23100000E+01           0.00000000E+00
  -0.23000000E+01           0.00000000E+00
  -0.22900000E+01           0.00000000E+00
  -0.22800000E+01           0.00000000E+00
  -0.22700000E+01           0.00000000E+00
  -0.22600000E+01           0.00000000E+00
  -0.22500000E+01           0.00000000E+00
  -0.22400000E+01           0.00000000E+00
  -0.22300000E+01           0.00000000E+00
  -0.22200000E+01           0.00000000E+00
  -0.22100000E+01           0.00000000E+00
  -0.22000000E+01           0.00000000E+00
  -0.21900000E+01           0.00000000E+00
  -0.21800000E+01           0.00000000E+00
  -0.21700000E+01           0.00000000E+00
  -0.21600000E+01           0.00000000E+00
  -0.21500000E+01           0.00000000E+00
  -0.21400000E+01           0.00000000E+00
  -0.21300000E+01           0.00000000E+00
  -0.21200000E+01           0.00000000E+00
  -0.21100000E+01           0.00000000E+00
  -0.21000000E+01           0.00000000E+00
  -0.20900000E+01           0.00000000E+00
  -0.20800000E+01           0.00000000E+00
  -0.20700000E+01           0.00000000E+00
  -0.20600000E+01           0.00000000E+00
  -0.20500000E+01           0.00000000E+00
  -0.20400000E+01           0.00000000E+00
  -0.20300000E+01           0.00000000E+00
  -0.20200000E+01           0.00000000E+00
  -0.20100000E+01           0.00000000E+00
  -0.20000000E+01           0.00000000E+00
  -0.19900000E+01           0.00000000E+00
  -0.19800000E+01           0.00000000E+00
  -0.19700000E+01           0.00000000E+00
  -0.19600000E+01           0.00000000E+00
  -0.19500000E+01           0.00000000E+00
  -0.19400000E+01           0.00000000E+00
  -0.19300000E+01           0.00000000E+00
  -0.19200000E+01           0.00000000E+00
  -0.19100000E+01           0.00000000E+00
  -0.19000000E+01           0.00000000E+00
  -0.18900000E+01           0.00000000E+00
  -0.18800000E+01           0.00000000E+00
  -0.18700000E+01           0.00000000E+00
  -0.18600000E+01           0.00000000E+00
  -0.18500000E+01           0.00000000E+00
  -0.18400000E+01           0.00000000E+00
  -0.18300000E+01           0.00000000E+00
  -0.18200000E+01           0.00000000E+00
  -0.18100000E+01           0.00000000E+00
  -0.18000000E+01           0.00000000E+00
  -0.17900000E+01           0.00000000E+00
  -0.17800000E+01           0.00000000E+00
  -0.17700000E+01           0.00000000E+00
  -0.17600000E+01           0.00000000E+00
  -0.17500000E+01           0.00000000E+00
  -0.17400000E+01           0.00000000E+00
  -0.17300000E+01           0.00000000E+00
  -0.17200000E+01           0.00000000E+00
  -0.17100000E+01           0.00000000E+00
  -0.17000000E+01           0.00000000E+00
  -0.16900000E+01           0.00000000E+00
  -0.16800000E+01           0.00000000E+00
  -0.16700000E+01           0.00000000E+00
  -0.16600000E+01           0.00000000E+00
  -0.16500000E+01           0.00000000E+00
  -0.16400000E+01           0.00000000E+00
  -0.16300000E+01           0.00000000E+00
  -0.16200000E+01           0.00000000E+00
  -0.16100000E+01           0.00000000E+00
  -0.16000000E+01           0.00000000E+00
  -0.15900000E+01           0.00000000E+00
  -0.15800000E+01           0.00000000E+00
  -0.15700000E+01           0.00000000E+00
  -0.15600000E+01           0.00000000E+00
  -0.15500000E+01           0.00000000E+00
  -0.15400000E+01           0.00000000E+00
  -0.15300000E+01           0.00000000E+00
  -0.15200000E+01           0.00000000E+00
  -0.15100000E+01           0.00000000E+00
  -0.15000000E+01           0.00000000E+00
  -0.14900000E+01           0.00000000E+00
  -0.14800000E+01           0.00000000E+00
  -0.14700000E+01           0.00000000E+00
  -0.14600000E+01           0.00000000E+00
  -0.14500000E+01           0.00000000E+00
  -0.14400000E+01           0.00000000E+00
  -0.14300000E+01           0.00000000E+00
  -0.14200000E+01           0.00000000E+00
  -0.14100000E+01           0.00000000E+00
  -0.14000000E+01           0.00000000E+00
  -0.13900000E+01           0.00000000E+00
  -0.13800000E+01           0.00000000E+00
  -0.13700000E+01           0.00000000E+00
  -0.13600000E+01           0.00000000E+00
  -0.13500000E+01           0.00000000E+00
  -0.13400000E+01           0.00000000E+00
  -0.13300000E+01           0.00000000E+00
  -0.13200000E+01           0.00000000E+00
  -0.13100000E+01           0.00000000E+00
  -0.13000000E+01           0.00000000E+00
  -0.12900000E+01           0.00000000E+00
  -0.12800000E+01           0.00000000E+00
  -0.12700000E+01           0.00000000E+00
  -0.12600000E+01           0.00000000E+00
  -0.12500000E+01           0.00000000E+00
  -0.12400000E+01           0.00000000E+00
  -0.12300000E+01           0.00000000E+00
  -0.12200000E+01           0.00000000E+00
  -0.12100000E+01           0.00000000E+00
  -0.12000000E+01           0.00000000E+00
  -0.11900000E+01           0.00000000E+00
  -0.11800000E+01           0.00000000E+00
  -0.11700000E+01           0.00000000E+00
  -0.11600000E+01           0.00000000E+00
  -0.11500000E+01           0.00000000E+00
  -0.11400000E+01           0.00000000E+00
  -0.11300000E+01           0.00000000E+00
  -0.11200000E+01           0.00000000E+00
  -0.11100000E+01           0.00000000E+00
  -0.11000000E+01           0.00000000E+00
  -0.10900000E+01           0.00000000E+00
  -0.10800000E+01           0.00000000E+00
  -0.10700000E+01           0.00000000E+00
  -0.10600000E+01           0.00000000E+00
  -0.10500000E+01           0.00000000E+00
  -0.10400000E+01           0.00000000E+00
  -0.10300000E+01           0.00000000E+00
  -0.10200000E+01           0.00000000E+00
  -0.10100000E+01           0.00000000E+00
  -0.10000000E+01           0.00000000E+00
  -0.99000000E+00           0.00000000E+00
  -0.98000000E+00           0.00000000E+00
  -0.97000000E+00           0.00000000E+00
  -0.96000000E+00           0.00000000E+00
  -0.95000000E+00           0.00000000E+00
  -0.94000000E+00           0.00000000E+00
  -0.93000000E+00           0.00000000E+00
  -0.92000000E+00           0.00000000E+00
  -0.91000000E+00           0.00000000E+00
  -0.90000000E+00           0.00000000E+00
  -0.89000000E+00           0.00000000E+00
  -0.88000000E+00           0.00000000E+00
  -0.87000000E+00           0.00000000E+00
  -0.86000000E+00           0.00000000E+00
  -0.85000000E+00           0.00000000E+00
  -0.84000000E+00           0.00000000E+00
  -0.83000000E+00           0.00000000E+00
  -0.82000000E+00           0.00000000E+00
  -0.81000000E+00           0.00000000E+00
  -0.80000000E+00           0.00000000E+00
  -0.79000000E+00           0.00000000E+00
  -0.78000000E+00           0.00000000E+00
  -0.77000000E+00           0.00000000E+00
  -0.76000000E+00           0.00000000E+00
  -0.75000000E+00           0.00000000E+00
  -0.74000000E+00           0.00000000E+00
  -0.73000000E+00           0.00000000E+00
  -0.72000000E+00           0.00000000E+00
  -0.71000000E+00           0.00000000E+00
  -0.70000000E+00           0.00000000E+00
  -0.69000000E+00           0.00000000E+00
  -0.68000000E+00           0.00000000E+00
  -0.67000000E+00           0.00000000E+00
  -0.66000000E+00           0.00000000E+00
  -0.65000000E+00           0.00000000E+00
  -0.64000000E+00           0.00000000E+00
  -0.63000000E+00           0.00000000E+00
  -0.62000000E+00           0.00000000E+00
  -0.61000000E+00           0.00000000E+00
  -0.60000000E+00           0.00000000E+00
  -0.59000000E+00           0.00000000E+00
  -0.58000000E+00           0.00000000E+00
  -0.57000000E+00           0.00000000E+00
  -0.56000000E+00           0.00000000E+00
  -0.55000000E+00           0.00000000E+00
  -0.54000000E+00           0.00000000E+00
  -0.53000000E+00           0.00000000E+00
  -0.52000000E+00           0.00000000E+00
  -0.51000000E+00           0.00000000E+00
  -0.50000000E+00           0.00000000E+00
  -0.49000000E+00           0.00000000E+00
  -0.48000000E+00           0.00000000E+00
  -0.47000000E+00           0.00000000E+00
  -0.46000000E+00           0.00000000E+00
  -0.45000000E+00           0.00000000E+00
  -0.44000000E+00           0.00000000E+00
  -0.43000000E+00           0.00000000E+00
  -0.42000000E+00           0.00000000E+00
  -0.41000000E+00           0.00000000E+00
  -0.40000000E+00           0.00000000E+00
  -0.39000000E+00           0.00000000E+00
  -0.38000000E+00           0.00000000E+00
  -0.37000000E+00           0.00000000E+00
  -0.36000000E+00           0.00000000E+00
  -0.35000000E+00           0.00000000E+00
  -0.34000000E+00           0.00000000E+00
  -0.33000000E+00           0.00000000E+00
  -0.32000000E+00           0.00000000E+00
  -0.31000000E+00           0.00000000E+00
  -0.30000000E+00           0.00000000E+00
  -0.29000000E+00           0.00000000E+00
  -0.28000000E+00           0.00000000E+00
  -0.27000000E+00           0.00000000E+00
  -0.26000000E+00           0.00000000E+00
  -0.25000000E+00           0.00000000E+00
  -0.24000000E+00           0.00000000E+00
  -0.23000000E+00           0.00000000E+00
  -0.22000000E+00           0.00000000E+00
  -0.21000000E+00           0.00000000E+00
  -0.20000000E+00           0.00000000E+00
  -0.19000000E+00           0.00000000E+00
  -0.18000000E+00           0.00000000E+00
  -0.17000000E+00           0.00000000E+00
  -0.16000000E+00           0.00000000E+00
  -0.15000000E+00           0.00000000E+00
  -0.14000000E+00           0.00000000E+00
  -0.13000000E+00           0.00000000E+00
  -0.12000000E+00           0.00000000E+00
  -0.11000000E+00           0.00000000E+00
  -0.10000000E+00           0.00000000E+00
  -0.90000000E-01           0.00000000E+00
  -0.80000000E-01           0.00000000E+00
  -0.70000000E-01           0.00000000E+00
  -0.60000000E-01           0.00000000E+00
  -0.50000000E-01           0.00000000E+00
  -0.40000000E-01           0.00000000E+00
  -0.30000000E-01           0.00000000E+00
  -0.20000000E-01           0.00000000E+00
  -0.10000000E-01           0.00000000E+00
   0.00000000E+00           0.13939394E-04
   0.10000000E-01           0.40396694E-03
   0.20000000E-01           0.14794490E-02
   0.30000000E-01           0.32429752E-02
   0.40000000E-01           0.57128926E-02
   0.50000000E-01           0.87631405E-02
   0.60000000E-01           0.12504573E-01
   0.70000000E-01           0.16964242E-01
   0.80000000E-01           0.21935537E-01
   0.90000000E-01           0.27373003E-01
   0.10000000E+00           0.33480771E-01
   0.11000000E+00           0.40139669E-01
   0.12000000E+00           0.47161763E-01
   0.13000000E+00           0.54859174E-01
   0.14000000E+00           0.62923691E-01
   0.15000000E+00           0.71541818E-01
   0.16000000E+00           0.80337190E-01
   0.17000000E+00           0.89589311E-01
   0.18000000E+00           0.99484187E-01
   0.19000000E+00           0.10969135E+00
   0.20000000E+00           0.12015928E+00
   0.21000000E+00           0.13085769E+00
   0.22000000E+00           0.14195157E+00
   0.23000000E+00           0.15334904E+00
   0.24000000E+00           0.16476639E+00
   0.25000000E+00           0.17693328E+00
   0.26000000E+00           0.18892711E+00
   0.27000000E+00           0.20129917E+00
   0.28000000E+00           0.21396837E+00
   0.29000000E+00           0.22647229E+00
   0.30000000E+00           0.23933030E+00
   0.31000000E+00           0.25219471E+00
   0.32000000E+00           0.26539702E+00
   0.33000000E+00           0.27885102E+00
   0.34000000E+00           0.29171592E+00
   0.35000000E+00           0.30536766E+00
   0.36000000E+00           0.31853994E+00
   0.37000000E+00           0.33204413E+00
   0.38000000E+00           0.34564716E+00
   0.39000000E+00           0.35896804E+00
   0.40000000E+00           0.37219069E+00
   0.41000000E+00           0.38575675E+00
   0.42000000E+00           0.39904512E+00
   0.43000000E+00           0.41251102E+00
   0.44000000E+00           0.42546832E+00
   0.45000000E+00           0.43893466E+00
   0.46000000E+00           0.45179625E+00
   0.47000000E+00           0.46472860E+00
   0.48000000E+00           0.47740248E+00
   0.49000000E+00           0.49015945E+00
   0.50000000E+00           0.50250408E+00
   0.51000000E+00           0.51482601E+00
   0.52000000E+00           0.52702865E+00
   0.53000000E+00           0.53867427E+00
   0.54000000E+00           0.55064193E+00
   0.55000000E+00           0.56219014E+00
   0.56000000E+00           0.57341912E+00
   0.57000000E+00           0.58471702E+00
   0.58000000E+00           0.59565025E+00
   0.59000000E+00           0.60626512E+00
   0.60000000E+00           0.61645372E+00
   0.61000000E+00           0.62664485E+00
   0.62000000E+00           0.63656705E+00
   0.63000000E+00           0.64645229E+00
   0.64000000E+00           0.65581565E+00
   0.65000000E+00           0.66471614E+00
   0.66000000E+00           0.67322848E+00
   0.67000000E+00           0.68203449E+00
   0.68000000E+00           0.69002579E+00
   0.69000000E+00           0.69797245E+00
   0.70000000E+00           0.70563212E+00
   0.71000000E+00           0.71314661E+00
   0.72000000E+00           0.72024959E+00
   0.73000000E+00           0.72664347E+00
   0.74000000E+00           0.73344408E+00
   0.75000000E+00           0.73896617E+00
   0.76000000E+00           0.74494694E+00
   0.77000000E+00           0.75039862E+00
   0.78000000E+00           0.75527113E+00
   0.79000000E+00           0.76029835E+00
   0.80000000E+00           0.76467862E+00
   0.81000000E+00           0.76908039E+00
   0.82000000E+00           0.77282573E+00
   0.83000000E+00           0.77600474E+00
   0.84000000E+00           0.77943433E+00
   0.85000000E+00           0.78227317E+00
   0.86000000E+00           0.78470865E+00
   0.87000000E+00           0.78730882E+00
   0.88000000E+00           0.78895218E+00
   0.89000000E+00           0.79088975E+00
   0.90000000E+00           0.79189554E+00
   0.91000000E+00           0.79304105E+00
   0.92000000E+00           0.79389091E+00
   0.93000000E+00           0.79448573E+00
   0.94000000E+00           0.79464744E+00
   0.95000000E+00           0.79413950E+00
   0.96000000E+00           0.79367284E+00
   0.97000000E+00           0.79331041E+00
   0.98000000E+00           0.79180815E+00
   0.99000000E+00           0.79082628E+00
   0.10000000E+01           0.78918556E+00
   0.10100000E+01           0.78767482E+00
   0.10200000E+01           0.78534496E+00
   0.10300000E+01           0.78306397E+00
   0.10400000E+01           0.78066287E+00
   0.10500000E+01           0.77732209E+00
   0.10600000E+01           0.77473747E+00
   0.10700000E+01           0.77169036E+00
   0.10800000E+01           0.76766909E+00
   0.10900000E+01           0.76439322E+00
   0.11000000E+01           0.76073069E+00
   0.11100000E+01           0.75652143E+00
   0.11200000E+01           0.75201884E+00
   0.11300000E+01           0.74728551E+00
   0.11400000E+01           0.74281262E+00
   0.11500000E+01           0.73835218E+00
   0.11600000E+01           0.73273493E+00
   0.11700000E+01           0.72777829E+00
   0.11800000E+01           0.72202176E+00
   0.11900000E+01           0.71654331E+00
   0.12000000E+01           0.71092573E+00
   0.12100000E+01           0.70477642E+00
   0.12200000E+01           0.69886579E+00
   0.12300000E+01           0.69249857E+00
   0.12400000E+01           0.68639273E+00
   0.12500000E+01           0.68006937E+00
   0.12600000E+01           0.67346612E+00
   0.12700000E+01           0.66645824E+00
   0.12800000E+01           0.66009653E+00
   0.12900000E+01           0.65311829E+00
   0.13000000E+01           0.64639118E+00
   0.13100000E+01           0.63905190E+00
   0.13200000E+01           0.63177752E+00
   0.13300000E+01           0.62455559E+00
   0.13400000E+01           0.61775923E+00
   0.13500000E+01           0.61025961E+00
   0.13600000E+01           0.60247647E+00
   0.13700000E+01           0.59479642E+00
   0.13800000E+01           0.58778187E+00
   0.13900000E+01           0.57989813E+00
   0.14000000E+01           0.57221983E+00
   0.14100000E+01           0.56451719E+00
   0.14200000E+01           0.55698590E+00
   0.14300000E+01           0.54919218E+00
   0.14400000E+01           0.54159041E+00
   0.14500000E+01           0.53386959E+00
   0.14600000E+01           0.52619961E+00
   0.14700000E+01           0.51840782E+00
   0.14800000E+01           0.51071917E+00
   0.14900000E+01           0.50265780E+00
   0.15000000E+01           0.49472683E+00
   0.15100000E+01           0.48713262E+00
   0.15200000E+01           0.47948694E+00
   0.15300000E+01           0.47169058E+00
   0.15400000E+01           0.46402667E+00
   0.15500000E+01           0.45607702E+00
   0.15600000E+01           0.44842584E+00
   0.15700000E+01           0.44064006E+00
   0.15800000E+01           0.43318904E+00
   0.15900000E+01           0.42577741E+00
   0.16000000E+01           0.41804793E+00
   0.16100000E+01           0.41072777E+00
   0.16200000E+01           0.40297410E+00
   0.16300000E+01           0.39566793E+00
   0.16400000E+01           0.38838656E+00
   0.16500000E+01           0.38107047E+00
   0.16600000E+01           0.37379884E+00
   0.16700000E+01           0.36677438E+00
   0.16800000E+01           0.35940358E+00
   0.16900000E+01           0.35206782E+00
   0.17000000E+01           0.34524645E+00
   0.17100000E+01           0.33832567E+00
   0.17200000E+01           0.33152011E+00
   0.17300000E+01           0.32478545E+00
   0.17400000E+01           0.31825091E+00
   0.17500000E+01           0.31132942E+00
   0.17600000E+01           0.30497526E+00
   0.17700000E+01           0.29831306E+00
   0.17800000E+01           0.29183488E+00
   0.17900000E+01           0.28548942E+00
   0.18000000E+01           0.27918645E+00
   0.18100000E+01           0.27298369E+00
   0.18200000E+01           0.26697449E+00
   0.18300000E+01           0.26074595E+00
   0.18400000E+01           0.25481410E+00
   0.18500000E+01           0.24889890E+00
   0.18600000E+01           0.24287438E+00
   0.18700000E+01           0.23729052E+00
   0.18800000E+01           0.23165934E+00
   0.18900000E+01           0.22585620E+00
   0.19000000E+01           0.22070099E+00
   0.19100000E+01           0.21527201E+00
   0.19200000E+01           0.20994997E+00
   0.19300000E+01           0.20490507E+00
   0.19400000E+01           0.19952997E+00
   0.19500000E+01           0.19446479E+00
   0.19600000E+01           0.18959289E+00
   0.19700000E+01           0.18459427E+00
   0.19800000E+01           0.18005548E+00
   0.19900000E+01           0.17531884E+00
   0.20000000E+01           0.17059664E+00
   0.20100000E+01           0.16622689E+00
   0.20200000E+01           0.16143653E+00
   0.20300000E+01           0.15722099E+00
   0.20400000E+01           0.15282793E+00
   0.20500000E+01           0.14866391E+00
   0.20600000E+01           0.14463234E+00
   0.20700000E+01           0.14060402E+00
   0.20800000E+01           0.13667074E+00
   0.20900000E+01           0.13299780E+00
   0.21000000E+01           0.12902275E+00
   0.21100000E+01           0.12548749E+00
   0.21200000E+01           0.12193741E+00
   0.21300000E+01           0.11854353E+00
   0.21400000E+01           0.11482000E+00
   0.21500000E+01           0.11157438E+00
   0.21600000E+01           0.10824700E+00
   0.21700000E+01           0.10511410E+00
   0.21800000E+01           0.10184573E+00
   0.21900000E+01           0.98815372E-01
   0.22000000E+01           0.95879339E-01
   0.22100000E+01           0.93069917E-01
   0.22200000E+01           0.90166612E-01
   0.22300000E+01           0.87376804E-01
   0.22400000E+01           0.84621377E-01
   0.22500000E+01           0.82121047E-01
   0.22600000E+01           0.79377631E-01
   0.22700000E+01           0.77016143E-01
   0.22800000E+01           0.74601928E-01
   0.22900000E+01           0.72192066E-01
   0.23000000E+01           0.69840441E-01
   0.23100000E+01           0.67649752E-01
   0.23200000E+01           0.65227989E-01
   0.23300000E+01           0.63254766E-01
   0.23400000E+01           0.61166446E-01
   0.23500000E+01           0.59241157E-01
   0.23600000E+01           0.57309697E-01
   0.23700000E+01           0.55323802E-01
   0.23800000E+01           0.53496364E-01
   0.23900000E+01           0.51551129E-01
   0.24000000E+01           0.49854601E-01
   0.24100000E+01           0.48182920E-01
   0.24200000E+01           0.46525069E-01
   0.24300000E+01           0.44877741E-01
   0.24400000E+01           0.43369972E-01
   0.24500000E+01           0.41790193E-01
   0.24600000E+01           0.40328595E-01
   0.24700000E+01           0.38892837E-01
   0.24800000E+01           0.37476804E-01
   0.24900000E+01           0.36134380E-01
   0.25000000E+01           0.34867328E-01
   0.25100000E+01           0.33553829E-01
   0.25200000E+01           0.32331791E-01
   0.25300000E+01           0.31154931E-01
   0.25400000E+01           0.30011129E-01
   0.25500000E+01           0.28857135E-01
   0.25600000E+01           0.27829862E-01
   0.25700000E+01           0.26762314E-01
   0.25800000E+01           0.25668760E-01
   0.25900000E+01           0.24728430E-01
   0.26000000E+01           0.23829532E-01
   0.26100000E+01           0.22864904E-01
   0.26200000E+01           0.22062039E-01
   0.26300000E+01           0.21117466E-01
   0.26400000E+01           0.20344573E-01
   0.26500000E+01           0.19523196E-01
   0.26600000E+01           0.18746171E-01
   0.26700000E+01           0.17936749E-01
   0.26800000E+01           0.17299780E-01
   0.26900000E+01           0.16532397E-01
   0.27000000E+01           0.15870468E-01
   0.27100000E+01           0.15236804E-01
   0.27200000E+01           0.14573223E-01
   0.27300000E+01           0.13988044E-01
   0.27400000E+01           0.13435702E-01
   0.27500000E+01           0.12847218E-01
   0.27600000E+01           0.12317300E-01
   0.27700000E+01           0.11791846E-01
   0.27800000E+01           0.11269201E-01
   0.27900000E+01           0.10763306E-01
   0.28000000E+01           0.10307548E-01
   0.28100000E+01           0.98761433E-02
   0.28200000E+01           0.94525069E-02
   0.28300000E+01           0.90094215E-02
   0.28400000E+01           0.86006061E-02
   0.28500000E+01           0.82654545E-02
   0.28600000E+01           0.78893113E-02
   0.28700000E+01           0.75341598E-02
   0.28800000E+01           0.71608815E-02
   0.28900000E+01           0.68617080E-02
   0.29000000E+01           0.65451240E-02
   0.29100000E+01           0.62141047E-02
   0.29200000E+01           0.59137190E-02
   0.29300000E+01           0.56377961E-02
   0.29400000E+01           0.54118457E-02
   0.29500000E+01           0.51151515E-02
   0.29600000E+01           0.48902479E-02
   0.29700000E+01           0.46427548E-02
   0.29800000E+01           0.44201102E-02
   0.29900000E+01           0.41908540E-02
   0.30000000E+01           0.40095868E-02
   0.30100000E+01           0.38130579E-02
   0.30200000E+01           0.36287603E-02
   0.30300000E+01           0.34140496E-02
   0.30400000E+01           0.32748209E-02
   0.30500000E+01           0.31118457E-02
   0.30600000E+01           0.29501928E-02
   0.30700000E+01           0.27623140E-02
   0.30800000E+01           0.26265014E-02
   0.30900000E+01           0.25006612E-02
   0.31000000E+01           0.23524518E-02
   0.31100000E+01           0.22487052E-02
   0.31200000E+01           0.21182920E-02
   0.31300000E+01           0.20200000E-02
   0.31400000E+01           0.19021488E-02
   0.31500000E+01           0.17997796E-02
   0.31600000E+01           0.16963085E-02
   0.31700000E+01           0.16074380E-02
   0.31800000E+01           0.15143802E-02
   0.31900000E+01           0.14190634E-02
   0.32000000E+01           0.13446281E-02
   0.32100000E+01           0.12788981E-02
   0.32200000E+01           0.12165289E-02
   0.32300000E+01           0.11298072E-02
   0.32400000E+01           0.10648485E-02
   0.32500000E+01           0.99983471E-03
   0.32600000E+01           0.94809917E-03
   0.32700000E+01           0.87911846E-03
   0.32800000E+01           0.82011019E-03
   0.32900000E+01           0.78931129E-03
   0.33000000E+01           0.73333333E-03
   0.33100000E+01           0.68413223E-03
   0.33200000E+01           0.63944904E-03
   0.33300000E+01           0.60600551E-03
   0.33400000E+01           0.56203857E-03
   0.33500000E+01           0.52490358E-03
   0.33600000E+01           0.48865014E-03
   0.33700000E+01           0.46964187E-03
   0.33800000E+01           0.42732782E-03
   0.33900000E+01           0.39707989E-03
   0.34000000E+01           0.36853994E-03
   0.34100000E+01           0.34666667E-03
   0.34200000E+01           0.33195592E-03
   0.34300000E+01           0.30859504E-03
   0.34400000E+01           0.27449036E-03
   0.34500000E+01           0.26143251E-03
   0.34600000E+01           0.23944904E-03
   0.34700000E+01           0.22517906E-03
   0.34800000E+01           0.20501377E-03
   0.34900000E+01           0.19763085E-03
   0.35000000E+01           0.17746556E-03
   0.35100000E+01           0.16787879E-03
   0.35200000E+01           0.14914601E-03
   0.35300000E+01           0.14192837E-03
   0.35400000E+01           0.12936639E-03
   0.35500000E+01           0.12055096E-03
   0.35600000E+01           0.11206612E-03
   0.35700000E+01           0.97079890E-04
   0.35800000E+01           0.91625344E-04
   0.35900000E+01           0.82314050E-04
   0.36000000E+01           0.76639118E-04
   0.36100000E+01           0.73829201E-04
   0.36200000E+01           0.63911846E-04
   0.36300000E+01           0.57079890E-04
   0.36400000E+01           0.50798898E-04
   0.36500000E+01           0.48980716E-04
   0.36600000E+01           0.40826446E-04
   0.36700000E+01           0.40881543E-04
   0.36800000E+01           0.35316804E-04
   0.36900000E+01           0.33223140E-04
   0.37000000E+01           0.27988981E-04
   0.37100000E+01           0.25399449E-04
   0.37200000E+01           0.24628099E-04
   0.37300000E+01           0.20661157E-04
   0.37400000E+01           0.19449036E-04
   0.37500000E+01           0.17630854E-04
   0.37600000E+01           0.12892562E-04
   0.37700000E+01           0.12011019E-04
   0.37800000E+01           0.10743802E-04
   0.37900000E+01           0.93663912E-05
   0.38000000E+01           0.84297521E-05
   0.38100000E+01           0.70523416E-05
   0.38200000E+01           0.63360882E-05
   0.38300000E+01           0.52892562E-05
   0.38400000E+01           0.42975207E-05
   0.38500000E+01           0.44077135E-05
   0.38600000E+01           0.34710744E-05
   0.38700000E+01           0.33608815E-05
   0.38800000E+01           0.25895317E-05
   0.38900000E+01           0.18732782E-05
   0.39000000E+01           0.11570248E-05
   0.39100000E+01           0.17079890E-05
   0.39200000E+01           0.55096419E-06
   0.39300000E+01           0.55096419E-06
   0.39400000E+01           0.38567493E-06
   0.39500000E+01           0.11019284E-06
   0.39600000E+01           0.11019284E-06
   0.39700000E+01           0.11019284E-06
   0.39800000E+01           0.11019284E-06
   0.39900000E+01           0.00000000E+00
   0.40000000E+01           0.00000000E+00
 #T=   201.0000
  -0.40000000E+01           0.00000000E+00
  -0.39900000E+01           0.00000000E+00
  -0.39800000E+01           0.00000000E+00
  -0.39700000E+01           0.00000000E+00
  -0.39600000E+01           0.00000000E+00
  -0.39500000E+01           0.00000000E+00
  -0.39400000E+01           0.00000000E+00
  -0.39300000E+01           0.00000000E+00
  -0.39200000E+01           0.00000000E+00
  -0.39100000E+01           0.00000000E+00
  -0.39000000E+01           0.00000000E+00
  -0.38900000E+01           0.00000000E+00
  -0.38800000E+01           0.00000000E+00
  -0.38700000E+01           0.00000000E+00
  -0.38600000E+01           0.00000000E+00
  -0.38500000E+01           0.00000000E+00
  -0.38400000E+01           0.00000000E+00
  -0.38300000E+01           0.00000000E+00
  -0.38200000E+01           0.00000000E+00
  -0.38100000E+01           0.00000000E+00
  -0.38000000E+01           0.00000000E+00
  -0.37900000E+01           0.00000000E+00
  -0.37800000E+01           0.00000000E+00
  -0.37700000E+01           0.00000000E+00
  -0.37600000E+01           0.00000000E+00
  -0.37500000E+01           0.00000000E+00
  -0.37400000E+01           0.00000000E+00
  -0.37300000E+01           0.00000000E+00
  -0.37200000E+01           0.00000000E+00
  -0.37100000E+01           0.00000000E+00
  -0.37000000E+01           0.00000000E+00
  -0.36900000E+01           0.00000000E+00
  -0.36800000E+01           0.00000000E+00
  -0.36700000E+01           0.00000000E+00
  -0.36600000E+01           0.00000000E+00
  -0.36500000E+01           0.00000000E+00
  -0.36400000E+01           0.00000000E+00
  -0.36300000E+01           0.00000000E+00
  -0.36200000E+01           0.00000000E+00
  -0.36100000E+01           0.00000000E+00
  -0.36000000E+01           0.00000000E+00
  -0.35900000E+01           0.00000000E+00
  -0.35800000E+01           0.00000000E+00
  -0.35700000E+01           0.00000000E+00
  -0.35600000E+01           0.00000000E+00
  -0.35500000E+01           0.00000000E+00
  -0.35400000E+01           0.00000000E+00
  -0.35300000E+01           0.00000000E+00
  -0.35200000E+01           0.00000000E+00
  -0.35100000E+01           0.00000000E+00
  -0.35000000E+01           0.00000000E+00
  -0.34900000E+01           0.00000000E+00
  -0.34800000E+01           0.00000000E+00
  -0.34700000E+01           0.00000000E+00
  -0.34600000E+01           0.00000000E+00
  -0.34500000E+01           0.00000000E+00
  -0.34400000E+01           0.00000000E+00
  -0.34300000E+01           0.00000000E+00
  -0.34200000E+01           0.00000000E+00
  -0.34100000E+01           0.00000000E+00
  -0.34000000E+01           0.00000000E+00
  -0.33900000E+01           0.00000000E+00
  -0.33800000E+01           0.00000000E+00
  -0.33700000E+01           0.00000000E+00
  -0.33600000E+01           0.00000000E+00
  -0.33500000E+01           0.00000000E+00
  -0.33400000E+01           0.00000000E+00
  -0.33300000E+01           0.00000000E+00
  -0.33200000E+01           0.00000000E+00
  -0.33100000E+01           0.00000000E+00
  -0.33000000E+01           0.00000000E+00
  -0.32900000E+01           0.00000000E+00
  -0.32800000E+01           0.00000000E+00
  -0.32700000E+01           0.00000000E+00
  -0.32600000E+01           0.00000000E+00
  -0.32500000E+01           0.00000000E+00
  -0.32400000E+01           0.00000000E+00
  -0.32300000E+01           0.00000000E+00
  -0.32200000E+01           0.00000000E+00
  -0.32100000E+01           0.00000000E+00
  -0.32000000E+01           0.00000000E+00
  -0.31900000E+01           0.00000000E+00
  -0.31800000E+01           0.00000000E+00
  -0.31700000E+01           0.00000000E+00
  -0.31600000E+01           0.00000000E+00
  -0.31500000E+01           0.00000000E+00
  -0.31400000E+01           0.00000000E+00
  -0.31300000E+01           0.00000000E+00
  -0.31200000E+01           0.00000000E+00
  -0.31100000E+01           0.00000000E+00
  -0.31000000E+01           0.00000000E+00
  -0.30900000E+01           0.00000000E+00
  -0.30800000E+01           0.00000000E+00
  -0.30700000E+01           0.00000000E+00
  -0.30600000E+01           0.00000000E+00
  -0.30500000E+01           0.00000000E+00
  -0.30400000E+01           0.00000000E+00
  -0.30300000E+01           0.00000000E+00
  -0.30200000E+01           0.00000000E+00
  -0.30100000E+01           0.00000000E+00
  -0.30000000E+01           0.00000000E+00
  -0.29900000E+01           0.00000000E+00
  -0.29800000E+01           0.00000000E+00
  -0.29700000E+01           0.00000000E+00
  -0.29600000E+01           0.00000000E+00
  -0.29500000E+01           0.00000000E+00
  -0.29400000E+01           0.00000000E+00
  -0.29300000E+01           0.00000000E+00
  -0.29200000E+01           0.00000000E+00
  -0.29100000E+01           0.00000000E+00
  -0.29000000E+01           0.00000000E+00
  -0.28900000E+01           0.00000000E+00
  -0.28800000E+01           0.00000000E+00
  -0.28700000E+01           0.00000000E+00
  -0.28600000E+01           0.00000000E+00
  -0.28500000E+01           0.00000000E+00
  -0.28400000E+01           0.00000000E+00
  -0.28300000E+01           0.00000000E+00
  -0.28200000E+01           0.00000000E+00
  -0.28100000E+01           0.00000000E+00
  -0.28000000E+01           0.00000000E+00
  -0.27900000E+01           0.00000000E+00
  -0.27800000E+01           0.00000000E+00
  -0.27700000E+01           0.00000000E+00
  -0.27600000E+01           0.00000000E+00
  -0.27500000E+01           0.00000000E+00
  -0.27400000E+01           0.00000000E+00
  -0.27300000E+01           0.00000000E+00
  -0.27200000E+01           0.00000000E+00
  -0.27100000E+01           0.00000000E+00
  -0.27000000E+01           0.00000000E+00
  -0.26900000E+01           0.00000000E+00
  -0.26800000E+01           0.00000000E+00
  -0.26700000E+01           0.00000000E+00
  -0.26600000E+01           0.00000000E+00
  -0.26500000E+01           0.00000000E+00
  -0.26400000E+01           0.00000000E+00
  -0.26300000E+01           0.00000000E+00
  -0.26200000E+01           0.00000000E+00
  -0.26100000E+01           0.00000000E+00
  -0.26000000E+01           0.00000000E+00
  -0.25900000E+01           0.00000000E+00
  -0.25800000E+01           0.00000000E+00
  -0.25700000E+01           0.00000000E+00
  -0.25600000E+01           0.00000000E+00
  -0.25500000E+01           0.00000000E+00
  -0.25400000E+01           0.00000000E+00
  -0.25300000E+01           0.00000000E+00
  -0.25200000E+01           0.00000000E+00
  -0.25100000E+01           0.00000000E+00
  -0.25000000E+01           0.00000000E+00
  -0.24900000E+01           0.00000000E+00
  -0.24800000E+01           0.00000000E+00
  -0.24700000E+01           0.00000000E+00
  -0.24600000E+01           0.00000000E+00
  -0.24500000E+01           0.00000000E+00
  -0.24400000E+01           0.00000000E+00
  -0.24300000E+01           0.00000000E+00
  -0.24200000E+01           0.00000000E+00
  -0.24100000E+01           0.00000000E+00
  -0.24000000E+01           0.00000000E+00
  -0.23900000E+01           0.00000000E+00
  -0.23800000E+01           0.00000000E+00
  -0.23700000E+01           0.00000000E+00
  -0.23600000E+01           0.00000000E+00
  -0.23500000E+01           0.00000000E+00
  -0.23400000E+01           0.00000000E+00
  -0.23300000E+01           0.00000000E+00
  -0.23200000E+01           0.00000000E+00
  -0.23100000E+01           0.00000000E+00
  -0.23000000E+01           0.00000000E+00
  -0.22900000E+01           0.00000000E+00
  -0.22800000E+01           0.00000000E+00
  -0.22700000E+01           0.00000000E+00
  -0.22600000E+01           0.00000000E+00
  -0.22500000E+01           0.00000000E+00
  -0.22400000E+01           0.00000000E+00
  -0.22300000E+01           0.00000000E+00
  -0.22200000E+01           0.00000000E+00
  -0.22100000E+01           0.00000000E+00
  -0.22000000E+01           0.00000000E+00
  -0.21900000E+01           0.00000000E+00
  -0.21800000E+01           0.00000000E+00
  -0.21700000E+01           0.00000000E+00
  -0.21600000E+01           0.00000000E+00
  -0.21500000E+01           0.00000000E+00
  -0.21400000E+01           0.00000000E+00
  -0.21300000E+01           0.00000000E+00
  -0.21200000E+01           0.00000000E+00
  -0.21100000E+01           0.00000000E+00
  -0.21000000E+01           0.00000000E+00
  -0.20900000E+01           0.00000000E+00
  -0.20800000E+01           0.00000000E+00
  -0.20700000E+01           0.00000000E+00
  -0.20600000E+01           0.00000000E+00
  -0.20500000E+01           0.00000000E+00
  -0.20400000E+01           0.00000000E+00
  -0.20300000E+01           0.00000000E+00
  -0.20200000E+01           0.00000000E+00
  -0.20100000E+01           0.00000000E+00
  -0.20000000E+01           0.00000000E+00
  -0.19900000E+01           0.00000000E+00
  -0.19800000E+01           0.00000000E+00
  -0.19700000E+01           0.00000000E+00
  -0.19600000E+01           0.00000000E+00
  -0.19500000E+01           0.00000000E+00
  -0.19400000E+01           0.00000000E+00
  -0.19300000E+01           0.00000000E+00
  -0.19200000E+01           0.00000000E+00
  -0.19100000E+01           0.00000000E+00
  -0.19000000E+01           0.00000000E+00
  -0.18900000E+01           0.00000000E+00
  -0.18800000E+01           0.00000000E+00
  -0.18700000E+01           0.00000000E+00
  -0.18600000E+01           0.00000000E+00
  -0.18500000E+01           0.00000000E+00
  -0.18400000E+01           0.00000000E+00
  -0.18300000E+01           0.00000000E+00
  -0.18200000E+01           0.00000000E+00
  -0.18100000E+01           0.00000000E+00
  -0.18000000E+01           0.00000000E+00
  -0.17900000E+01           0.00000000E+00
  -0.17800000E+01           0.00000000E+00
  -0.17700000E+01           0.00000000E+00
  -0.17600000E+01           0.00000000E+00
  -0.17500000E+01           0.00000000E+00
  -0.17400000E+01           0.00000000E+00
  -0.17300000E+01           0.00000000E+00
  -0.17200000E+01           0.00000000E+00
  -0.17100000E+01           0.00000000E+00
  -0.17000000E+01           0.00000000E+00
  -0.16900000E+01           0.00000000E+00
  -0.16800000E+01           0.00000000E+00
  -0.16700000E+01           0.00000000E+00
  -0.16600000E+01           0.00000000E+00
  -0.16500000E+01           0.00000000E+00
  -0.16400000E+01           0.00000000E+00
  -0.16300000E+01           0.00000000E+00
  -0.16200000E+01           0.00000000E+00
  -0.16100000E+01           0.00000000E+00
  -0.16000000E+01           0.00000000E+00
  -0.15900000E+01           0.00000000E+00
  -0.15800000E+01           0.00000000E+00
  -0.15700000E+01           0.00000000E+00
  -0.15600000E+01           0.00000000E+00
  -0.15500000E+01           0.00000000E+00
  -0.15400000E+01           0.00000000E+00
  -0.15300000E+01           0.00000000E+00
  -0.15200000E+01           0.00000000E+00
  -0.15100000E+01           0.00000000E+00
  -0.15000000E+01           0.00000000E+00
  -0.14900000E+01           0.00000000E+00
  -0.14800000E+01           0.00000000E+00
  -0.14700000E+01           0.00000000E+00
  -0.14600000E+01           0.00000000E+00
  -0.14500000E+01           0.00000000E+00
  -0.14400000E+01           0.00000000E+00
  -0.14300000E+01           0.00000000E+00
  -0.14200000E+01           0.00000000E+00
  -0.14100000E+01           0.00000000E+00
  -0.14000000E+01           0.00000000E+00
  -0.13900000E+01           0.00000000E+00
  -0.13800000E+01           0.00000000E+00
  -0.13700000E+01           0.00000000E+00
  -0.13600000E+01           0.00000000E+00
  -0.13500000E+01           0.00000000E+00
  -0.13400000E+01           0.00000000E+00
  -0.13300000E+01           0.00000000E+00
  -0.13200000E+01           0.00000000E+00
  -0.13100000E+01           0.00000000E+00
  -0.13000000E+01           0.00000000E+00
  -0.12900000E+01           0.00000000E+00
  -0.12800000E+01           0.00000000E+00
  -0.12700000E+01           0.00000000E+00
  -0.12600000E+01           0.00000000E+00
  -0.12500000E+01           0.00000000E+00
  -0.12400000E+01           0.00000000E+00
  -0.12300000E+01           0.00000000E+00
  -0.12200000E+01           0.00000000E+00
  -0.12100000E+01           0.00000000E+00
  -0.12000000E+01           0.00000000E+00
  -0.11900000E+01           0.00000000E+00
  -0.11800000E+01           0.00000000E+00
  -0.11700000E+01           0.00000000E+00
  -0.11600000E+01           0.00000000E+00
  -0.11500000E+01           0.00000000E+00
  -0.11400000E+01           0.00000000E+00
  -0.11300000E+01           0.00000000E+00
  -0.11200000E+01           0.00000000E+00
  -0.11100000E+01           0.00000000E+00
  -0.11000000E+01           0.00000000E+00
  -0.10900000E+01           0.00000000E+00
  -0.10800000E+01           0.00000000E+00
  -0.10700000E+01           0.00000000E+00
  -0.10600000E+01           0.00000000E+00
  -0.10500000E+01           0.00000000E+00
  -0.10400000E+01           0.00000000E+00
  -0.10300000E+01           0.00000000E+00
  -0.10200000E+01           0.00000000E+00
  -0.10100000E+01           0.00000000E+00
  -0.10000000E+01           0.00000000E+00
  -0.99000000E+00           0.00000000E+00
  -0.98000000E+00           0.00000000E+00
  -0.97000000E+00           0.00000000E+00
  -0.96000000E+00           0.00000000E+00
  -0.95000000E+00           0.00000000E+00
  -0.94000000E+00           0.00000000E+00
  -0.93000000E+00           0.00000000E+00
  -0.92000000E+00           0.00000000E+00
  -0.91000000E+00           0.00000000E+00
  -0.90000000E+00           0.00000000E+00
  -0.89000000E+00           0.00000000E+00
  -0.88000000E+00           0.00000000E+00
  -0.87000000E+00           0.00000000E+00
  -0.86000000E+00           0.00000000E+00
  -0.85000000E+00           0.00000000E+00
  -0.84000000E+00           0.00000000E+00
  -0.83000000E+00           0.00000000E+00
  -0.82000000E+00           0.00000000E+00
  -0.81000000E+00           0.00000000E+00
  -0.80000000E+00           0.00000000E+00
  -0.79000000E+00           0.00000000E+00
  -0.78000000E+00           0.00000000E+00
  -0.77000000E+00           0.00000000E+00
  -0.76000000E+00           0.00000000E+00
  -0.75000000E+00           0.00000000E+00
  -0.74000000E+00           0.00000000E+00
  -0.73000000E+00           0.00000000E+00
  -0.72000000E+00           0.00000000E+00
  -0.71000000E+00           0.00000000E+00
  -0.70000000E+00           0.00000000E+00
  -0.69000000E+00           0.00000000E+00
  -0.68000000E+00           0.00000000E+00
  -0.67000000E+00           0.00000000E+00
  -0.66000000E+00           0.00000000E+00
  -0.65000000E+00           0.00000000E+00
  -0.64000000E+00           0.00000000E+00
  -0.63000000E+00           0.00000000E+00
  -0.62000000E+00           0.00000000E+00
  -0.61000000E+00           0.00000000E+00
  -0.60000000E+00           0.00000000E+00
  -0.59000000E+00           0.00000000E+00
  -0.58000000E+00           0.00000000E+00
  -0.57000000E+00           0.00000000E+00
  -0.56000000E+00           0.00000000E+00
  -0.55000000E+00           0.00000000E+00
  -0.54000000E+00           0.00000000E+00
  -0.53000000E+00           0.00000000E+00
  -0.52000000E+00           0.00000000E+00
  -0.51000000E+00           0.00000000E+00
  -0.50000000E+00           0.00000000E+00
  -0.49000000E+00           0.00000000E+00
  -0.48000000E+00           0.00000000E+00
  -0.47000000E+00           0.00000000E+00
  -0.46000000E+00           0.00000000E+00
  -0.45000000E+00           0.00000000E+00
  -0.44000000E+00           0.00000000E+00
  -0.43000000E+00           0.00000000E+00
  -0.42000000E+00           0.00000000E+00
  -0.41000000E+00           0.00000000E+00
  -0.40000000E+00           0.00000000E+00
  -0.39000000E+00           0.00000000E+00
  -0.38000000E+00           0.00000000E+00
  -0.37000000E+00           0.00000000E+00
  -0.36000000E+00           0.00000000E+00
  -0.35000000E+00           0.00000000E+00
  -0.34000000E+00           0.00000000E+00
  -0.33000000E+00           0.00000000E+00
  -0.32000000E+00           0.00000000E+00
  -0.31000000E+00           0.00000000E+00
  -0.30000000E+00           0.00000000E+00
  -0.29000000E+00           0.00000000E+00
  -0.28000000E+00           0.00000000E+00
  -0.27000000E+00           0.00000000E+00
  -0.26000000E+00           0.00000000E+00
  -0.25000000E+00           0.00000000E+00
  -0.24000000E+00           0.00000000E+00
  -0.23000000E+00           0.00000000E+00
  -0.22000000E+00           0.00000000E+00
  -0.21000000E+00           0.00000000E+00
  -0.20000000E+00           0.00000000E+00
  -0.19000000E+00           0.00000000E+00
  -0.18000000E+00           0.00000000E+00
  -0.17000000E+00           0.00000000E+00
  -0.16000000E+00           0.00000000E+00
  -0.15000000E+00           0.00000000E+00
  -0.14000000E+00           0.00000000E+00
  -0.13000000E+00           0.00000000E+00
  -0.12000000E+00           0.00000000E+00
  -0.11000000E+00           0.00000000E+00
  -0.10000000E+00           0.00000000E+00
  -0.90000000E-01           0.00000000E+00
  -0.80000000E-01           0.00000000E+00
  -0.70000000E-01           0.00000000E+00
  -0.60000000E-01           0.00000000E+00
  -0.50000000E-01           0.00000000E+00
  -0.40000000E-01           0.00000000E+00
  -0.30000000E-01           0.00000000E+00
  -0.20000000E-01           0.00000000E+00
  -0.10000000E-01           0.00000000E+00
   0.00000000E+00           0.15316804E-04
   0.10000000E-01           0.39597796E-03
   0.20000000E-01           0.14552617E-02
   0.30000000E-01           0.32249036E-02
   0.40000000E-01           0.56568044E-02
   0.50000000E-01           0.87222590E-02
   0.60000000E-01           0.12387603E-01
   0.70000000E-01           0.16693058E-01
   0.80000000E-01           0.21656529E-01
   0.90000000E-01           0.27086116E-01
   0.10000000E+00           0.33171460E-01
   0.11000000E+00           0.39606942E-01
   0.12000000E+00           0.46747989E-01
   0.13000000E+00           0.54285620E-01
   0.14000000E+00           0.62256474E-01
   0.15000000E+00           0.70787713E-01
   0.16000000E+00           0.79580000E-01
   0.17000000E+00           0.88926391E-01
   0.18000000E+00           0.98536749E-01
   0.19000000E+00           0.10872920E+00
   0.20000000E+00           0.11902485E+00
   0.21000000E+00           0.12951466E+00
   0.22000000E+00           0.14043052E+00
   0.23000000E+00           0.15202000E+00
   0.24000000E+00           0.16339449E+00
   0.25000000E+00           0.17508782E+00
   0.26000000E+00           0.18714843E+00
   0.27000000E+00           0.19945614E+00
   0.28000000E+00           0.21184242E+00
   0.29000000E+00           0.22429218E+00
   0.30000000E+00           0.23734044E+00
   0.31000000E+00           0.25001223E+00
   0.32000000E+00           0.26301592E+00
   0.33000000E+00           0.27603846E+00
   0.34000000E+00           0.28915807E+00
   0.35000000E+00           0.30259554E+00
   0.36000000E+00           0.31564512E+00
   0.37000000E+00           0.32928882E+00
   0.38000000E+00           0.34273196E+00
   0.39000000E+00           0.35585207E+00
   0.40000000E+00           0.36909041E+00
   0.41000000E+00           0.38237179E+00
   0.42000000E+00           0.39554617E+00
   0.43000000E+00           0.40915862E+00
   0.44000000E+00           0.42194507E+00
   0.45000000E+00           0.43512160E+00
   0.46000000E+00           0.44809532E+00
   0.47000000E+00           0.46097405E+00
   0.48000000E+00           0.47328529E+00
   0.49000000E+00           0.48609355E+00
   0.50000000E+00           0.49823548E+00
   0.51000000E+00           0.51061796E+00
   0.52000000E+00           0.52263719E+00
   0.53000000E+00           0.53469207E+00
   0.54000000E+00           0.54643383E+00
   0.55000000E+00           0.55799945E+00
   0.56000000E+00           0.56904314E+00
   0.57000000E+00           0.58024639E+00
   0.58000000E+00           0.59126799E+00
   0.59000000E+00           0.60197763E+00
   0.60000000E+00           0.61201493E+00
   0.61000000E+00           0.62253333E+00
   0.62000000E+00           0.63246413E+00
   0.63000000E+00           0.64194540E+00
   0.64000000E+00           0.65113653E+00
   0.65000000E+00           0.66034501E+00
   0.66000000E+00           0.66907664E+00
   0.67000000E+00           0.67779477E+00
   0.68000000E+00           0.68570237E+00
   0.69000000E+00           0.69386793E+00
   0.70000000E+00           0.70150579E+00
   0.71000000E+00           0.70895873E+00
   0.72000000E+00           0.71543554E+00
   0.73000000E+00           0.72215636E+00
   0.74000000E+00           0.72868231E+00
   0.75000000E+00           0.73476044E+00
   0.76000000E+00           0.74081802E+00
   0.77000000E+00           0.74602942E+00
   0.78000000E+00           0.75146997E+00
   0.79000000E+00           0.75597416E+00
   0.80000000E+00           0.76085218E+00
   0.81000000E+00           0.76503868E+00
   0.82000000E+00           0.76919890E+00
   0.83000000E+00           0.77273113E+00
   0.84000000E+00           0.77546050E+00
   0.85000000E+00           0.77889052E+00
   0.86000000E+00           0.78138298E+00
   0.87000000E+00           0.78397934E+00
   0.88000000E+00           0.78594545E+00
   0.89000000E+00           0.78700573E+00
   0.90000000E+00           0.78892386E+00
   0.91000000E+00           0.79036050E+00
   0.92000000E+00           0.79085725E+00
   0.93000000E+00           0.79097708E+00
   0.94000000E+00           0.79184826E+00
   0.95000000E+00           0.79175747E+00
   0.96000000E+00           0.79094612E+00
   0.97000000E+00           0.79042061E+00
   0.98000000E+00           0.78981967E+00
   0.99000000E+00           0.78864165E+00
   0.10000000E+01           0.78743785E+00
   0.10100000E+01           0.78552854E+00
   0.10200000E+01           0.78381581E+00
   0.10300000E+01           0.78087201E+00
   0.10400000E+01           0.77914193E+00
   0.10500000E+01           0.77620601E+00
   0.10600000E+01           0.77343058E+00
   0.10700000E+01           0.77037212E+00
   0.10800000E+01           0.76645168E+00
   0.10900000E+01           0.76339950E+00
   0.11000000E+01           0.75935691E+00
   0.11100000E+01           0.75564997E+00
   0.11200000E+01           0.75142391E+00
   0.11300000E+01           0.74680413E+00
   0.11400000E+01           0.74204116E+00
   0.11500000E+01           0.73752507E+00
   0.11600000E+01           0.73219361E+00
   0.11700000E+01           0.72725879E+00
   0.11800000E+01           0.72195036E+00
   0.11900000E+01           0.71675096E+00
   0.12000000E+01           0.71106402E+00
   0.12100000E+01           0.70525741E+00
   0.12200000E+01           0.69918716E+00
   0.12300000E+01           0.69266672E+00
   0.12400000E+01           0.68691350E+00
   0.12500000E+01           0.68061019E+00
   0.12600000E+01           0.67389058E+00
   0.12700000E+01           0.66722441E+00
   0.12800000E+01           0.66055565E+00
   0.12900000E+01           0.65376645E+00
   0.13000000E+01           0.64742860E+00
   0.13100000E+01           0.64009460E+00
   0.13200000E+01           0.63285185E+00
   0.13300000E+01           0.62626331E+00
   0.13400000E+01           0.61871708E+00
   0.13500000E+01           0.61145763E+00
   0.13600000E+01           0.60421647E+00
   0.13700000E+01           0.59677873E+00
   0.13800000E+01           0.58925124E+00
   0.13900000E+01           0.58145774E+00
   0.14000000E+01           0.57406094E+00
   0.14100000E+01           0.56676154E+00
   0.14200000E+01           0.55880132E+00
   0.14300000E+01           0.55131620E+00
   0.14400000E+01           0.54388248E+00
   0.14500000E+01           0.53626771E+00
   0.14600000E+01           0.52829355E+00
   0.14700000E+01           0.52063603E+00
   0.14800000E+01           0.51292749E+00
   0.14900000E+01           0.50490463E+00
   0.15000000E+01           0.49739278E+00
   0.15100000E+01           0.48977906E+00
   0.15200000E+01           0.48211658E+00
   0.15300000E+01           0.47451278E+00
   0.15400000E+01           0.46670237E+00
   0.15500000E+01           0.45900193E+00
   0.15600000E+01           0.45153934E+00
   0.15700000E+01           0.44360837E+00
   0.15800000E+01           0.43605967E+00
   0.15900000E+01           0.42842072E+00
   0.16000000E+01           0.42115697E+00
   0.16100000E+01           0.41340226E+00
   0.16200000E+01           0.40588854E+00
   0.16300000E+01           0.39896000E+00
   0.16400000E+01           0.39116347E+00
   0.16500000E+01           0.38419675E+00
   0.16600000E+01           0.37684760E+00
   0.16700000E+01           0.36979223E+00
   0.16800000E+01           0.36280551E+00
   0.16900000E+01           0.35537983E+00
   0.17000000E+01           0.34855609E+00
   0.17100000E+01           0.34142055E+00
   0.17200000E+01           0.33459581E+00
   0.17300000E+01           0.32757554E+00
   0.17400000E+01           0.32096386E+00
   0.17500000E+01           0.31452364E+00
   0.17600000E+01           0.30786287E+00
   0.17700000E+01           0.30137554E+00
   0.17800000E+01           0.29507614E+00
   0.17900000E+01           0.28851785E+00
   0.18000000E+01           0.28220986E+00
   0.18100000E+01           0.27589950E+00
   0.18200000E+01           0.26990672E+00
   0.18300000E+01           0.26370799E+00
   0.18400000E+01           0.25785212E+00
   0.18500000E+01           0.25180055E+00
   0.18600000E+01           0.24588788E+00
   0.18700000E+01           0.24017366E+00
   0.18800000E+01           0.23467835E+00
   0.18900000E+01           0.22910931E+00
   0.19000000E+01           0.22377862E+00
   0.19100000E+01           0.21826413E+00
   0.19200000E+01           0.21271658E+00
   0.19300000E+01           0.20755906E+00
   0.19400000E+01           0.20244716E+00
   0.19500000E+01           0.19732523E+00
   0.19600000E+01           0.19237003E+00
   0.19700000E+01           0.18707317E+00
   0.19800000E+01           0.18257152E+00
   0.19900000E+01           0.17801157E+00
   0.20000000E+01           0.17307339E+00
   0.20100000E+01           0.16858127E+00
   0.20200000E+01           0.16388452E+00
   0.20300000E+01           0.15957052E+00
   0.20400000E+01           0.15547190E+00
   0.20500000E+01           0.15103543E+00
   0.20600000E+01           0.14704231E+00
   0.20700000E+01           0.14299361E+00
   0.20800000E+01           0.13894645E+00
   0.20900000E+01           0.13502529E+00
   0.21000000E+01           0.13122006E+00
   0.21100000E+01           0.12761135E+00
   0.21200000E+01           0.12401372E+00
   0.21300000E+01           0.12051994E+00
   0.21400000E+01           0.11699091E+00
   0.21500000E+01           0.11349818E+00
   0.21600000E+01           0.11026309E+00
   0.21700000E+01           0.10700490E+00
   0.21800000E+01           0.10379857E+00
   0.21900000E+01           0.10083978E+00
   0.22000000E+01           0.97722314E-01
   0.22100000E+01           0.94800441E-01
   0.22200000E+01           0.91848430E-01
   0.22300000E+01           0.89130799E-01
   0.22400000E+01           0.86446116E-01
   0.22500000E+01           0.83740110E-01
   0.22600000E+01           0.81097906E-01
   0.22700000E+01           0.78662700E-01
   0.22800000E+01           0.76128154E-01
   0.22900000E+01           0.73745620E-01
   0.23000000E+01           0.71311515E-01
   0.23100000E+01           0.69080992E-01
   0.23200000E+01           0.66825840E-01
   0.23300000E+01           0.64714160E-01
   0.23400000E+01           0.62566281E-01
   0.23500000E+01           0.60609807E-01
   0.23600000E+01           0.58554656E-01
   0.23700000E+01           0.56623802E-01
   0.23800000E+01           0.54747824E-01
   0.23900000E+01           0.52806391E-01
   0.24000000E+01           0.51085234E-01
   0.24100000E+01           0.49340716E-01
   0.24200000E+01           0.47702424E-01
   0.24300000E+01           0.45982094E-01
   0.24400000E+01           0.44421928E-01
   0.24500000E+01           0.42835813E-01
   0.24600000E+01           0.41409587E-01
   0.24700000E+01           0.39866116E-01
   0.24800000E+01           0.38530193E-01
   0.24900000E+01           0.37085510E-01
   0.25000000E+01           0.35819449E-01
   0.25100000E+01           0.34457300E-01
   0.25200000E+01           0.33180441E-01
   0.25300000E+01           0.31977631E-01
   0.25400000E+01           0.30807989E-01
   0.25500000E+01           0.29651791E-01
   0.25600000E+01           0.28699614E-01
   0.25700000E+01           0.27561267E-01
   0.25800000E+01           0.26505289E-01
   0.25900000E+01           0.25489587E-01
   0.26000000E+01           0.24499559E-01
   0.26100000E+01           0.23586667E-01
   0.26200000E+01           0.22667163E-01
   0.26300000E+01           0.21784353E-01
   0.26400000E+01           0.20952287E-01
   0.26500000E+01           0.20076143E-01
   0.26600000E+01           0.19341653E-01
   0.26700000E+01           0.18530248E-01
   0.26800000E+01           0.17805455E-01
   0.26900000E+01           0.17120055E-01
   0.27000000E+01           0.16403912E-01
   0.27100000E+01           0.15724298E-01
   0.27200000E+01           0.15066556E-01
   0.27300000E+01           0.14478402E-01
   0.27400000E+01           0.13875868E-01
   0.27500000E+01           0.13300386E-01
   0.27600000E+01           0.12709972E-01
   0.27700000E+01           0.12179780E-01
   0.27800000E+01           0.11661708E-01
   0.27900000E+01           0.11162755E-01
   0.28000000E+01           0.10692342E-01
   0.28100000E+01           0.10253499E-01
   0.28200000E+01           0.97833058E-02
   0.28300000E+01           0.93428650E-02
   0.28400000E+01           0.89639118E-02
   0.28500000E+01           0.85593388E-02
   0.28600000E+01           0.81723967E-02
   0.28700000E+01           0.78057851E-02
   0.28800000E+01           0.74605510E-02
   0.28900000E+01           0.71224242E-02
   0.29000000E+01           0.67964738E-02
   0.29100000E+01           0.64530028E-02
   0.29200000E+01           0.61846832E-02
   0.29300000E+01           0.58612121E-02
   0.29400000E+01           0.56278237E-02
   0.29500000E+01           0.53131680E-02
   0.29600000E+01           0.50861708E-02
   0.29700000E+01           0.48159780E-02
   0.29800000E+01           0.45952617E-02
   0.29900000E+01           0.43625344E-02
   0.30000000E+01           0.41675482E-02
   0.30100000E+01           0.39561983E-02
   0.30200000E+01           0.37593939E-02
   0.30300000E+01           0.35669421E-02
   0.30400000E+01           0.33968044E-02
   0.30500000E+01           0.32447383E-02
   0.30600000E+01           0.30615427E-02
   0.30700000E+01           0.28976860E-02
   0.30800000E+01           0.27569697E-02
   0.30900000E+01           0.25968044E-02
   0.31000000E+01           0.24650689E-02
   0.31100000E+01           0.23354270E-02
   0.31200000E+01           0.22157576E-02
   0.31300000E+01           0.20882645E-02
   0.31400000E+01           0.19816529E-02
   0.31500000E+01           0.18856749E-02
   0.31600000E+01           0.17800551E-02
   0.31700000E+01           0.16839669E-02
   0.31800000E+01           0.15717355E-02
   0.31900000E+01           0.14894215E-02
   0.32000000E+01           0.14084848E-02
   0.32100000E+01           0.13331680E-02
   0.32200000E+01           0.12580165E-02
   0.32300000E+01           0.11788430E-02
   0.32400000E+01           0.11082094E-02
   0.32500000E+01           0.10480441E-02
   0.32600000E+01           0.99840220E-03
   0.32700000E+01           0.93333333E-03
   0.32800000E+01           0.87090909E-03
   0.32900000E+01           0.81537190E-03
   0.33000000E+01           0.76815427E-03
   0.33100000E+01           0.72991736E-03
   0.33200000E+01           0.68925620E-03
   0.33300000E+01           0.64214876E-03
   0.33400000E+01           0.58727273E-03
   0.33500000E+01           0.55134986E-03
   0.33600000E+01           0.52589532E-03
   0.33700000E+01           0.49079890E-03
   0.33800000E+01           0.45410468E-03
   0.33900000E+01           0.42407713E-03
   0.34000000E+01           0.40181818E-03
   0.34100000E+01           0.37118457E-03
   0.34200000E+01           0.34077135E-03
   0.34300000E+01           0.32192837E-03
   0.34400000E+01           0.30363636E-03
   0.34500000E+01           0.28325069E-03
   0.34600000E+01           0.25829201E-03
   0.34700000E+01           0.24358127E-03
   0.34800000E+01           0.22617080E-03
   0.34900000E+01           0.20798898E-03
   0.35000000E+01           0.19002755E-03
   0.35100000E+01           0.17575758E-03
   0.35200000E+01           0.16220386E-03
   0.35300000E+01           0.14947658E-03
   0.35400000E+01           0.14049587E-03
   0.35500000E+01           0.12986226E-03
   0.35600000E+01           0.12071625E-03
   0.35700000E+01           0.10655647E-03
   0.35800000E+01           0.96639118E-04
   0.35900000E+01           0.92121212E-04
   0.36000000E+01           0.80440771E-04
   0.36100000E+01           0.75592287E-04
   0.36200000E+01           0.72672176E-04
   0.36300000E+01           0.59393939E-04
   0.36400000E+01           0.58787879E-04
   0.36500000E+01           0.53608815E-04
   0.36600000E+01           0.45895317E-04
   0.36700000E+01           0.39779614E-04
   0.36800000E+01           0.37410468E-04
   0.36900000E+01           0.35977961E-04
   0.37000000E+01           0.32176309E-04
   0.37100000E+01           0.28154270E-04
   0.37200000E+01           0.23966942E-04
   0.37300000E+01           0.22865014E-04
   0.37400000E+01           0.20165289E-04
   0.37500000E+01           0.18181818E-04
   0.37600000E+01           0.15537190E-04
   0.37700000E+01           0.13443526E-04
   0.37800000E+01           0.11515152E-04
   0.37900000E+01           0.10853994E-04
   0.38000000E+01           0.87603306E-05
   0.38100000E+01           0.78236915E-05
   0.38200000E+01           0.69421488E-05
   0.38300000E+01           0.58402204E-05
   0.38400000E+01           0.52892562E-05
   0.38500000E+01           0.42975207E-05
   0.38600000E+01           0.35812672E-05
   0.38700000E+01           0.31955923E-05
   0.38800000E+01           0.28650138E-05
   0.38900000E+01           0.16528926E-05
   0.39000000E+01           0.14876033E-05
   0.39100000E+01           0.99173554E-06
   0.39200000E+01           0.12672176E-05
   0.39300000E+01           0.88154270E-06
   0.39400000E+01           0.11019284E-06
   0.39500000E+01           0.44077135E-06
   0.39600000E+01           0.27548209E-06
   0.39700000E+01           0.00000000E+00
   0.39800000E+01           0.55096419E-07
   0.39900000E+01           0.00000000E+00
   0.40000000E+01           0.00000000E+00
 #T=   202.0000
  -0.40000000E+01           0.00000000E+00
  -0.39900000E+01           0.00000000E+00
  -0.39800000E+01           0.00000000E+00
  -0.39700000E+01           0.00000000E+00
  -0.39600000E+01           0.00000000E+00
  -0.39500000E+01           0.00000000E+00
  -0.39400000E+01           0.00000000E+00
  -0.39300000E+01           0.00000000E+00
  -0.39200000E+01           0.00000000E+00
  -0.39100000E+01           0.00000000E+00
  -0.39000000E+01           0.00000000E+00
  -0.38900000E+01           0.00000000E+00
  -0.38800000E+01           0.00000000E+00
  -0.38700000E+01           0.00000000E+00
  -0.38600000E+01           0.00000000E+00
  -0.38500000E+01           0.00000000E+00
  -0.38400000E+01           0.00000000E+00
  -0.38300000E+01           0.00000000E+00
  -0.38200000E+01           0.00000000E+00
  -0.38100000E+01           0.00000000E+00
  -0.38000000E+01           0.00000000E+00
  -0.37900000E+01           0.00000000E+00
  -0.37800000E+01           0.00000000E+00
  -0.37700000E+01           0.00000000E+00
  -0.37600000E+01           0.00000000E+00
  -0.37500000E+01           0.00000000E+00
  -0.37400000E+01           0.00000000E+00
  -0.37300000E+01           0.00000000E+00
  -0.37200000E+01           0.00000000E+00
  -0.37100000E+01           0.00000000E+00
  -0.37000000E+01           0.00000000E+00
  -0.36900000E+01           0.00000000E+00
  -0.36800000E+01           0.00000000E+00
  -0.36700000E+01           0.00000000E+00
  -0.36600000E+01           0.00000000E+00
  -0.36500000E+01           0.00000000E+00
  -0.36400000E+01           0.00000000E+00
  -0.36300000E+01           0.00000000E+00
  -0.36200000E+01           0.00000000E+00
  -0.36100000E+01           0.00000000E+00
  -0.36000000E+01           0.00000000E+00
  -0.35900000E+01           0.00000000E+00
  -0.35800000E+01           0.00000000E+00
  -0.35700000E+01           0.00000000E+00
  -0.35600000E+01           0.00000000E+00
  -0.35500000E+01           0.00000000E+00
  -0.35400000E+01           0.00000000E+00
  -0.35300000E+01           0.00000000E+00
  -0.35200000E+01           0.00000000E+00
  -0.35100000E+01           0.00000000E+00
  -0.35000000E+01           0.00000000E+00
  -0.34900000E+01           0.00000000E+00
  -0.34800000E+01           0.00000000E+00
  -0.34700000E+01           0.00000000E+00
  -0.34600000E+01           0.00000000E+00
  -0.34500000E+01           0.00000000E+00
  -0.34400000E+01           0.00000000E+00
  -0.34300000E+01           0.00000000E+00
  -0.34200000E+01           0.00000000E+00
  -0.34100000E+01           0.00000000E+00
  -0.34000000E+01           0.00000000E+00
  -0.33900000E+01           0.00000000E+00
  -0.33800000E+01           0.00000000E+00
  -0.33700000E+01           0.00000000E+00
  -0.33600000E+01           0.00000000E+00
  -0.33500000E+01           0.00000000E+00
  -0.33400000E+01           0.00000000E+00
  -0.33300000E+01           0.00000000E+00
  -0.33200000E+01           0.00000000E+00
  -0.33100000E+01           0.00000000E+00
  -0.33000000E+01           0.00000000E+00
  -0.32900000E+01           0.00000000E+00
  -0.32800000E+01           0.00000000E+00
  -0.32700000E+01           0.00000000E+00
  -0.32600000E+01           0.00000000E+00
  -0.32500000E+01           0.00000000E+00
  -0.32400000E+01           0.00000000E+00
  -0.32300000E+01           0.00000000E+00
  -0.32200000E+01           0.00000000E+00
  -0.32100000E+01           0.00000000E+00
  -0.32000000E+01           0.00000000E+00
  -0.31900000E+01           0.00000000E+00
  -0.31800000E+01           0.00000000E+00
  -0.31700000E+01           0.00000000E+00
  -0.31600000E+01           0.00000000E+00
  -0.31500000E+01           0.00000000E+00
  -0.31400000E+01           0.00000000E+00
  -0.31300000E+01           0.00000000E+00
  -0.31200000E+01           0.00000000E+00
  -0.31100000E+01           0.00000000E+00
  -0.31000000E+01           0.00000000E+00
  -0.30900000E+01           0.00000000E+00
  -0.30800000E+01           0.00000000E+00
  -0.30700000E+01           0.00000000E+00
  -0.30600000E+01           0.00000000E+00
  -0.30500000E+01           0.00000000E+00
  -0.30400000E+01           0.00000000E+00
  -0.30300000E+01           0.00000000E+00
  -0.30200000E+01           0.00000000E+00
  -0.30100000E+01           0.00000000E+00
  -0.30000000E+01           0.00000000E+00
  -0.29900000E+01           0.00000000E+00
  -0.29800000E+01           0.00000000E+00
  -0.29700000E+01           0.00000000E+00
  -0.29600000E+01           0.00000000E+00
  -0.29500000E+01           0.00000000E+00
  -0.29400000E+01           0.00000000E+00
  -0.29300000E+01           0.00000000E+00
  -0.29200000E+01           0.00000000E+00
  -0.29100000E+01           0.00000000E+00
  -0.29000000E+01           0.00000000E+00
  -0.28900000E+01           0.00000000E+00
  -0.28800000E+01           0.00000000E+00
  -0.28700000E+01           0.00000000E+00
  -0.28600000E+01           0.00000000E+00
  -0.28500000E+01           0.00000000E+00
  -0.28400000E+01           0.00000000E+00
  -0.28300000E+01           0.00000000E+00
  -0.28200000E+01           0.00000000E+00
  -0.28100000E+01           0.00000000E+00
  -0.28000000E+01           0.00000000E+00
  -0.27900000E+01           0.00000000E+00
  -0.27800000E+01           0.00000000E+00
  -0.27700000E+01           0.00000000E+00
  -0.27600000E+01           0.00000000E+00
  -0.27500000E+01           0.00000000E+00
  -0.27400000E+01           0.00000000E+00
  -0.27300000E+01           0.00000000E+00
  -0.27200000E+01           0.00000000E+00
  -0.27100000E+01           0.00000000E+00
  -0.27000000E+01           0.00000000E+00
  -0.26900000E+01           0.00000000E+00
  -0.26800000E+01           0.00000000E+00
  -0.26700000E+01           0.00000000E+00
  -0.26600000E+01           0.00000000E+00
  -0.26500000E+01           0.00000000E+00
  -0.26400000E+01           0.00000000E+00
  -0.26300000E+01           0.00000000E+00
  -0.26200000E+01           0.00000000E+00
  -0.26100000E+01           0.00000000E+00
  -0.26000000E+01           0.00000000E+00
  -0.25900000E+01           0.00000000E+00
  -0.25800000E+01           0.00000000E+00
  -0.25700000E+01           0.00000000E+00
  -0.25600000E+01           0.00000000E+00
  -0.25500000E+01           0.00000000E+00
  -0.25400000E+01           0.00000000E+00
  -0.25300000E+01           0.00000000E+00
  -0.25200000E+01           0.00000000E+00
  -0.25100000E+01           0.00000000E+00
  -0.25000000E+01           0.00000000E+00
  -0.24900000E+01           0.00000000E+00
  -0.24800000E+01           0.00000000E+00
  -0.24700000E+01           0.00000000E+00
  -0.24600000E+01           0.00000000E+00
  -0.24500000E+01           0.00000000E+00
  -0.24400000E+01           0.00000000E+00
  -0.24300000E+01           0.00000000E+00
  -0.24200000E+01           0.00000000E+00
  -0.24100000E+01           0.00000000E+00
  -0.24000000E+01           0.00000000E+00
  -0.23900000E+01           0.00000000E+00
  -0.23800000E+01           0.00000000E+00
  -0.23700000E+01           0.00000000E+00
  -0.23600000E+01           0.00000000E+00
  -0.23500000E+01           0.00000000E+00
  -0.23400000E+01           0.00000000E+00
  -0.23300000E+01           0.00000000E+00
  -0.23200000E+01           0.00000000E+00
  -0.23100000E+01           0.00000000E+00
  -0.23000000E+01           0.00000000E+00
  -0.22900000E+01           0.00000000E+00
  -0.22800000E+01           0.00000000E+00
  -0.22700000E+01           0.00000000E+00
  -0.22600000E+01           0.00000000E+00
  -0.22500000E+01           0.00000000E+00
  -0.22400000E+01           0.00000000E+00
  -0.22300000E+01           0.00000000E+00
  -0.22200000E+01           0.00000000E+00
  -0.22100000E+01           0.00000000E+00
  -0.22000000E+01           0.00000000E+00
  -0.21900000E+01           0.00000000E+00
  -0.21800000E+01           0.00000000E+00
  -0.21700000E+01           0.00000000E+00
  -0.21600000E+01           0.00000000E+00
  -0.21500000E+01           0.00000000E+00
  -0.21400000E+01           0.00000000E+00
  -0.21300000E+01           0.00000000E+00
  -0.21200000E+01           0.00000000E+00
  -0.21100000E+01           0.00000000E+00
  -0.21000000E+01           0.00000000E+00
  -0.20900000E+01           0.00000000E+00
  -0.20800000E+01           0.00000000E+00
  -0.20700000E+01           0.00000000E+00
  -0.20600000E+01           0.00000000E+00
  -0.20500000E+01           0.00000000E+00
  -0.20400000E+01           0.00000000E+00
  -0.20300000E+01           0.00000000E+00
  -0.20200000E+01           0.00000000E+00
  -0.20100000E+01           0.00000000E+00
  -0.20000000E+01           0.00000000E+00
  -0.19900000E+01           0.00000000E+00
  -0.19800000E+01           0.00000000E+00
  -0.19700000E+01           0.00000000E+00
  -0.19600000E+01           0.00000000E+00
  -0.19500000E+01           0.00000000E+00
  -0.19400000E+01           0.00000000E+00
  -0.19300000E+01           0.00000000E+00
  -0.19200000E+01           0.00000000E+00
  -0.19100000E+01           0.00000000E+00
  -0.19000000E+01           0.00000000E+00
  -0.18900000E+01           0.00000000E+00
  -0.18800000E+01           0.00000000E+00
  -0.18700000E+01           0.00000000E+00
  -0.18600000E+01           0.00000000E+00
  -0.18500000E+01           0.00000000E+00
  -0.18400000E+01           0.00000000E+00
  -0.18300000E+01           0.00000000E+00
  -0.18200000E+01           0.00000000E+00
  -0.18100000E+01           0.00000000E+00
  -0.18000000E+01           0.00000000E+00
  -0.17900000E+01           0.00000000E+00
  -0.17800000E+01           0.00000000E+00
  -0.17700000E+01           0.00000000E+00
  -0.17600000E+01           0.00000000E+00
  -0.17500000E+01           0.00000000E+00
  -0.17400000E+01           0.00000000E+00
  -0.17300000E+01           0.00000000E+00
  -0.17200000E+01           0.00000000E+00
  -0.17100000E+01           0.00000000E+00
  -0.17000000E+01           0.00000000E+00
  -0.16900000E+01           0.00000000E+00
  -0.16800000E+01           0.00000000E+00
  -0.16700000E+01           0.00000000E+00
  -0.16600000E+01           0.00000000E+00
  -0.16500000E+01           0.00000000E+00
  -0.16400000E+01           0.00000000E+00
  -0.16300000E+01           0.00000000E+00
  -0.16200000E+01           0.00000000E+00
  -0.16100000E+01           0.00000000E+00
  -0.16000000E+01           0.00000000E+00
  -0.15900000E+01           0.00000000E+00
  -0.15800000E+01           0.00000000E+00
  -0.15700000E+01           0.00000000E+00
  -0.15600000E+01           0.00000000E+00
  -0.15500000E+01           0.00000000E+00
  -0.15400000E+01           0.00000000E+00
  -0.15300000E+01           0.00000000E+00
  -0.15200000E+01           0.00000000E+00
  -0.15100000E+01           0.00000000E+00
  -0.15000000E+01           0.00000000E+00
  -0.14900000E+01           0.00000000E+00
[...]
  -0.64000000E+00           0.00000000E+00
  -0.63000000E+00           0.00000000E+00
  -0.62000000E+00           0.00000000E+00
  -0.61000000E+00           0.00000000E+00
  -0.60000000E+00           0.00000000E+00
  -0.59000000E+00           0.00000000E+00
  -0.58000000E+00           0.00000000E+00
  -0.57000000E+00           0.00000000E+00
  -0.56000000E+00           0.00000000E+00
  -0.55000000E+00           0.00000000E+00
  -0.54000000E+00           0.00000000E+00
  -0.53000000E+00           0.00000000E+00
  -0.52000000E+00           0.00000000E+00
  -0.51000000E+00           0.00000000E+00
  -0.50000000E+00           0.00000000E+00
  -0.49000000E+00           0.00000000E+00
  -0.48000000E+00           0.00000000E+00
  -0.47000000E+00           0.00000000E+00
  -0.46000000E+00           0.00000000E+00
  -0.45000000E+00           0.00000000E+00
  -0.44000000E+00           0.00000000E+00
  -0.43000000E+00           0.00000000E+00
  -0.42000000E+00           0.00000000E+00
  -0.41000000E+00           0.00000000E+00
  -0.40000000E+00           0.00000000E+00
  -0.39000000E+00           0.00000000E+00
  -0.38000000E+00           0.00000000E+00
  -0.37000000E+00           0.00000000E+00
  -0.36000000E+00           0.00000000E+00
  -0.35000000E+00           0.00000000E+00
  -0.34000000E+00           0.00000000E+00
  -0.33000000E+00           0.00000000E+00
  -0.32000000E+00           0.00000000E+00
  -0.31000000E+00           0.00000000E+00
  -0.30000000E+00           0.00000000E+00
  -0.29000000E+00           0.00000000E+00
  -0.28000000E+00           0.00000000E+00
  -0.27000000E+00           0.00000000E+00
  -0.26000000E+00           0.00000000E+00
  -0.25000000E+00           0.00000000E+00
  -0.24000000E+00           0.00000000E+00
  -0.23000000E+00           0.00000000E+00
  -0.22000000E+00           0.00000000E+00
  -0.21000000E+00           0.00000000E+00
  -0.20000000E+00           0.00000000E+00
  -0.19000000E+00           0.00000000E+00
  -0.18000000E+00           0.00000000E+00
  -0.17000000E+00           0.00000000E+00
  -0.16000000E+00           0.00000000E+00
  -0.15000000E+00           0.00000000E+00
  -0.14000000E+00           0.00000000E+00
  -0.13000000E+00           0.00000000E+00
  -0.12000000E+00           0.00000000E+00
  -0.11000000E+00           0.00000000E+00
  -0.10000000E+00           0.00000000E+00
  -0.90000000E-01           0.00000000E+00
  -0.80000000E-01           0.00000000E+00
  -0.70000000E-01           0.00000000E+00
  -0.60000000E-01           0.00000000E+00
  -0.50000000E-01           0.00000000E+00
  -0.40000000E-01           0.00000000E+00
  -0.30000000E-01           0.00000000E+00
  -0.20000000E-01           0.00000000E+00
  -0.10000000E-01           0.00000000E+00
   0.00000000E+00           0.65013774E-05
   0.10000000E-01           0.17035813E-03
   0.20000000E-01           0.62545455E-03
   0.30000000E-01           0.13869421E-02
   0.40000000E-01           0.24733884E-02
   0.50000000E-01           0.38500275E-02
   0.60000000E-01           0.55041322E-02
   0.70000000E-01           0.73982920E-02
   0.80000000E-01           0.95988981E-02
   0.90000000E-01           0.12056033E-01
   0.10000000E+00           0.14713499E-01
   0.11000000E+00           0.17726006E-01
   0.12000000E+00           0.20892893E-01
   0.13000000E+00           0.24417631E-01
   0.14000000E+00           0.28052507E-01
   0.15000000E+00           0.31965179E-01
   0.16000000E+00           0.36036309E-01
   0.17000000E+00           0.40509532E-01
   0.18000000E+00           0.45090413E-01
   0.19000000E+00           0.49816860E-01
   0.20000000E+00           0.54743912E-01
   0.21000000E+00           0.59907934E-01
   0.22000000E+00           0.65165014E-01
   0.23000000E+00           0.70773113E-01
   0.24000000E+00           0.76287383E-01
   0.25000000E+00           0.82261763E-01
   0.26000000E+00           0.88117355E-01
   0.27000000E+00           0.94195152E-01
   0.28000000E+00           0.10042556E+00
   0.29000000E+00           0.10695185E+00
   0.30000000E+00           0.11326143E+00
   0.31000000E+00           0.12005961E+00
   0.32000000E+00           0.12683614E+00
   0.33000000E+00           0.13380264E+00
   0.34000000E+00           0.14078242E+00
   0.35000000E+00           0.14768964E+00
   0.36000000E+00           0.15481058E+00
   0.37000000E+00           0.16208733E+00
   0.38000000E+00           0.16951763E+00
   0.39000000E+00           0.17695912E+00
   0.40000000E+00           0.18429581E+00
   0.41000000E+00           0.19201625E+00
   0.42000000E+00           0.19960171E+00
   0.43000000E+00           0.20739449E+00
   0.44000000E+00           0.21508865E+00
   0.45000000E+00           0.22268463E+00
   0.46000000E+00           0.23027967E+00
   0.47000000E+00           0.23828479E+00
   0.48000000E+00           0.24622468E+00
   0.49000000E+00           0.25388485E+00
   0.50000000E+00           0.26175366E+00
   0.51000000E+00           0.26951399E+00
   0.52000000E+00           0.27755344E+00
   0.53000000E+00           0.28539284E+00
   0.54000000E+00           0.29337895E+00
   0.55000000E+00           0.30108435E+00
   0.56000000E+00           0.30903559E+00
   0.57000000E+00           0.31689096E+00
   0.58000000E+00           0.32445868E+00
   0.59000000E+00           0.33265581E+00
   0.60000000E+00           0.34009592E+00
   0.61000000E+00           0.34809702E+00
   0.62000000E+00           0.35550904E+00
   0.63000000E+00           0.36317609E+00
   0.64000000E+00           0.37085118E+00
   0.65000000E+00           0.37805796E+00
   0.66000000E+00           0.38553570E+00
   0.67000000E+00           0.39274534E+00
   0.68000000E+00           0.40011488E+00
   0.69000000E+00           0.40711587E+00
   0.70000000E+00           0.41486468E+00
   0.71000000E+00           0.42186623E+00
   0.72000000E+00           0.42876556E+00
   0.73000000E+00           0.43598799E+00
   0.74000000E+00           0.44253372E+00
   0.75000000E+00           0.44926215E+00
   0.76000000E+00           0.45605063E+00
   0.77000000E+00           0.46226942E+00
   0.78000000E+00           0.46888700E+00
   0.79000000E+00           0.47529912E+00
   0.80000000E+00           0.48168457E+00
   0.81000000E+00           0.48758623E+00
   0.82000000E+00           0.49373890E+00
   0.83000000E+00           0.49957879E+00
   0.84000000E+00           0.50532634E+00
   0.85000000E+00           0.51094843E+00
   0.86000000E+00           0.51692303E+00
   0.87000000E+00           0.52214419E+00
   0.88000000E+00           0.52781372E+00
   0.89000000E+00           0.53306386E+00
   0.90000000E+00           0.53784446E+00
   0.91000000E+00           0.54286617E+00
   0.92000000E+00           0.54772358E+00
   0.93000000E+00           0.55210314E+00
   0.94000000E+00           0.55730887E+00
   0.95000000E+00           0.56143961E+00
   0.96000000E+00           0.56549658E+00
   0.97000000E+00           0.57000837E+00
   0.98000000E+00           0.57380579E+00
   0.99000000E+00           0.57778000E+00
   0.10000000E+01           0.58131339E+00
   0.10100000E+01           0.58543025E+00
   0.10200000E+01           0.58873923E+00
   0.10300000E+01           0.59195207E+00
   0.10400000E+01           0.59513978E+00
   0.10500000E+01           0.59826220E+00
   0.10600000E+01           0.60126237E+00
   0.10700000E+01           0.60388882E+00
   0.10800000E+01           0.60651433E+00
   0.10900000E+01           0.60954397E+00
   0.11000000E+01           0.61138937E+00
   0.11100000E+01           0.61386854E+00
   0.11200000E+01           0.61610000E+00
   0.11300000E+01           0.61774683E+00
   0.11400000E+01           0.61938612E+00
   0.11500000E+01           0.62131063E+00
   0.11600000E+01           0.62275433E+00
   0.11700000E+01           0.62421945E+00
   0.11800000E+01           0.62557190E+00
   0.11900000E+01           0.62654854E+00
   0.12000000E+01           0.62759124E+00
   0.12100000E+01           0.62820309E+00
   0.12200000E+01           0.62905339E+00
   0.12300000E+01           0.62944898E+00
   0.12400000E+01           0.62965758E+00
   0.12500000E+01           0.63018501E+00
   0.12600000E+01           0.63003752E+00
   0.12700000E+01           0.63040408E+00
   0.12800000E+01           0.63033328E+00
   0.12900000E+01           0.62968766E+00
   0.13000000E+01           0.62941361E+00
   0.13100000E+01           0.62878507E+00
   0.13200000E+01           0.62804413E+00
   0.13300000E+01           0.62759879E+00
   0.13400000E+01           0.62680799E+00
   0.13500000E+01           0.62579647E+00
   0.13600000E+01           0.62479135E+00
   0.13700000E+01           0.62324606E+00
   0.13800000E+01           0.62175052E+00
   0.13900000E+01           0.62067603E+00
   0.14000000E+01           0.61866281E+00
   0.14100000E+01           0.61716865E+00
   0.14200000E+01           0.61547785E+00
   0.14300000E+01           0.61330215E+00
   0.14400000E+01           0.61108898E+00
   0.14500000E+01           0.60866160E+00
   0.14600000E+01           0.60628992E+00
   0.14700000E+01           0.60419906E+00
   0.14800000E+01           0.60162072E+00
   0.14900000E+01           0.59903818E+00
   0.15000000E+01           0.59632540E+00
   0.15100000E+01           0.59334545E+00
   0.15200000E+01           0.59039080E+00
   0.15300000E+01           0.58750667E+00
   0.15400000E+01           0.58455471E+00
   0.15500000E+01           0.58098270E+00
   0.15600000E+01           0.57768264E+00
   0.15700000E+01           0.57434606E+00
   0.15800000E+01           0.57101598E+00
   0.15900000E+01           0.56762700E+00
   0.16000000E+01           0.56368353E+00
   0.16100000E+01           0.55979532E+00
   0.16200000E+01           0.55632215E+00
   0.16300000E+01           0.55251609E+00
   0.16400000E+01           0.54833570E+00
   0.16500000E+01           0.54432264E+00
   0.16600000E+01           0.54052309E+00
   0.16700000E+01           0.53623091E+00
   0.16800000E+01           0.53182474E+00
   0.16900000E+01           0.52702033E+00
   0.17000000E+01           0.52308529E+00
   0.17100000E+01           0.51865846E+00
   0.17200000E+01           0.51426931E+00
   0.17300000E+01           0.50947466E+00
   0.17400000E+01           0.50505846E+00
   0.17500000E+01           0.49988843E+00
   0.17600000E+01           0.49545840E+00
   0.17700000E+01           0.49056237E+00
   0.17800000E+01           0.48590893E+00
   0.17900000E+01           0.48064083E+00
   0.18000000E+01           0.47584402E+00
   0.18100000E+01           0.47065377E+00
   0.18200000E+01           0.46601747E+00
   0.18300000E+01           0.46053636E+00
   0.18400000E+01           0.45569912E+00
   0.18500000E+01           0.45043008E+00
   0.18600000E+01           0.44519300E+00
   0.18700000E+01           0.43986556E+00
   0.18800000E+01           0.43446006E+00
   0.18900000E+01           0.42909052E+00
   0.19000000E+01           0.42416970E+00
   0.19100000E+01           0.41866512E+00
   0.19200000E+01           0.41305587E+00
   0.19300000E+01           0.40769785E+00
   0.19400000E+01           0.40233978E+00
   0.19500000E+01           0.39680072E+00
   0.19600000E+01           0.39111912E+00
   0.19700000E+01           0.38586397E+00
   0.19800000E+01           0.38039499E+00
   0.19900000E+01           0.37427449E+00
   0.20000000E+01           0.36892204E+00
   0.20100000E+01           0.36339372E+00
   0.20200000E+01           0.35786011E+00
   0.20300000E+01           0.35210468E+00
   0.20400000E+01           0.34668099E+00
   0.20500000E+01           0.34143300E+00
   0.20600000E+01           0.33592292E+00
   0.20700000E+01           0.33061267E+00
   0.20800000E+01           0.32530209E+00
   0.20900000E+01           0.32019559E+00
   0.21000000E+01           0.31491306E+00
   0.21100000E+01           0.30977427E+00
   0.21200000E+01           0.30455499E+00
   0.21300000E+01           0.29964639E+00
   0.21400000E+01           0.29455449E+00
   0.21500000E+01           0.28935427E+00
   0.21600000E+01           0.28459884E+00
   0.21700000E+01           0.27979030E+00
   0.21800000E+01           0.27490000E+00
   0.21900000E+01           0.26989234E+00
   0.22000000E+01           0.26561273E+00
   0.22100000E+01           0.26071642E+00
   0.22200000E+01           0.25602551E+00
   0.22300000E+01           0.25122000E+00
   0.22400000E+01           0.24692231E+00
   0.22500000E+01           0.24218298E+00
   0.22600000E+01           0.23798408E+00
   0.22700000E+01           0.23359240E+00
   0.22800000E+01           0.22903383E+00
   0.22900000E+01           0.22479625E+00
   0.23000000E+01           0.22072325E+00
   0.23100000E+01           0.21665482E+00
   0.23200000E+01           0.21246490E+00
   0.23300000E+01           0.20836088E+00
   0.23400000E+01           0.20420182E+00
   0.23500000E+01           0.20010353E+00
   0.23600000E+01           0.19623383E+00
   0.23700000E+01           0.19232121E+00
   0.23800000E+01           0.18845835E+00
   0.23900000E+01           0.18475631E+00
   0.24000000E+01           0.18107355E+00
   0.24100000E+01           0.17741196E+00
   0.24200000E+01           0.17381273E+00
   0.24300000E+01           0.17010110E+00
   0.24400000E+01           0.16657185E+00
   0.24500000E+01           0.16298744E+00
   0.24600000E+01           0.15957355E+00
   0.24700000E+01           0.15628672E+00
   0.24800000E+01           0.15299444E+00
   0.24900000E+01           0.14956656E+00
   0.25000000E+01           0.14620402E+00
   0.25100000E+01           0.14323818E+00
   0.25200000E+01           0.13986843E+00
   0.25300000E+01           0.13687355E+00
   0.25400000E+01           0.13380391E+00
   0.25500000E+01           0.13071399E+00
   0.25600000E+01           0.12774127E+00
   0.25700000E+01           0.12483989E+00
   0.25800000E+01           0.12190793E+00
   0.25900000E+01           0.11921201E+00
   0.26000000E+01           0.11643229E+00
   0.26100000E+01           0.11373394E+00
   0.26200000E+01           0.11095736E+00
   0.26300000E+01           0.10825421E+00
   0.26400000E+01           0.10572077E+00
   0.26500000E+01           0.10323680E+00
   0.26600000E+01           0.10060375E+00
   0.26700000E+01           0.98317686E-01
   0.26800000E+01           0.95849697E-01
   0.26900000E+01           0.93430854E-01
   0.27000000E+01           0.91165510E-01
   0.27100000E+01           0.88792287E-01
   0.27200000E+01           0.86619284E-01
   0.27300000E+01           0.84453939E-01
   0.27400000E+01           0.82178017E-01
   0.27500000E+01           0.80068540E-01
   0.27600000E+01           0.78060992E-01
   0.27700000E+01           0.75967438E-01
   0.27800000E+01           0.73970744E-01
   0.27900000E+01           0.72013664E-01
   0.28000000E+01           0.70039339E-01
   0.28100000E+01           0.68120937E-01
   0.28200000E+01           0.66228540E-01
   0.28300000E+01           0.64470523E-01
   0.28400000E+01           0.62813719E-01
   0.28500000E+01           0.60971956E-01
   0.28600000E+01           0.59272893E-01
   0.28700000E+01           0.57602204E-01
   0.28800000E+01           0.55902975E-01
   0.28900000E+01           0.54363526E-01
   0.29000000E+01           0.52786997E-01
   0.29100000E+01           0.51193113E-01
   0.29200000E+01           0.49783967E-01
   0.29300000E+01           0.48270909E-01
   0.29400000E+01           0.46756915E-01
   0.29500000E+01           0.45493884E-01
   0.29600000E+01           0.44003306E-01
   0.29700000E+01           0.42729366E-01
   0.29800000E+01           0.41431791E-01
   0.29900000E+01           0.40039174E-01
   0.30000000E+01           0.38869201E-01
   0.30100000E+01           0.37630028E-01
   0.30200000E+01           0.36414105E-01
   0.30300000E+01           0.35225675E-01
   0.30400000E+01           0.34140386E-01
   0.30500000E+01           0.32998898E-01
   0.30600000E+01           0.31862204E-01
   0.30700000E+01           0.30982094E-01
   0.30800000E+01           0.29851736E-01
   0.30900000E+01           0.28914105E-01
   0.31000000E+01           0.27919559E-01
   0.31100000E+01           0.26977686E-01
   0.31200000E+01           0.26008705E-01
   0.31300000E+01           0.25104353E-01
   0.31400000E+01           0.24189807E-01
   0.31500000E+01           0.23336694E-01
   0.31600000E+01           0.22542534E-01
   0.31700000E+01           0.21743361E-01
   0.31800000E+01           0.20921433E-01
   0.31900000E+01           0.20146226E-01
   0.32000000E+01           0.19426391E-01
   0.32100000E+01           0.18710634E-01
   0.32200000E+01           0.17971185E-01
   0.32300000E+01           0.17305179E-01
   0.32400000E+01           0.16581873E-01
   0.32500000E+01           0.16045950E-01
   0.32600000E+01           0.15331680E-01
   0.32700000E+01           0.14763912E-01
   0.32800000E+01           0.14169697E-01
   0.32900000E+01           0.13570468E-01
   0.33000000E+01           0.13070964E-01
   0.33100000E+01           0.12470028E-01
   0.33200000E+01           0.11955372E-01
   0.33300000E+01           0.11489587E-01
   0.33400000E+01           0.10942865E-01
   0.33500000E+01           0.10532452E-01
   0.33600000E+01           0.10080386E-01
   0.33700000E+01           0.96058402E-02
   0.33800000E+01           0.91533884E-02
   0.33900000E+01           0.86829752E-02
   0.34000000E+01           0.83436915E-02
   0.34100000E+01           0.79576309E-02
   0.34200000E+01           0.75819284E-02
   0.34300000E+01           0.71704683E-02
   0.34400000E+01           0.68651240E-02
   0.34500000E+01           0.65320661E-02
   0.34600000E+01           0.62127273E-02
   0.34700000E+01           0.59125620E-02
   0.34800000E+01           0.56043526E-02
   0.34900000E+01           0.53029752E-02
   0.35000000E+01           0.50413223E-02
   0.35100000E+01           0.47695868E-02
   0.35200000E+01           0.45009917E-02
   0.35300000E+01           0.42630303E-02
   0.35400000E+01           0.40197796E-02
   0.35500000E+01           0.37804959E-02
   0.35600000E+01           0.35774656E-02
   0.35700000E+01           0.33677686E-02
   0.35800000E+01           0.31562534E-02
   0.35900000E+01           0.29864463E-02
   0.36000000E+01           0.27664463E-02
   0.36100000E+01           0.26114050E-02
   0.36200000E+01           0.24409366E-02
   0.36300000E+01           0.22822039E-02
   0.36400000E+01           0.21198347E-02
   0.36500000E+01           0.19807713E-02
   0.36600000E+01           0.18530579E-02
   0.36700000E+01           0.17089807E-02
   0.36800000E+01           0.15751515E-02
   0.36900000E+01           0.14538292E-02
   0.37000000E+01           0.13398898E-02
   0.37100000E+01           0.12470523E-02
   0.37200000E+01           0.11405510E-02
   0.37300000E+01           0.10466116E-02
   0.37400000E+01           0.95834711E-03
   0.37500000E+01           0.86468320E-03
   0.37600000E+01           0.79410468E-03
   0.37700000E+01           0.72473829E-03
   0.37800000E+01           0.63862259E-03
   0.37900000E+01           0.58159780E-03
   0.38000000E+01           0.51647383E-03
   0.38100000E+01           0.45939394E-03
   0.38200000E+01           0.40473829E-03
   0.38300000E+01           0.35465565E-03
   0.38400000E+01           0.31272727E-03
   0.38500000E+01           0.26942149E-03
   0.38600000E+01           0.23691460E-03
   0.38700000E+01           0.19460055E-03
   0.38800000E+01           0.16523416E-03
   0.38900000E+01           0.13482094E-03
   0.39000000E+01           0.11305785E-03
   0.39100000E+01           0.85399449E-04
   0.39200000E+01           0.69531680E-04
   0.39300000E+01           0.51404959E-04
   0.39400000E+01           0.39834711E-04
   0.39500000E+01           0.23526171E-04
   0.39600000E+01           0.17465565E-04
   0.39700000E+01           0.88705234E-05
   0.39800000E+01           0.34159780E-05
   0.39900000E+01           0.14325069E-05
   0.40000000E+01           0.55096419E-07
