 #written on 13Aug2024 at 07:01:56 
 #----------------------------------------------- MONTECARLO ---------------------------------------------------#
 # Temp      Magnetization     Energy_ave          C_M              Sus              U_E              U_M       #
 #--------------------------------------------------------------------------------------------------------------#
 400.0000   0.97851290E-02  -0.49279616E+03   0.18841554E+01   0.93077788E-04   0.66590208E+00   0.44088072E+00
 401.0000   0.98042284E-02  -0.49083433E+03   0.18932473E+01   0.92998523E-04   0.66588840E+00   0.44161581E+00
 402.0000   0.98208099E-02  -0.48893899E+03   0.18916758E+01   0.93133758E-04   0.66587906E+00   0.44176419E+00
 403.0000   0.98393577E-02  -0.48708221E+03   0.19033378E+01   0.93200573E-04   0.66586430E+00   0.44159221E+00
 404.0000   0.98607013E-02  -0.48512767E+03   0.19145547E+01   0.93233885E-04   0.66584911E+00   0.44197655E+00
 405.0000   0.98671230E-02  -0.48324342E+03   0.19217810E+01   0.93170768E-04   0.66583535E+00   0.44160069E+00
 406.0000   0.98953927E-02  -0.48131962E+03   0.19337096E+01   0.93424060E-04   0.66581948E+00   0.44226316E+00
 407.0000   0.99020922E-02  -0.47934228E+03   0.19451893E+01   0.93547058E-04   0.66580314E+00   0.44211918E+00
 408.0000   0.99184596E-02  -0.47743325E+03   0.19616132E+01   0.93579776E-04   0.66578467E+00   0.44216346E+00
 409.0000   0.99498907E-02  -0.47546396E+03   0.19661474E+01   0.93719225E-04   0.66577098E+00   0.44221663E+00
 410.0000   0.99590245E-02  -0.47350861E+03   0.19718081E+01   0.93663217E-04   0.66575657E+00   0.44258355E+00
 411.0000   0.99768435E-02  -0.47153620E+03   0.19795989E+01   0.93670236E-04   0.66574090E+00   0.44208653E+00
 412.0000   0.10000071E-01  -0.46952963E+03   0.19993651E+01   0.93960705E-04   0.66571898E+00   0.44242688E+00
 413.0000   0.10010667E-01  -0.46754083E+03   0.20049296E+01   0.94024986E-04   0.66570349E+00   0.44206460E+00
 414.0000   0.10027350E-01  -0.46549511E+03   0.20112159E+01   0.93870325E-04   0.66568738E+00   0.44286717E+00
 415.0000   0.10038622E-01  -0.46351387E+03   0.20185086E+01   0.93955926E-04   0.66567076E+00   0.44253700E+00
 416.0000   0.10064980E-01  -0.46151561E+03   0.20339753E+01   0.94361785E-04   0.66564953E+00   0.44177447E+00
 417.0000   0.10087234E-01  -0.45946114E+03   0.20376191E+01   0.94002807E-04   0.66563360E+00   0.44359025E+00
 418.0000   0.10092933E-01  -0.45747167E+03   0.20481221E+01   0.94441129E-04   0.66561426E+00   0.44231638E+00
 419.0000   0.10113392E-01  -0.45538347E+03   0.20542399E+01   0.94491092E-04   0.66559626E+00   0.44272913E+00
 420.0000   0.10132282E-01  -0.45333197E+03   0.20689755E+01   0.94542588E-04   0.66557381E+00   0.44286810E+00
 421.0000   0.10151016E-01  -0.45121256E+03   0.20823733E+01   0.94436667E-04   0.66555103E+00   0.44293350E+00
 422.0000   0.10171132E-01  -0.44916151E+03   0.20985740E+01   0.94722590E-04   0.66552679E+00   0.44255237E+00
 423.0000   0.10185037E-01  -0.44707653E+03   0.21030252E+01   0.94711106E-04   0.66550838E+00   0.44318371E+00
 424.0000   0.10206401E-01  -0.44494309E+03   0.21185427E+01   0.94743531E-04   0.66548307E+00   0.44335775E+00
 425.0000   0.10217499E-01  -0.44280984E+03   0.21282576E+01   0.94912345E-04   0.66546044E+00   0.44290823E+00
 426.0000   0.10247821E-01  -0.44066189E+03   0.21497676E+01   0.95404951E-04   0.66543061E+00   0.44293076E+00
 427.0000   0.10250264E-01  -0.43858777E+03   0.21493259E+01   0.94964218E-04   0.66541334E+00   0.44303452E+00
 428.0000   0.10281423E-01  -0.43639320E+03   0.21668492E+01   0.95261355E-04   0.66538449E+00   0.44375892E+00
 429.0000   0.10292580E-01  -0.43421059E+03   0.21631086E+01   0.95472880E-04   0.66536774E+00   0.44293591E+00
 430.0000   0.10301512E-01  -0.43201281E+03   0.21856109E+01   0.95067020E-04   0.66533469E+00   0.44391595E+00
 431.0000   0.10319374E-01  -0.42988631E+03   0.22009589E+01   0.95287913E-04   0.66530596E+00   0.44327928E+00
 432.0000   0.10340601E-01  -0.42765232E+03   0.22192923E+01   0.95302292E-04   0.66527390E+00   0.44394326E+00
 433.0000   0.10361227E-01  -0.42543343E+03   0.22174207E+01   0.95429269E-04   0.66525398E+00   0.44393868E+00
 434.0000   0.10370132E-01  -0.42315958E+03   0.22416374E+01   0.95592725E-04   0.66521655E+00   0.44331155E+00
 435.0000   0.10398970E-01  -0.42085983E+03   0.22551925E+01   0.95813911E-04   0.66518549E+00   0.44352939E+00
 436.0000   0.10410523E-01  -0.41864145E+03   0.22712922E+01   0.95751103E-04   0.66515181E+00   0.44419088E+00
 437.0000   0.10431109E-01  -0.41642347E+03   0.22949753E+01   0.96200933E-04   0.66511280E+00   0.44351444E+00
 438.0000   0.10448975E-01  -0.41410693E+03   0.23062568E+01   0.96159160E-04   0.66508065E+00   0.44346354E+00
 439.0000   0.10468403E-01  -0.41180816E+03   0.23141550E+01   0.96187377E-04   0.66505014E+00   0.44387413E+00
 440.0000   0.10488187E-01  -0.40956900E+03   0.23178331E+01   0.96387168E-04   0.66502222E+00   0.44391205E+00
 441.0000   0.10502133E-01  -0.40721145E+03   0.23308527E+01   0.96549321E-04   0.66498600E+00   0.44328776E+00
 442.0000   0.10524544E-01  -0.40487392E+03   0.23472766E+01   0.96484701E-04   0.66494740E+00   0.44394262E+00
 443.0000   0.10544949E-01  -0.40248690E+03   0.23640493E+01   0.96622383E-04   0.66490637E+00   0.44413770E+00
 444.0000   0.10555850E-01  -0.40008035E+03   0.23800883E+01   0.96745907E-04   0.66486527E+00   0.44421127E+00
 445.0000   0.10573830E-01  -0.39776145E+03   0.23950790E+01   0.96769250E-04   0.66482421E+00   0.44415894E+00
 446.0000   0.10590213E-01  -0.39535515E+03   0.24072794E+01   0.96744335E-04   0.66478442E+00   0.44421206E+00
 447.0000   0.10605672E-01  -0.39288890E+03   0.24196227E+01   0.96992204E-04   0.66474183E+00   0.44364960E+00
 448.0000   0.10627453E-01  -0.39051210E+03   0.24271097E+01   0.97063993E-04   0.66470368E+00   0.44412134E+00
 449.0000   0.10647125E-01  -0.38807488E+03   0.24330321E+01   0.97183277E-04   0.66466498E+00   0.44434447E+00
 450.0000   0.10660684E-01  -0.38559334E+03   0.24489243E+01   0.97385628E-04   0.66461687E+00   0.44385781E+00
 451.0000   0.10672427E-01  -0.38313589E+03   0.24551907E+01   0.97280436E-04   0.66457594E+00   0.44410207E+00
 452.0000   0.10702929E-01  -0.38068944E+03   0.24733993E+01   0.97537634E-04   0.66452318E+00   0.44439211E+00
 453.0000   0.10719583E-01  -0.37827959E+03   0.24612436E+01   0.97620658E-04   0.66449600E+00   0.44437629E+00
 454.0000   0.10735970E-01  -0.37577458E+03   0.24662800E+01   0.97816375E-04   0.66445274E+00   0.44420461E+00
 455.0000   0.10744902E-01  -0.37331486E+03   0.24734534E+01   0.97537092E-04   0.66440650E+00   0.44462080E+00
 456.0000   0.10777577E-01  -0.37088814E+03   0.24780664E+01   0.97897108E-04   0.66436102E+00   0.44425956E+00
 457.0000   0.10789241E-01  -0.36841716E+03   0.24537263E+01   0.97997164E-04   0.66434214E+00   0.44441843E+00
 458.0000   0.10801648E-01  -0.36598958E+03   0.24393810E+01   0.98194418E-04   0.66431451E+00   0.44355333E+00
 459.0000   0.10824993E-01  -0.36349689E+03   0.24343179E+01   0.98358496E-04   0.66427478E+00   0.44390320E+00
 460.0000   0.10847208E-01  -0.36104425E+03   0.24122082E+01   0.98381424E-04   0.66425322E+00   0.44399252E+00
 461.0000   0.10868985E-01  -0.35869469E+03   0.23680488E+01   0.98355880E-04   0.66425441E+00   0.44494550E+00
 462.0000   0.10890715E-01  -0.35631756E+03   0.23480621E+01   0.98928500E-04   0.66423109E+00   0.44383547E+00
 463.0000   0.10897367E-01  -0.35405678E+03   0.23277039E+01   0.98675071E-04   0.66420875E+00   0.44412552E+00
 464.0000   0.10912907E-01  -0.35169682E+03   0.22847211E+01   0.98714159E-04   0.66420983E+00   0.44478444E+00
 465.0000   0.10935100E-01  -0.34941413E+03   0.22393114E+01   0.99038025E-04   0.66421495E+00   0.44402640E+00
 466.0000   0.10945493E-01  -0.34718844E+03   0.21981836E+01   0.99177533E-04   0.66421723E+00   0.44436203E+00
 467.0000   0.10958866E-01  -0.34505169E+03   0.21587110E+01   0.99039634E-04   0.66421999E+00   0.44456163E+00
 468.0000   0.10976245E-01  -0.34288767E+03   0.21044242E+01   0.98941181E-04   0.66423887E+00   0.44475093E+00
 469.0000   0.11002393E-01  -0.34080628E+03   0.20544180E+01   0.99437888E-04   0.66425703E+00   0.44390552E+00
 470.0000   0.11001481E-01  -0.33879033E+03   0.20005261E+01   0.99212127E-04   0.66428136E+00   0.44377588E+00
 471.0000   0.11027550E-01  -0.33684265E+03   0.19540023E+01   0.99567866E-04   0.66429851E+00   0.44403423E+00
 472.0000   0.11050731E-01  -0.33491490E+03   0.18986067E+01   0.99354403E-04   0.66432927E+00   0.44542453E+00
 473.0000   0.11053970E-01  -0.33304627E+03   0.18410202E+01   0.99443188E-04   0.66436415E+00   0.44390955E+00
 474.0000   0.11075506E-01  -0.33119502E+03   0.17899559E+01   0.99626230E-04   0.66439303E+00   0.44437497E+00
 475.0000   0.11092654E-01  -0.32944836E+03   0.17470837E+01   0.99476710E-04   0.66441396E+00   0.44474443E+00
 476.0000   0.11108681E-01  -0.32765339E+03   0.16997708E+01   0.99636721E-04   0.66444168E+00   0.44465483E+00
 477.0000   0.11121273E-01  -0.32599353E+03   0.16498117E+01   0.10002662E-03   0.66447633E+00   0.44347715E+00
 478.0000   0.11126321E-01  -0.32435991E+03   0.16115486E+01   0.99760725E-04   0.66449607E+00   0.44403221E+00
 479.0000   0.11143302E-01  -0.32279396E+03   0.15719620E+01   0.99813650E-04   0.66452008E+00   0.44452281E+00
 480.0000   0.11158626E-01  -0.32127451E+03   0.15347713E+01   0.99859931E-04   0.66454211E+00   0.44416462E+00
 481.0000   0.11166672E-01  -0.31973384E+03   0.14965923E+01   0.99742053E-04   0.66456689E+00   0.44431114E+00
 482.0000   0.11188506E-01  -0.31821340E+03   0.14616601E+01   0.99808688E-04   0.66458715E+00   0.44487449E+00
 483.0000   0.11201491E-01  -0.31678634E+03   0.14280573E+01   0.99960933E-04   0.66460847E+00   0.44445030E+00
 484.0000   0.11214070E-01  -0.31534380E+03   0.13945786E+01   0.10022696E-03   0.66463048E+00   0.44362015E+00
 485.0000   0.11221656E-01  -0.31398876E+03   0.13624404E+01   0.10010850E-03   0.66465223E+00   0.44389220E+00
 486.0000   0.11238353E-01  -0.31268680E+03   0.13362671E+01   0.99979680E-04   0.66466658E+00   0.44440623E+00
 487.0000   0.11248510E-01  -0.31134510E+03   0.13057996E+01   0.10000288E-03   0.66468770E+00   0.44414356E+00
 488.0000   0.11267346E-01  -0.31003731E+03   0.12766192E+01   0.10001767E-03   0.66470757E+00   0.44496390E+00
 489.0000   0.11275921E-01  -0.30879243E+03   0.12559260E+01   0.10009112E-03   0.66471583E+00   0.44404756E+00
 490.0000   0.11288546E-01  -0.30751576E+03   0.12289567E+01   0.10019994E-03   0.66473403E+00   0.44427024E+00
 491.0000   0.11303774E-01  -0.30630443E+03   0.12051325E+01   0.99899409E-04   0.66474957E+00   0.44501216E+00
 492.0000   0.11316881E-01  -0.30514016E+03   0.11822868E+01   0.10002524E-03   0.66476398E+00   0.44446074E+00
 493.0000   0.11324014E-01  -0.30395615E+03   0.11654498E+01   0.10011950E-03   0.66476915E+00   0.44452811E+00
 494.0000   0.11343223E-01  -0.30276924E+03   0.11472949E+01   0.10038013E-03   0.66477645E+00   0.44401848E+00
 495.0000   0.11347397E-01  -0.30163422E+03   0.11293751E+01   0.10016121E-03   0.66478476E+00   0.44438476E+00
 496.0000   0.11357596E-01  -0.30052998E+03   0.11094658E+01   0.99967668E-04   0.66479714E+00   0.44470292E+00
 497.0000   0.11370902E-01  -0.29939758E+03   0.10927181E+01   0.10026589E-03   0.66480420E+00   0.44393478E+00
 498.0000   0.11388932E-01  -0.29834800E+03   0.10786944E+01   0.10013900E-03   0.66480742E+00   0.44492239E+00
 499.0000   0.11397423E-01  -0.29729599E+03   0.10623649E+01   0.10013445E-03   0.66481547E+00   0.44428140E+00
