 #written on 13Aug2024 at 07:01:56 
 #----------------- MONTECARLO -------------------#
 #        M                      P(M)             #
 #------------------------------------------------#
 #T=   400.0000
  -0.40000000E+01           0.00000000E+00
  -0.39900000E+01           0.00000000E+00
  -0.39800000E+01           0.00000000E+00
  -0.39700000E+01           0.00000000E+00
  -0.39600000E+01           0.00000000E+00
  -0.39500000E+01           0.00000000E+00
  -0.39400000E+01           0.00000000E+00
  -0.39300000E+01           0.00000000E+00
  -0.39200000E+01           0.00000000E+00
  -0.39100000E+01           0.00000000E+00
  -0.39000000E+01           0.00000000E+00
  -0.38900000E+01           0.00000000E+00
  -0.38800000E+01           0.00000000E+00
  -0.38700000E+01           0.00000000E+00
  -0.38600000E+01           0.00000000E+00
  -0.38500000E+01           0.00000000E+00
  -0.38400000E+01           0.00000000E+00
  -0.38300000E+01           0.00000000E+00
  -0.38200000E+01           0.00000000E+00
  -0.38100000E+01           0.00000000E+00
  -0.38000000E+01           0.00000000E+00
  -0.37900000E+01           0.00000000E+00
  -0.37800000E+01           0.00000000E+00
  -0.37700000E+01           0.00000000E+00
  -0.37600000E+01           0.00000000E+00
  -0.37500000E+01           0.00000000E+00
  -0.37400000E+01           0.00000000E+00
  -0.37300000E+01           0.00000000E+00
  -0.37200000E+01           0.00000000E+00
  -0.37100000E+01           0.00000000E+00
  -0.37000000E+01           0.00000000E+00
  -0.36900000E+01           0.00000000E+00
  -0.36800000E+01           0.00000000E+00
  -0.36700000E+01           0.00000000E+00
  -0.36600000E+01           0.00000000E+00
  -0.36500000E+01           0.00000000E+00
  -0.36400000E+01           0.00000000E+00
  -0.36300000E+01           0.00000000E+00
  -0.36200000E+01           0.00000000E+00
  -0.36100000E+01           0.00000000E+00
  -0.36000000E+01           0.00000000E+00
  -0.35900000E+01           0.00000000E+00
  -0.35800000E+01           0.00000000E+00
  -0.35700000E+01           0.00000000E+00
  -0.35600000E+01           0.00000000E+00
  -0.35500000E+01           0.00000000E+00
  -0.35400000E+01           0.00000000E+00
  -0.35300000E+01           0.00000000E+00
  -0.35200000E+01           0.00000000E+00
  -0.35100000E+01           0.00000000E+00
  -0.35000000E+01           0.00000000E+00
  -0.34900000E+01           0.00000000E+00
  -0.34800000E+01           0.00000000E+00
  -0.34700000E+01           0.00000000E+00
  -0.34600000E+01           0.00000000E+00
  -0.34500000E+01           0.00000000E+00
  -0.34400000E+01           0.00000000E+00
  -0.34300000E+01           0.00000000E+00
  -0.34200000E+01           0.00000000E+00
  -0.34100000E+01           0.00000000E+00
  -0.34000000E+01           0.00000000E+00
  -0.33900000E+01           0.00000000E+00
  -0.33800000E+01           0.00000000E+00
  -0.33700000E+01           0.00000000E+00
  -0.33600000E+01           0.00000000E+00
  -0.33500000E+01           0.00000000E+00
  -0.33400000E+01           0.00000000E+00
  -0.33300000E+01           0.00000000E+00
  -0.33200000E+01           0.00000000E+00
  -0.33100000E+01           0.00000000E+00
  -0.33000000E+01           0.00000000E+00
  -0.32900000E+01           0.00000000E+00
  -0.32800000E+01           0.00000000E+00
  -0.32700000E+01           0.00000000E+00
  -0.32600000E+01           0.00000000E+00
  -0.32500000E+01           0.00000000E+00
  -0.32400000E+01           0.00000000E+00
  -0.32300000E+01           0.00000000E+00
  -0.32200000E+01           0.00000000E+00
  -0.32100000E+01           0.00000000E+00
  -0.32000000E+01           0.00000000E+00
  -0.31900000E+01           0.00000000E+00
  -0.31800000E+01           0.00000000E+00
  -0.31700000E+01           0.00000000E+00
  -0.31600000E+01           0.00000000E+00
  -0.31500000E+01           0.00000000E+00
  -0.31400000E+01           0.00000000E+00
  -0.31300000E+01           0.00000000E+00
  -0.31200000E+01           0.00000000E+00
  -0.31100000E+01           0.00000000E+00
  -0.31000000E+01           0.00000000E+00
  -0.30900000E+01           0.00000000E+00
  -0.30800000E+01           0.00000000E+00
  -0.30700000E+01           0.00000000E+00
  -0.30600000E+01           0.00000000E+00
  -0.30500000E+01           0.00000000E+00
  -0.30400000E+01           0.00000000E+00
  -0.30300000E+01           0.00000000E+00
  -0.30200000E+01           0.00000000E+00
  -0.30100000E+01           0.00000000E+00
  -0.30000000E+01           0.00000000E+00
  -0.29900000E+01           0.00000000E+00
  -0.29800000E+01           0.00000000E+00
  -0.29700000E+01           0.00000000E+00
  -0.29600000E+01           0.00000000E+00
  -0.29500000E+01           0.00000000E+00
  -0.29400000E+01           0.00000000E+00
  -0.29300000E+01           0.00000000E+00
  -0.29200000E+01           0.00000000E+00
  -0.29100000E+01           0.00000000E+00
  -0.29000000E+01           0.00000000E+00
  -0.28900000E+01           0.00000000E+00
  -0.28800000E+01           0.00000000E+00
  -0.28700000E+01           0.00000000E+00
  -0.28600000E+01           0.00000000E+00
  -0.28500000E+01           0.00000000E+00
  -0.28400000E+01           0.00000000E+00
  -0.28300000E+01           0.00000000E+00
  -0.28200000E+01           0.00000000E+00
  -0.28100000E+01           0.00000000E+00
  -0.28000000E+01           0.00000000E+00
  -0.27900000E+01           0.00000000E+00
  -0.27800000E+01           0.00000000E+00
  -0.27700000E+01           0.00000000E+00
  -0.27600000E+01           0.00000000E+00
  -0.27500000E+01           0.00000000E+00
  -0.27400000E+01           0.00000000E+00
  -0.27300000E+01           0.00000000E+00
  -0.27200000E+01           0.00000000E+00
  -0.27100000E+01           0.00000000E+00
  -0.27000000E+01           0.00000000E+00
  -0.26900000E+01           0.00000000E+00
  -0.26800000E+01           0.00000000E+00
  -0.26700000E+01           0.00000000E+00
  -0.26600000E+01           0.00000000E+00
  -0.26500000E+01           0.00000000E+00
  -0.26400000E+01           0.00000000E+00
  -0.26300000E+01           0.00000000E+00
  -0.26200000E+01           0.00000000E+00
  -0.26100000E+01           0.00000000E+00
  -0.26000000E+01           0.00000000E+00
  -0.25900000E+01           0.00000000E+00
  -0.25800000E+01           0.00000000E+00
  -0.25700000E+01           0.00000000E+00
  -0.25600000E+01           0.00000000E+00
  -0.25500000E+01           0.00000000E+00
  -0.25400000E+01           0.00000000E+00
  -0.25300000E+01           0.00000000E+00
  -0.25200000E+01           0.00000000E+00
  -0.25100000E+01           0.00000000E+00
  -0.25000000E+01           0.00000000E+00
  -0.24900000E+01           0.00000000E+00
  -0.24800000E+01           0.00000000E+00
  -0.24700000E+01           0.00000000E+00
  -0.24600000E+01           0.00000000E+00
  -0.24500000E+01           0.00000000E+00
  -0.24400000E+01           0.00000000E+00
  -0.24300000E+01           0.00000000E+00
  -0.24200000E+01           0.00000000E+00
  -0.24100000E+01           0.00000000E+00
  -0.24000000E+01           0.00000000E+00
  -0.23900000E+01           0.00000000E+00
  -0.23800000E+01           0.00000000E+00
  -0.23700000E+01           0.00000000E+00
  -0.23600000E+01           0.00000000E+00
  -0.23500000E+01           0.00000000E+00
  -0.23400000E+01           0.00000000E+00
  -0.23300000E+01           0.00000000E+00
  -0.23200000E+01           0.00000000E+00
  -0.23100000E+01           0.00000000E+00
  -0.23000000E+01           0.00000000E+00
  -0.22900000E+01           0.00000000E+00
  -0.22800000E+01           0.00000000E+00
  -0.22700000E+01           0.00000000E+00
  -0.22600000E+01           0.00000000E+00
  -0.22500000E+01           0.00000000E+00
  -0.22400000E+01           0.00000000E+00
  -0.22300000E+01           0.00000000E+00
  -0.22200000E+01           0.00000000E+00
  -0.22100000E+01           0.00000000E+00
  -0.22000000E+01           0.00000000E+00
  -0.21900000E+01           0.00000000E+00
  -0.21800000E+01           0.00000000E+00
  -0.21700000E+01           0.00000000E+00
  -0.21600000E+01           0.00000000E+00
  -0.21500000E+01           0.00000000E+00
  -0.21400000E+01           0.00000000E+00
  -0.21300000E+01           0.00000000E+00
  -0.21200000E+01           0.00000000E+00
  -0.21100000E+01           0.00000000E+00
  -0.21000000E+01           0.00000000E+00
  -0.20900000E+01           0.00000000E+00
  -0.20800000E+01           0.00000000E+00
  -0.20700000E+01           0.00000000E+00
  -0.20600000E+01           0.00000000E+00
  -0.20500000E+01           0.00000000E+00
  -0.20400000E+01           0.00000000E+00
  -0.20300000E+01           0.00000000E+00
  -0.20200000E+01           0.00000000E+00
  -0.20100000E+01           0.00000000E+00
  -0.20000000E+01           0.00000000E+00
  -0.19900000E+01           0.00000000E+00
  -0.19800000E+01           0.00000000E+00
  -0.19700000E+01           0.00000000E+00
  -0.19600000E+01           0.00000000E+00
  -0.19500000E+01           0.00000000E+00
  -0.19400000E+01           0.00000000E+00
  -0.19300000E+01           0.00000000E+00
  -0.19200000E+01           0.00000000E+00
  -0.19100000E+01           0.00000000E+00
  -0.19000000E+01           0.00000000E+00
  -0.18900000E+01           0.00000000E+00
  -0.18800000E+01           0.00000000E+00
  -0.18700000E+01           0.00000000E+00
  -0.18600000E+01           0.00000000E+00
  -0.18500000E+01           0.00000000E+00
  -0.18400000E+01           0.00000000E+00
  -0.18300000E+01           0.00000000E+00
  -0.18200000E+01           0.00000000E+00
  -0.18100000E+01           0.00000000E+00
  -0.18000000E+01           0.00000000E+00
  -0.17900000E+01           0.00000000E+00
  -0.17800000E+01           0.00000000E+00
  -0.17700000E+01           0.00000000E+00
  -0.17600000E+01           0.00000000E+00
  -0.17500000E+01           0.00000000E+00
  -0.17400000E+01           0.00000000E+00
  -0.17300000E+01           0.00000000E+00
  -0.17200000E+01           0.00000000E+00
  -0.17100000E+01           0.00000000E+00
  -0.17000000E+01           0.00000000E+00
  -0.16900000E+01           0.00000000E+00
  -0.16800000E+01           0.00000000E+00
  -0.16700000E+01           0.00000000E+00
  -0.16600000E+01           0.00000000E+00
  -0.16500000E+01           0.00000000E+00
  -0.16400000E+01           0.00000000E+00
  -0.16300000E+01           0.00000000E+00
  -0.16200000E+01           0.00000000E+00
  -0.16100000E+01           0.00000000E+00
  -0.16000000E+01           0.00000000E+00
  -0.15900000E+01           0.00000000E+00
  -0.15800000E+01           0.00000000E+00
  -0.15700000E+01           0.00000000E+00
  -0.15600000E+01           0.00000000E+00
  -0.15500000E+01           0.00000000E+00
  -0.15400000E+01           0.00000000E+00
  -0.15300000E+01           0.00000000E+00
  -0.15200000E+01           0.00000000E+00
  -0.15100000E+01           0.00000000E+00
  -0.15000000E+01           0.00000000E+00
  -0.14900000E+01           0.00000000E+00
  -0.14800000E+01           0.00000000E+00
  -0.14700000E+01           0.00000000E+00
  -0.14600000E+01           0.00000000E+00
  -0.14500000E+01           0.00000000E+00
  -0.14400000E+01           0.00000000E+00
  -0.14300000E+01           0.00000000E+00
  -0.14200000E+01           0.00000000E+00
  -0.14100000E+01           0.00000000E+00
  -0.14000000E+01           0.00000000E+00
  -0.13900000E+01           0.00000000E+00
  -0.13800000E+01           0.00000000E+00
  -0.13700000E+01           0.00000000E+00
  -0.13600000E+01           0.00000000E+00
  -0.13500000E+01           0.00000000E+00
  -0.13400000E+01           0.00000000E+00
  -0.13300000E+01           0.00000000E+00
  -0.13200000E+01           0.00000000E+00
  -0.13100000E+01           0.00000000E+00
  -0.13000000E+01           0.00000000E+00
  -0.12900000E+01           0.00000000E+00
  -0.12800000E+01           0.00000000E+00
  -0.12700000E+01           0.00000000E+00
  -0.12600000E+01           0.00000000E+00
  -0.12500000E+01           0.00000000E+00
  -0.12400000E+01           0.00000000E+00
  -0.12300000E+01           0.00000000E+00
  -0.12200000E+01           0.00000000E+00
  -0.12100000E+01           0.00000000E+00
  -0.12000000E+01           0.00000000E+00
  -0.11900000E+01           0.00000000E+00
  -0.11800000E+01           0.00000000E+00
  -0.11700000E+01           0.00000000E+00
  -0.11600000E+01           0.00000000E+00
  -0.11500000E+01           0.00000000E+00
  -0.11400000E+01           0.00000000E+00
  -0.11300000E+01           0.00000000E+00
  -0.11200000E+01           0.00000000E+00
  -0.11100000E+01           0.00000000E+00
  -0.11000000E+01           0.00000000E+00
  -0.10900000E+01           0.00000000E+00
  -0.10800000E+01           0.00000000E+00
  -0.10700000E+01           0.00000000E+00
  -0.10600000E+01           0.00000000E+00
  -0.10500000E+01           0.00000000E+00
  -0.10400000E+01           0.00000000E+00
  -0.10300000E+01           0.00000000E+00
  -0.10200000E+01           0.00000000E+00
  -0.10100000E+01           0.00000000E+00
  -0.10000000E+01           0.00000000E+00
  -0.99000000E+00           0.00000000E+00
  -0.98000000E+00           0.00000000E+00
  -0.97000000E+00           0.00000000E+00
  -0.96000000E+00           0.00000000E+00
  -0.95000000E+00           0.00000000E+00
  -0.94000000E+00           0.00000000E+00
  -0.93000000E+00           0.00000000E+00
  -0.92000000E+00           0.00000000E+00
  -0.91000000E+00           0.00000000E+00
  -0.90000000E+00           0.00000000E+00
  -0.89000000E+00           0.00000000E+00
  -0.88000000E+00           0.00000000E+00
  -0.87000000E+00           0.00000000E+00
  -0.86000000E+00           0.00000000E+00
  -0.85000000E+00           0.00000000E+00
  -0.84000000E+00           0.00000000E+00
  -0.83000000E+00           0.00000000E+00
  -0.82000000E+00           0.00000000E+00
  -0.81000000E+00           0.00000000E+00
  -0.80000000E+00           0.00000000E+00
  -0.79000000E+00           0.00000000E+00
  -0.78000000E+00           0.00000000E+00
  -0.77000000E+00           0.00000000E+00
  -0.76000000E+00           0.00000000E+00
  -0.75000000E+00           0.00000000E+00
  -0.74000000E+00           0.00000000E+00
  -0.73000000E+00           0.00000000E+00
  -0.72000000E+00           0.00000000E+00
  -0.71000000E+00           0.00000000E+00
  -0.70000000E+00           0.00000000E+00
  -0.69000000E+00           0.00000000E+00
  -0.68000000E+00           0.00000000E+00
  -0.67000000E+00           0.00000000E+00
  -0.66000000E+00           0.00000000E+00
  -0.65000000E+00           0.00000000E+00
  -0.64000000E+00           0.00000000E+00
  -0.63000000E+00           0.00000000E+00
  -0.62000000E+00           0.00000000E+00
  -0.61000000E+00           0.00000000E+00
  -0.60000000E+00           0.00000000E+00
  -0.59000000E+00           0.00000000E+00
  -0.58000000E+00           0.00000000E+00
  -0.57000000E+00           0.00000000E+00
  -0.56000000E+00           0.00000000E+00
  -0.55000000E+00           0.00000000E+00
  -0.54000000E+00           0.00000000E+00
  -0.53000000E+00           0.00000000E+00
  -0.52000000E+00           0.00000000E+00
  -0.51000000E+00           0.00000000E+00
  -0.50000000E+00           0.00000000E+00
  -0.49000000E+00           0.00000000E+00
  -0.48000000E+00           0.00000000E+00
  -0.47000000E+00           0.00000000E+00
  -0.46000000E+00           0.00000000E+00
  -0.45000000E+00           0.00000000E+00
  -0.44000000E+00           0.00000000E+00
  -0.43000000E+00           0.00000000E+00
  -0.42000000E+00           0.00000000E+00
  -0.41000000E+00           0.00000000E+00
  -0.40000000E+00           0.00000000E+00
  -0.39000000E+00           0.00000000E+00
  -0.38000000E+00           0.00000000E+00
  -0.37000000E+00           0.00000000E+00
  -0.36000000E+00           0.00000000E+00
  -0.35000000E+00           0.00000000E+00
  -0.34000000E+00           0.00000000E+00
  -0.33000000E+00           0.00000000E+00
  -0.32000000E+00           0.00000000E+00
  -0.31000000E+00           0.00000000E+00
  -0.30000000E+00           0.00000000E+00
  -0.29000000E+00           0.00000000E+00
  -0.28000000E+00           0.00000000E+00
  -0.27000000E+00           0.00000000E+00
  -0.26000000E+00           0.00000000E+00
  -0.25000000E+00           0.00000000E+00
  -0.24000000E+00           0.00000000E+00
  -0.23000000E+00           0.00000000E+00
  -0.22000000E+00           0.00000000E+00
  -0.21000000E+00           0.00000000E+00
  -0.20000000E+00           0.00000000E+00
  -0.19000000E+00           0.00000000E+00
  -0.18000000E+00           0.00000000E+00
  -0.17000000E+00           0.00000000E+00
  -0.16000000E+00           0.00000000E+00
  -0.15000000E+00           0.00000000E+00
  -0.14000000E+00           0.00000000E+00
  -0.13000000E+00           0.00000000E+00
  -0.12000000E+00           0.00000000E+00
  -0.11000000E+00           0.00000000E+00
  -0.10000000E+00           0.00000000E+00
  -0.90000000E-01           0.00000000E+00
  -0.80000000E-01           0.00000000E+00
  -0.70000000E-01           0.00000000E+00
  -0.60000000E-01           0.00000000E+00
  -0.50000000E-01           0.00000000E+00
  -0.40000000E-01           0.00000000E+00
  -0.30000000E-01           0.00000000E+00
  -0.20000000E-01           0.00000000E+00
  -0.10000000E-01           0.00000000E+00
   0.00000000E+00           0.10925926E-04
   0.10000000E-01           0.39425926E-03
   0.20000000E-01           0.14562963E-02
   0.30000000E-01           0.31866667E-02
   0.40000000E-01           0.55846296E-02
   0.50000000E-01           0.85488889E-02
   0.60000000E-01           0.12109259E-01
   0.70000000E-01           0.16270185E-01
   0.80000000E-01           0.20999815E-01
   0.90000000E-01           0.26188333E-01
   0.10000000E+00           0.31796296E-01
   0.11000000E+00           0.38241667E-01
   0.12000000E+00           0.44703704E-01
   0.13000000E+00           0.51851296E-01
   0.14000000E+00           0.59085000E-01
   0.15000000E+00           0.67194630E-01
   0.16000000E+00           0.75286852E-01
   0.17000000E+00           0.83644074E-01
   0.18000000E+00           0.92847407E-01
   0.19000000E+00           0.10172037E+00
   0.20000000E+00           0.11135333E+00
   0.21000000E+00           0.12097370E+00
   0.22000000E+00           0.13073426E+00
   0.23000000E+00           0.14098519E+00
   0.24000000E+00           0.15138907E+00
   0.25000000E+00           0.16180278E+00
   0.26000000E+00           0.17257167E+00
   0.27000000E+00           0.18347093E+00
   0.28000000E+00           0.19450537E+00
   0.29000000E+00           0.20617981E+00
   0.30000000E+00           0.21705907E+00
   0.31000000E+00           0.22844444E+00
   0.32000000E+00           0.23964315E+00
   0.33000000E+00           0.25112685E+00
   0.34000000E+00           0.26267741E+00
   0.35000000E+00           0.27459630E+00
   0.36000000E+00           0.28615019E+00
   0.37000000E+00           0.29822685E+00
   0.38000000E+00           0.30953500E+00
   0.39000000E+00           0.32125444E+00
   0.40000000E+00           0.33292130E+00
   0.41000000E+00           0.34413722E+00
   0.42000000E+00           0.35627685E+00
   0.43000000E+00           0.36786093E+00
   0.44000000E+00           0.37953426E+00
   0.45000000E+00           0.39063815E+00
   0.46000000E+00           0.40210204E+00
   0.47000000E+00           0.41285222E+00
   0.48000000E+00           0.42420556E+00
   0.49000000E+00           0.43529111E+00
   0.50000000E+00           0.44567889E+00
   0.51000000E+00           0.45749278E+00
   0.52000000E+00           0.46788352E+00
   0.53000000E+00           0.47854500E+00
   0.54000000E+00           0.48902185E+00
   0.55000000E+00           0.49873981E+00
   0.56000000E+00           0.50822889E+00
   0.57000000E+00           0.51890241E+00
   0.58000000E+00           0.52865148E+00
   0.59000000E+00           0.53764981E+00
   0.60000000E+00           0.54713926E+00
   0.61000000E+00           0.55732259E+00
   0.62000000E+00           0.56504296E+00
   0.63000000E+00           0.57439852E+00
   0.64000000E+00           0.58218593E+00
   0.65000000E+00           0.59168444E+00
   0.66000000E+00           0.59965500E+00
   0.67000000E+00           0.60777444E+00
   0.68000000E+00           0.61565722E+00
   0.69000000E+00           0.62245630E+00
   0.70000000E+00           0.63000370E+00
   0.71000000E+00           0.63727889E+00
   0.72000000E+00           0.64378926E+00
   0.73000000E+00           0.65083481E+00
   0.74000000E+00           0.65755722E+00
   0.75000000E+00           0.66275685E+00
   0.76000000E+00           0.66866685E+00
   0.77000000E+00           0.67417537E+00
   0.78000000E+00           0.67954296E+00
   0.79000000E+00           0.68520519E+00
   0.80000000E+00           0.69016185E+00
   0.81000000E+00           0.69412222E+00
   0.82000000E+00           0.69919778E+00
   0.83000000E+00           0.70298426E+00
   0.84000000E+00           0.70756296E+00
   0.85000000E+00           0.71089463E+00
   0.86000000E+00           0.71451074E+00
   0.87000000E+00           0.71755222E+00
   0.88000000E+00           0.72045574E+00
   0.89000000E+00           0.72337611E+00
   0.90000000E+00           0.72616130E+00
   0.91000000E+00           0.72909259E+00
   0.92000000E+00           0.73092722E+00
   0.93000000E+00           0.73203074E+00
   0.94000000E+00           0.73379315E+00
   0.95000000E+00           0.73488259E+00
   0.96000000E+00           0.73561722E+00
   0.97000000E+00           0.73707537E+00
   0.98000000E+00           0.73796648E+00
   0.99000000E+00           0.73822130E+00
   0.10000000E+01           0.73768722E+00
   0.10100000E+01           0.73777426E+00
   0.10200000E+01           0.73708981E+00
   0.10300000E+01           0.73734574E+00
   0.10400000E+01           0.73640093E+00
   0.10500000E+01           0.73580370E+00
   0.10600000E+01           0.73401722E+00
   0.10700000E+01           0.73335833E+00
   0.10800000E+01           0.73177222E+00
   0.10900000E+01           0.72946556E+00
   0.11000000E+01           0.72808648E+00
   0.11100000E+01           0.72586648E+00
   0.11200000E+01           0.72328315E+00
   0.11300000E+01           0.72093000E+00
   0.11400000E+01           0.71827519E+00
   0.11500000E+01           0.71555148E+00
   0.11600000E+01           0.71216148E+00
   0.11700000E+01           0.70975648E+00
   0.11800000E+01           0.70578019E+00
   0.11900000E+01           0.70248593E+00
   0.12000000E+01           0.69905722E+00
   0.12100000E+01           0.69411333E+00
   0.12200000E+01           0.69122500E+00
   0.12300000E+01           0.68739926E+00
   0.12400000E+01           0.68365185E+00
   0.12500000E+01           0.67850981E+00
   0.12600000E+01           0.67398704E+00
   0.12700000E+01           0.66884537E+00
   0.12800000E+01           0.66410833E+00
   0.12900000E+01           0.65932704E+00
   0.13000000E+01           0.65415815E+00
   0.13100000E+01           0.64902611E+00
   0.13200000E+01           0.64418556E+00
   0.13300000E+01           0.63814648E+00
   0.13400000E+01           0.63316074E+00
   0.13500000E+01           0.62768500E+00
   0.13600000E+01           0.62103426E+00
   0.13700000E+01           0.61643241E+00
   0.13800000E+01           0.60993407E+00
   0.13900000E+01           0.60393111E+00
   0.14000000E+01           0.59828056E+00
   0.14100000E+01           0.59197611E+00
   0.14200000E+01           0.58636944E+00
   0.14300000E+01           0.57909019E+00
   0.14400000E+01           0.57267963E+00
   0.14500000E+01           0.56682037E+00
   0.14600000E+01           0.56072778E+00
   0.14700000E+01           0.55455037E+00
   0.14800000E+01           0.54718185E+00
   0.14900000E+01           0.54114519E+00
   0.15000000E+01           0.53452278E+00
   0.15100000E+01           0.52778500E+00
   0.15200000E+01           0.52137000E+00
   0.15300000E+01           0.51449352E+00
   0.15400000E+01           0.50746796E+00
   0.15500000E+01           0.50129630E+00
   0.15600000E+01           0.49405093E+00
   0.15700000E+01           0.48740222E+00
   0.15800000E+01           0.48080907E+00
   0.15900000E+01           0.47393963E+00
   0.16000000E+01           0.46719167E+00
   0.16100000E+01           0.46006556E+00
   0.16200000E+01           0.45350037E+00
   0.16300000E+01           0.44650685E+00
   0.16400000E+01           0.43997333E+00
   0.16500000E+01           0.43328722E+00
   0.16600000E+01           0.42651852E+00
   0.16700000E+01           0.41959870E+00
   0.16800000E+01           0.41301574E+00
   0.16900000E+01           0.40624204E+00
   0.17000000E+01           0.39923278E+00
   0.17100000E+01           0.39239704E+00
   0.17200000E+01           0.38605685E+00
   0.17300000E+01           0.37913333E+00
   0.17400000E+01           0.37269796E+00
   0.17500000E+01           0.36606148E+00
   0.17600000E+01           0.35974019E+00
   0.17700000E+01           0.35242519E+00
   0.17800000E+01           0.34648907E+00
   0.17900000E+01           0.34052889E+00
   0.18000000E+01           0.33355778E+00
   0.18100000E+01           0.32729852E+00
   0.18200000E+01           0.32111852E+00
   0.18300000E+01           0.31461463E+00
   0.18400000E+01           0.30866333E+00
   0.18500000E+01           0.30245741E+00
   0.18600000E+01           0.29622722E+00
   0.18700000E+01           0.29004944E+00
   0.18800000E+01           0.28414981E+00
   0.18900000E+01           0.27827333E+00
   0.19000000E+01           0.27274278E+00
   0.19100000E+01           0.26706963E+00
   0.19200000E+01           0.26069444E+00
   0.19300000E+01           0.25554907E+00
   0.19400000E+01           0.24945796E+00
   0.19500000E+01           0.24383944E+00
   0.19600000E+01           0.23845481E+00
   0.19700000E+01           0.23287167E+00
   0.19800000E+01           0.22758500E+00
   0.19900000E+01           0.22202759E+00
   0.20000000E+01           0.21694722E+00
   0.20100000E+01           0.21195370E+00
   0.20200000E+01           0.20689796E+00
   0.20300000E+01           0.20185889E+00
   0.20400000E+01           0.19686463E+00
   0.20500000E+01           0.19204630E+00
   0.20600000E+01           0.18754926E+00
   0.20700000E+01           0.18294056E+00
   0.20800000E+01           0.17812685E+00
   0.20900000E+01           0.17363093E+00
   0.21000000E+01           0.16917463E+00
   0.21100000E+01           0.16424926E+00
   0.21200000E+01           0.16034204E+00
   0.21300000E+01           0.15664815E+00
   0.21400000E+01           0.15231167E+00
   0.21500000E+01           0.14809241E+00
   0.21600000E+01           0.14472444E+00
   0.21700000E+01           0.14068852E+00
   0.21800000E+01           0.13643111E+00
   0.21900000E+01           0.13284389E+00
   0.22000000E+01           0.12935222E+00
   0.22100000E+01           0.12576241E+00
   0.22200000E+01           0.12212167E+00
   0.22300000E+01           0.11889963E+00
   0.22400000E+01           0.11539019E+00
   0.22500000E+01           0.11245833E+00
   0.22600000E+01           0.10927074E+00
   0.22700000E+01           0.10578593E+00
   0.22800000E+01           0.10281907E+00
   0.22900000E+01           0.99817778E-01
   0.23000000E+01           0.97020185E-01
   0.23100000E+01           0.93934630E-01
   0.23200000E+01           0.91514630E-01
   0.23300000E+01           0.88682778E-01
   0.23400000E+01           0.86139815E-01
   0.23500000E+01           0.83301481E-01
   0.23600000E+01           0.80964630E-01
   0.23700000E+01           0.78746296E-01
   0.23800000E+01           0.75944630E-01
   0.23900000E+01           0.73682593E-01
   0.24000000E+01           0.71602222E-01
   0.24100000E+01           0.69182963E-01
   0.24200000E+01           0.67032963E-01
   0.24300000E+01           0.65172407E-01
   0.24400000E+01           0.63052963E-01
   0.24500000E+01           0.60934444E-01
   0.24600000E+01           0.58983704E-01
   0.24700000E+01           0.57031481E-01
   0.24800000E+01           0.55083333E-01
   0.24900000E+01           0.53351111E-01
   0.25000000E+01           0.51650370E-01
   0.25100000E+01           0.49930185E-01
   0.25200000E+01           0.48264074E-01
   0.25300000E+01           0.46732037E-01
   0.25400000E+01           0.45092778E-01
   0.25500000E+01           0.43530741E-01
   0.25600000E+01           0.41873704E-01
   0.25700000E+01           0.40281296E-01
   0.25800000E+01           0.39105185E-01
   0.25900000E+01           0.37731667E-01
   0.26000000E+01           0.36534630E-01
   0.26100000E+01           0.35157963E-01
   0.26200000E+01           0.34044444E-01
   0.26300000E+01           0.32703889E-01
   0.26400000E+01           0.31604259E-01
   0.26500000E+01           0.30453704E-01
   0.26600000E+01           0.29209630E-01
   0.26700000E+01           0.28245556E-01
   0.26800000E+01           0.27055556E-01
   0.26900000E+01           0.26120185E-01
   0.27000000E+01           0.25243889E-01
   0.27100000E+01           0.24252407E-01
   0.27200000E+01           0.23428148E-01
   0.27300000E+01           0.22431296E-01
   0.27400000E+01           0.21648148E-01
   0.27500000E+01           0.20728519E-01
   0.27600000E+01           0.19907407E-01
   0.27700000E+01           0.19214630E-01
   0.27800000E+01           0.18494259E-01
   0.27900000E+01           0.17569444E-01
   0.28000000E+01           0.16961296E-01
   0.28100000E+01           0.16387037E-01
   0.28200000E+01           0.15647222E-01
   0.28300000E+01           0.15038704E-01
   0.28400000E+01           0.14432222E-01
   0.28500000E+01           0.13853889E-01
   0.28600000E+01           0.13212037E-01
   0.28700000E+01           0.12789815E-01
   0.28800000E+01           0.12253704E-01
   0.28900000E+01           0.11746296E-01
   0.29000000E+01           0.11214259E-01
   0.29100000E+01           0.10741852E-01
   0.29200000E+01           0.10261111E-01
   0.29300000E+01           0.98688889E-02
   0.29400000E+01           0.94570370E-02
   0.29500000E+01           0.90309259E-02
   0.29600000E+01           0.86459259E-02
   0.29700000E+01           0.82211111E-02
   0.29800000E+01           0.78433333E-02
   0.29900000E+01           0.74920370E-02
   0.30000000E+01           0.71696296E-02
   0.30100000E+01           0.68518519E-02
   0.30200000E+01           0.66225926E-02
   0.30300000E+01           0.62587037E-02
   0.30400000E+01           0.59251852E-02
   0.30500000E+01           0.56994444E-02
   0.30600000E+01           0.54285185E-02
   0.30700000E+01           0.51537037E-02
   0.30800000E+01           0.48888889E-02
   0.30900000E+01           0.46368519E-02
   0.31000000E+01           0.44444444E-02
   0.31100000E+01           0.42650000E-02
   0.31200000E+01           0.39996296E-02
   0.31300000E+01           0.38470370E-02
   0.31400000E+01           0.36646296E-02
   0.31500000E+01           0.34498148E-02
   0.31600000E+01           0.33118519E-02
   0.31700000E+01           0.31190741E-02
   0.31800000E+01           0.29646296E-02
   0.31900000E+01           0.28107407E-02
   0.32000000E+01           0.27044444E-02
   0.32100000E+01           0.24988889E-02
   0.32200000E+01           0.23764815E-02
   0.32300000E+01           0.22564815E-02
   0.32400000E+01           0.21505556E-02
   0.32500000E+01           0.20655556E-02
   0.32600000E+01           0.19172222E-02
   0.32700000E+01           0.18320370E-02
   0.32800000E+01           0.17496296E-02
   0.32900000E+01           0.16159259E-02
   0.33000000E+01           0.15387037E-02
   0.33100000E+01           0.14370370E-02
   0.33200000E+01           0.13516667E-02
   0.33300000E+01           0.12712963E-02
   0.33400000E+01           0.11905556E-02
   0.33500000E+01           0.11025926E-02
   0.33600000E+01           0.10816667E-02
   0.33700000E+01           0.10074074E-02
   0.33800000E+01           0.94388889E-03
   0.33900000E+01           0.88759259E-03
   0.34000000E+01           0.85666667E-03
   0.34100000E+01           0.78703704E-03
   0.34200000E+01           0.73074074E-03
   0.34300000E+01           0.71833333E-03
   0.34400000E+01           0.64703704E-03
   0.34500000E+01           0.59611111E-03
   0.34600000E+01           0.55185185E-03
   0.34700000E+01           0.51796296E-03
   0.34800000E+01           0.50018519E-03
   0.34900000E+01           0.45074074E-03
   0.35000000E+01           0.42592593E-03
   0.35100000E+01           0.39833333E-03
   0.35200000E+01           0.37666667E-03
   0.35300000E+01           0.34740741E-03
   0.35400000E+01           0.31555556E-03
   0.35500000E+01           0.29333333E-03
   0.35600000E+01           0.26351852E-03
   0.35700000E+01           0.26870370E-03
   0.35800000E+01           0.24185185E-03
   0.35900000E+01           0.20444444E-03
   0.36000000E+01           0.20222222E-03
   0.36100000E+01           0.17925926E-03
   0.36200000E+01           0.16259259E-03
   0.36300000E+01           0.14759259E-03
   0.36400000E+01           0.14333333E-03
   0.36500000E+01           0.13240741E-03
   0.36600000E+01           0.11388889E-03
   0.36700000E+01           0.10833333E-03
   0.36800000E+01           0.94814815E-04
   0.36900000E+01           0.88333333E-04
   0.37000000E+01           0.78333333E-04
   0.37100000E+01           0.67777778E-04
   0.37200000E+01           0.71851852E-04
   0.37300000E+01           0.60925926E-04
   0.37400000E+01           0.48888889E-04
   0.37500000E+01           0.48888889E-04
   0.37600000E+01           0.45740741E-04
   0.37700000E+01           0.36851852E-04
   0.37800000E+01           0.39259259E-04
   0.37900000E+01           0.27592593E-04
   0.38000000E+01           0.24074074E-04
   0.38100000E+01           0.20555556E-04
   0.38200000E+01           0.16481481E-04
   0.38300000E+01           0.15740741E-04
   0.38400000E+01           0.14259259E-04
   0.38500000E+01           0.13518519E-04
   0.38600000E+01           0.11851852E-04
   0.38700000E+01           0.72222222E-05
   0.38800000E+01           0.85185185E-05
   0.38900000E+01           0.70370370E-05
   0.39000000E+01           0.42592593E-05
   0.39100000E+01           0.38888889E-05
   0.39200000E+01           0.31481481E-05
   0.39300000E+01           0.20370370E-05
   0.39400000E+01           0.12962963E-05
   0.39500000E+01           0.11111111E-05
   0.39600000E+01           0.55555556E-06
   0.39700000E+01           0.18518519E-06
   0.39800000E+01           0.00000000E+00
   0.39900000E+01           0.00000000E+00
   0.40000000E+01           0.00000000E+00
 #T=   401.0000
  -0.40000000E+01           0.00000000E+00
  -0.39900000E+01           0.00000000E+00
  -0.39800000E+01           0.00000000E+00
  -0.39700000E+01           0.00000000E+00
  -0.39600000E+01           0.00000000E+00
  -0.39500000E+01           0.00000000E+00
  -0.39400000E+01           0.00000000E+00
  -0.39300000E+01           0.00000000E+00
  -0.39200000E+01           0.00000000E+00
  -0.39100000E+01           0.00000000E+00
  -0.39000000E+01           0.00000000E+00
  -0.38900000E+01           0.00000000E+00
  -0.38800000E+01           0.00000000E+00
  -0.38700000E+01           0.00000000E+00
  -0.38600000E+01           0.00000000E+00
  -0.38500000E+01           0.00000000E+00
  -0.38400000E+01           0.00000000E+00
  -0.38300000E+01           0.00000000E+00
  -0.38200000E+01           0.00000000E+00
  -0.38100000E+01           0.00000000E+00
  -0.38000000E+01           0.00000000E+00
  -0.37900000E+01           0.00000000E+00
  -0.37800000E+01           0.00000000E+00
  -0.37700000E+01           0.00000000E+00
  -0.37600000E+01           0.00000000E+00
  -0.37500000E+01           0.00000000E+00
  -0.37400000E+01           0.00000000E+00
  -0.37300000E+01           0.00000000E+00
  -0.37200000E+01           0.00000000E+00
  -0.37100000E+01           0.00000000E+00
  -0.37000000E+01           0.00000000E+00
  -0.36900000E+01           0.00000000E+00
  -0.36800000E+01           0.00000000E+00
  -0.36700000E+01           0.00000000E+00
  -0.36600000E+01           0.00000000E+00
  -0.36500000E+01           0.00000000E+00
  -0.36400000E+01           0.00000000E+00
  -0.36300000E+01           0.00000000E+00
  -0.36200000E+01           0.00000000E+00
  -0.36100000E+01           0.00000000E+00
  -0.36000000E+01           0.00000000E+00
  -0.35900000E+01           0.00000000E+00
  -0.35800000E+01           0.00000000E+00
  -0.35700000E+01           0.00000000E+00
  -0.35600000E+01           0.00000000E+00
  -0.35500000E+01           0.00000000E+00
  -0.35400000E+01           0.00000000E+00
  -0.35300000E+01           0.00000000E+00
  -0.35200000E+01           0.00000000E+00
  -0.35100000E+01           0.00000000E+00
  -0.35000000E+01           0.00000000E+00
  -0.34900000E+01           0.00000000E+00
  -0.34800000E+01           0.00000000E+00
  -0.34700000E+01           0.00000000E+00
  -0.34600000E+01           0.00000000E+00
  -0.34500000E+01           0.00000000E+00
  -0.34400000E+01           0.00000000E+00
  -0.34300000E+01           0.00000000E+00
  -0.34200000E+01           0.00000000E+00
  -0.34100000E+01           0.00000000E+00
  -0.34000000E+01           0.00000000E+00
  -0.33900000E+01           0.00000000E+00
  -0.33800000E+01           0.00000000E+00
  -0.33700000E+01           0.00000000E+00
  -0.33600000E+01           0.00000000E+00
  -0.33500000E+01           0.00000000E+00
  -0.33400000E+01           0.00000000E+00
  -0.33300000E+01           0.00000000E+00
  -0.33200000E+01           0.00000000E+00
  -0.33100000E+01           0.00000000E+00
  -0.33000000E+01           0.00000000E+00
  -0.32900000E+01           0.00000000E+00
  -0.32800000E+01           0.00000000E+00
  -0.32700000E+01           0.00000000E+00
  -0.32600000E+01           0.00000000E+00
  -0.32500000E+01           0.00000000E+00
  -0.32400000E+01           0.00000000E+00
  -0.32300000E+01           0.00000000E+00
  -0.32200000E+01           0.00000000E+00
  -0.32100000E+01           0.00000000E+00
  -0.32000000E+01           0.00000000E+00
  -0.31900000E+01           0.00000000E+00
  -0.31800000E+01           0.00000000E+00
  -0.31700000E+01           0.00000000E+00
  -0.31600000E+01           0.00000000E+00
  -0.31500000E+01           0.00000000E+00
  -0.31400000E+01           0.00000000E+00
  -0.31300000E+01           0.00000000E+00
  -0.31200000E+01           0.00000000E+00
  -0.31100000E+01           0.00000000E+00
  -0.31000000E+01           0.00000000E+00
  -0.30900000E+01           0.00000000E+00
  -0.30800000E+01           0.00000000E+00
  -0.30700000E+01           0.00000000E+00
  -0.30600000E+01           0.00000000E+00
  -0.30500000E+01           0.00000000E+00
  -0.30400000E+01           0.00000000E+00
  -0.30300000E+01           0.00000000E+00
  -0.30200000E+01           0.00000000E+00
  -0.30100000E+01           0.00000000E+00
  -0.30000000E+01           0.00000000E+00
  -0.29900000E+01           0.00000000E+00
  -0.29800000E+01           0.00000000E+00
  -0.29700000E+01           0.00000000E+00
  -0.29600000E+01           0.00000000E+00
  -0.29500000E+01           0.00000000E+00
  -0.29400000E+01           0.00000000E+00
  -0.29300000E+01           0.00000000E+00
  -0.29200000E+01           0.00000000E+00
  -0.29100000E+01           0.00000000E+00
  -0.29000000E+01           0.00000000E+00
  -0.28900000E+01           0.00000000E+00
  -0.28800000E+01           0.00000000E+00
  -0.28700000E+01           0.00000000E+00
  -0.28600000E+01           0.00000000E+00
  -0.28500000E+01           0.00000000E+00
  -0.28400000E+01           0.00000000E+00
  -0.28300000E+01           0.00000000E+00
  -0.28200000E+01           0.00000000E+00
  -0.28100000E+01           0.00000000E+00
  -0.28000000E+01           0.00000000E+00
  -0.27900000E+01           0.00000000E+00
  -0.27800000E+01           0.00000000E+00
  -0.27700000E+01           0.00000000E+00
  -0.27600000E+01           0.00000000E+00
  -0.27500000E+01           0.00000000E+00
  -0.27400000E+01           0.00000000E+00
  -0.27300000E+01           0.00000000E+00
  -0.27200000E+01           0.00000000E+00
  -0.27100000E+01           0.00000000E+00
  -0.27000000E+01           0.00000000E+00
  -0.26900000E+01           0.00000000E+00
  -0.26800000E+01           0.00000000E+00
  -0.26700000E+01           0.00000000E+00
  -0.26600000E+01           0.00000000E+00
  -0.26500000E+01           0.00000000E+00
  -0.26400000E+01           0.00000000E+00
  -0.26300000E+01           0.00000000E+00
  -0.26200000E+01           0.00000000E+00
  -0.26100000E+01           0.00000000E+00
  -0.26000000E+01           0.00000000E+00
  -0.25900000E+01           0.00000000E+00
  -0.25800000E+01           0.00000000E+00
  -0.25700000E+01           0.00000000E+00
  -0.25600000E+01           0.00000000E+00
  -0.25500000E+01           0.00000000E+00
  -0.25400000E+01           0.00000000E+00
  -0.25300000E+01           0.00000000E+00
  -0.25200000E+01           0.00000000E+00
  -0.25100000E+01           0.00000000E+00
  -0.25000000E+01           0.00000000E+00
  -0.24900000E+01           0.00000000E+00
  -0.24800000E+01           0.00000000E+00
  -0.24700000E+01           0.00000000E+00
  -0.24600000E+01           0.00000000E+00
  -0.24500000E+01           0.00000000E+00
  -0.24400000E+01           0.00000000E+00
  -0.24300000E+01           0.00000000E+00
  -0.24200000E+01           0.00000000E+00
  -0.24100000E+01           0.00000000E+00
  -0.24000000E+01           0.00000000E+00
  -0.23900000E+01           0.00000000E+00
  -0.23800000E+01           0.00000000E+00
  -0.23700000E+01           0.00000000E+00
  -0.23600000E+01           0.00000000E+00
  -0.23500000E+01           0.00000000E+00
  -0.23400000E+01           0.00000000E+00
  -0.23300000E+01           0.00000000E+00
  -0.23200000E+01           0.00000000E+00
  -0.23100000E+01           0.00000000E+00
  -0.23000000E+01           0.00000000E+00
  -0.22900000E+01           0.00000000E+00
  -0.22800000E+01           0.00000000E+00
  -0.22700000E+01           0.00000000E+00
  -0.22600000E+01           0.00000000E+00
  -0.22500000E+01           0.00000000E+00
  -0.22400000E+01           0.00000000E+00
  -0.22300000E+01           0.00000000E+00
  -0.22200000E+01           0.00000000E+00
  -0.22100000E+01           0.00000000E+00
  -0.22000000E+01           0.00000000E+00
  -0.21900000E+01           0.00000000E+00
  -0.21800000E+01           0.00000000E+00
  -0.21700000E+01           0.00000000E+00
  -0.21600000E+01           0.00000000E+00
  -0.21500000E+01           0.00000000E+00
  -0.21400000E+01           0.00000000E+00
  -0.21300000E+01           0.00000000E+00
  -0.21200000E+01           0.00000000E+00
  -0.21100000E+01           0.00000000E+00
  -0.21000000E+01           0.00000000E+00
  -0.20900000E+01           0.00000000E+00
  -0.20800000E+01           0.00000000E+00
  -0.20700000E+01           0.00000000E+00
  -0.20600000E+01           0.00000000E+00
  -0.20500000E+01           0.00000000E+00
  -0.20400000E+01           0.00000000E+00
  -0.20300000E+01           0.00000000E+00
  -0.20200000E+01           0.00000000E+00
  -0.20100000E+01           0.00000000E+00
  -0.20000000E+01           0.00000000E+00
  -0.19900000E+01           0.00000000E+00
  -0.19800000E+01           0.00000000E+00
  -0.19700000E+01           0.00000000E+00
  -0.19600000E+01           0.00000000E+00
  -0.19500000E+01           0.00000000E+00
  -0.19400000E+01           0.00000000E+00
  -0.19300000E+01           0.00000000E+00
  -0.19200000E+01           0.00000000E+00
  -0.19100000E+01           0.00000000E+00
  -0.19000000E+01           0.00000000E+00
  -0.18900000E+01           0.00000000E+00
  -0.18800000E+01           0.00000000E+00
  -0.18700000E+01           0.00000000E+00
  -0.18600000E+01           0.00000000E+00
  -0.18500000E+01           0.00000000E+00
  -0.18400000E+01           0.00000000E+00
  -0.18300000E+01           0.00000000E+00
  -0.18200000E+01           0.00000000E+00
  -0.18100000E+01           0.00000000E+00
  -0.18000000E+01           0.00000000E+00
  -0.17900000E+01           0.00000000E+00
  -0.17800000E+01           0.00000000E+00
  -0.17700000E+01           0.00000000E+00
  -0.17600000E+01           0.00000000E+00
  -0.17500000E+01           0.00000000E+00
  -0.17400000E+01           0.00000000E+00
  -0.17300000E+01           0.00000000E+00
  -0.17200000E+01           0.00000000E+00
  -0.17100000E+01           0.00000000E+00
  -0.17000000E+01           0.00000000E+00
  -0.16900000E+01           0.00000000E+00
  -0.16800000E+01           0.00000000E+00
  -0.16700000E+01           0.00000000E+00
  -0.16600000E+01           0.00000000E+00
  -0.16500000E+01           0.00000000E+00
  -0.16400000E+01           0.00000000E+00
  -0.16300000E+01           0.00000000E+00
  -0.16200000E+01           0.00000000E+00
  -0.16100000E+01           0.00000000E+00
  -0.16000000E+01           0.00000000E+00
  -0.15900000E+01           0.00000000E+00
  -0.15800000E+01           0.00000000E+00
  -0.15700000E+01           0.00000000E+00
  -0.15600000E+01           0.00000000E+00
  -0.15500000E+01           0.00000000E+00
  -0.15400000E+01           0.00000000E+00
  -0.15300000E+01           0.00000000E+00
  -0.15200000E+01           0.00000000E+00
  -0.15100000E+01           0.00000000E+00
  -0.15000000E+01           0.00000000E+00
  -0.14900000E+01           0.00000000E+00
  -0.14800000E+01           0.00000000E+00
  -0.14700000E+01           0.00000000E+00
  -0.14600000E+01           0.00000000E+00
  -0.14500000E+01           0.00000000E+00
  -0.14400000E+01           0.00000000E+00
  -0.14300000E+01           0.00000000E+00
  -0.14200000E+01           0.00000000E+00
  -0.14100000E+01           0.00000000E+00
  -0.14000000E+01           0.00000000E+00
  -0.13900000E+01           0.00000000E+00
  -0.13800000E+01           0.00000000E+00
  -0.13700000E+01           0.00000000E+00
  -0.13600000E+01           0.00000000E+00
  -0.13500000E+01           0.00000000E+00
  -0.13400000E+01           0.00000000E+00
  -0.13300000E+01           0.00000000E+00
  -0.13200000E+01           0.00000000E+00
  -0.13100000E+01           0.00000000E+00
  -0.13000000E+01           0.00000000E+00
  -0.12900000E+01           0.00000000E+00
  -0.12800000E+01           0.00000000E+00
  -0.12700000E+01           0.00000000E+00
  -0.12600000E+01           0.00000000E+00
  -0.12500000E+01           0.00000000E+00
  -0.12400000E+01           0.00000000E+00
  -0.12300000E+01           0.00000000E+00
  -0.12200000E+01           0.00000000E+00
  -0.12100000E+01           0.00000000E+00
  -0.12000000E+01           0.00000000E+00
  -0.11900000E+01           0.00000000E+00
  -0.11800000E+01           0.00000000E+00
  -0.11700000E+01           0.00000000E+00
  -0.11600000E+01           0.00000000E+00
  -0.11500000E+01           0.00000000E+00
  -0.11400000E+01           0.00000000E+00
  -0.11300000E+01           0.00000000E+00
  -0.11200000E+01           0.00000000E+00
  -0.11100000E+01           0.00000000E+00
  -0.11000000E+01           0.00000000E+00
  -0.10900000E+01           0.00000000E+00
  -0.10800000E+01           0.00000000E+00
  -0.10700000E+01           0.00000000E+00
  -0.10600000E+01           0.00000000E+00
  -0.10500000E+01           0.00000000E+00
  -0.10400000E+01           0.00000000E+00
  -0.10300000E+01           0.00000000E+00
  -0.10200000E+01           0.00000000E+00
  -0.10100000E+01           0.00000000E+00
  -0.10000000E+01           0.00000000E+00
  -0.99000000E+00           0.00000000E+00
  -0.98000000E+00           0.00000000E+00
  -0.97000000E+00           0.00000000E+00
  -0.96000000E+00           0.00000000E+00
  -0.95000000E+00           0.00000000E+00
  -0.94000000E+00           0.00000000E+00
  -0.93000000E+00           0.00000000E+00
  -0.92000000E+00           0.00000000E+00
  -0.91000000E+00           0.00000000E+00
  -0.90000000E+00           0.00000000E+00
  -0.89000000E+00           0.00000000E+00
  -0.88000000E+00           0.00000000E+00
  -0.87000000E+00           0.00000000E+00
  -0.86000000E+00           0.00000000E+00
  -0.85000000E+00           0.00000000E+00
  -0.84000000E+00           0.00000000E+00
  -0.83000000E+00           0.00000000E+00
  -0.82000000E+00           0.00000000E+00
  -0.81000000E+00           0.00000000E+00
  -0.80000000E+00           0.00000000E+00
  -0.79000000E+00           0.00000000E+00
  -0.78000000E+00           0.00000000E+00
  -0.77000000E+00           0.00000000E+00
  -0.76000000E+00           0.00000000E+00
  -0.75000000E+00           0.00000000E+00
  -0.74000000E+00           0.00000000E+00
  -0.73000000E+00           0.00000000E+00
  -0.72000000E+00           0.00000000E+00
  -0.71000000E+00           0.00000000E+00
  -0.70000000E+00           0.00000000E+00
  -0.69000000E+00           0.00000000E+00
  -0.68000000E+00           0.00000000E+00
  -0.67000000E+00           0.00000000E+00
  -0.66000000E+00           0.00000000E+00
  -0.65000000E+00           0.00000000E+00
  -0.64000000E+00           0.00000000E+00
  -0.63000000E+00           0.00000000E+00
  -0.62000000E+00           0.00000000E+00
  -0.61000000E+00           0.00000000E+00
  -0.60000000E+00           0.00000000E+00
  -0.59000000E+00           0.00000000E+00
  -0.58000000E+00           0.00000000E+00
  -0.57000000E+00           0.00000000E+00
  -0.56000000E+00           0.00000000E+00
  -0.55000000E+00           0.00000000E+00
  -0.54000000E+00           0.00000000E+00
  -0.53000000E+00           0.00000000E+00
  -0.52000000E+00           0.00000000E+00
  -0.51000000E+00           0.00000000E+00
  -0.50000000E+00           0.00000000E+00
  -0.49000000E+00           0.00000000E+00
  -0.48000000E+00           0.00000000E+00
  -0.47000000E+00           0.00000000E+00
  -0.46000000E+00           0.00000000E+00
  -0.45000000E+00           0.00000000E+00
  -0.44000000E+00           0.00000000E+00
  -0.43000000E+00           0.00000000E+00
  -0.42000000E+00           0.00000000E+00
  -0.41000000E+00           0.00000000E+00
  -0.40000000E+00           0.00000000E+00
  -0.39000000E+00           0.00000000E+00
  -0.38000000E+00           0.00000000E+00
  -0.37000000E+00           0.00000000E+00
  -0.36000000E+00           0.00000000E+00
  -0.35000000E+00           0.00000000E+00
  -0.34000000E+00           0.00000000E+00
  -0.33000000E+00           0.00000000E+00
  -0.32000000E+00           0.00000000E+00
  -0.31000000E+00           0.00000000E+00
  -0.30000000E+00           0.00000000E+00
  -0.29000000E+00           0.00000000E+00
  -0.28000000E+00           0.00000000E+00
  -0.27000000E+00           0.00000000E+00
  -0.26000000E+00           0.00000000E+00
  -0.25000000E+00           0.00000000E+00
  -0.24000000E+00           0.00000000E+00
  -0.23000000E+00           0.00000000E+00
  -0.22000000E+00           0.00000000E+00
  -0.21000000E+00           0.00000000E+00
  -0.20000000E+00           0.00000000E+00
  -0.19000000E+00           0.00000000E+00
  -0.18000000E+00           0.00000000E+00
  -0.17000000E+00           0.00000000E+00
  -0.16000000E+00           0.00000000E+00
  -0.15000000E+00           0.00000000E+00
  -0.14000000E+00           0.00000000E+00
  -0.13000000E+00           0.00000000E+00
  -0.12000000E+00           0.00000000E+00
  -0.11000000E+00           0.00000000E+00
  -0.10000000E+00           0.00000000E+00
  -0.90000000E-01           0.00000000E+00
  -0.80000000E-01           0.00000000E+00
  -0.70000000E-01           0.00000000E+00
  -0.60000000E-01           0.00000000E+00
  -0.50000000E-01           0.00000000E+00
  -0.40000000E-01           0.00000000E+00
  -0.30000000E-01           0.00000000E+00
  -0.20000000E-01           0.00000000E+00
  -0.10000000E-01           0.00000000E+00
   0.00000000E+00           0.15555556E-04
   0.10000000E-01           0.38833333E-03
   0.20000000E-01           0.14233333E-02
   0.30000000E-01           0.31622222E-02
   0.40000000E-01           0.54825926E-02
   0.50000000E-01           0.84937037E-02
   0.60000000E-01           0.12064815E-01
   0.70000000E-01           0.16127407E-01
   0.80000000E-01           0.20807593E-01
   0.90000000E-01           0.25979074E-01
   0.10000000E+00           0.31584074E-01
   0.11000000E+00           0.37803704E-01
   0.12000000E+00           0.44480000E-01
   0.13000000E+00           0.51311852E-01
   0.14000000E+00           0.58699074E-01
   0.15000000E+00           0.66501852E-01
   0.16000000E+00           0.74577778E-01
   0.17000000E+00           0.83085741E-01
   0.18000000E+00           0.92004259E-01
   0.19000000E+00           0.10089852E+00
   0.20000000E+00           0.11044815E+00
   0.21000000E+00           0.12015037E+00
   0.22000000E+00           0.12999352E+00
   0.23000000E+00           0.13997222E+00
   0.24000000E+00           0.15027204E+00
   0.25000000E+00           0.16063778E+00
   0.26000000E+00           0.17161019E+00
   0.27000000E+00           0.18248870E+00
   0.28000000E+00           0.19352481E+00
   0.29000000E+00           0.20451296E+00
   0.30000000E+00           0.21551500E+00
   0.31000000E+00           0.22673296E+00
   0.32000000E+00           0.23812926E+00
   0.33000000E+00           0.24960593E+00
   0.34000000E+00           0.26142426E+00
   0.35000000E+00           0.27300333E+00
   0.36000000E+00           0.28425907E+00
   0.37000000E+00           0.29612222E+00
   0.38000000E+00           0.30760833E+00
   0.39000000E+00           0.31940093E+00
   0.40000000E+00           0.33083315E+00
   0.41000000E+00           0.34241093E+00
   0.42000000E+00           0.35469685E+00
   0.43000000E+00           0.36594426E+00
   0.44000000E+00           0.37736537E+00
   0.45000000E+00           0.38825389E+00
   0.46000000E+00           0.39990148E+00
   0.47000000E+00           0.41062537E+00
   0.48000000E+00           0.42170389E+00
   0.49000000E+00           0.43326204E+00
   0.50000000E+00           0.44441204E+00
   0.51000000E+00           0.45472352E+00
   0.52000000E+00           0.46504574E+00
   0.53000000E+00           0.47556241E+00
   0.54000000E+00           0.48592000E+00
   0.55000000E+00           0.49653370E+00
   0.56000000E+00           0.50688574E+00
   0.57000000E+00           0.51632685E+00
   0.58000000E+00           0.52597389E+00
   0.59000000E+00           0.53547185E+00
   0.60000000E+00           0.54496148E+00
   0.61000000E+00           0.55444944E+00
   0.62000000E+00           0.56327870E+00
   0.63000000E+00           0.57213463E+00
   0.64000000E+00           0.58020111E+00
   0.65000000E+00           0.58833574E+00
   0.66000000E+00           0.59717704E+00
   0.67000000E+00           0.60511333E+00
   0.68000000E+00           0.61241889E+00
   0.69000000E+00           0.62026056E+00
   0.70000000E+00           0.62731593E+00
   0.71000000E+00           0.63500037E+00
   0.72000000E+00           0.64107148E+00
   0.73000000E+00           0.64842130E+00
   0.74000000E+00           0.65448333E+00
   0.75000000E+00           0.66021704E+00
   0.76000000E+00           0.66673815E+00
   0.77000000E+00           0.67248259E+00
   0.78000000E+00           0.67813296E+00
   0.79000000E+00           0.68319463E+00
   0.80000000E+00           0.68780093E+00
   0.81000000E+00           0.69244426E+00
   0.82000000E+00           0.69667889E+00
   0.83000000E+00           0.70109259E+00
   0.84000000E+00           0.70519222E+00
   0.85000000E+00           0.70933296E+00
   0.86000000E+00           0.71251889E+00
   0.87000000E+00           0.71572889E+00
   0.88000000E+00           0.71932407E+00
   0.89000000E+00           0.72148444E+00
   0.90000000E+00           0.72409704E+00
   0.91000000E+00           0.72606019E+00
   0.92000000E+00           0.72800389E+00
   0.93000000E+00           0.73011352E+00
   0.94000000E+00           0.73205981E+00
   0.95000000E+00           0.73300148E+00
   0.96000000E+00           0.73497074E+00
   0.97000000E+00           0.73578241E+00
   0.98000000E+00           0.73623407E+00
   0.99000000E+00           0.73643148E+00
   0.10000000E+01           0.73607741E+00
   0.10100000E+01           0.73705981E+00
   0.10200000E+01           0.73633944E+00
   0.10300000E+01           0.73636963E+00
   0.10400000E+01           0.73515889E+00
   0.10500000E+01           0.73432074E+00
   0.10600000E+01           0.73352944E+00
   0.10700000E+01           0.73199333E+00
   0.10800000E+01           0.73094574E+00
   0.10900000E+01           0.72909574E+00
   0.11000000E+01           0.72745019E+00
   0.11100000E+01           0.72538963E+00
   0.11200000E+01           0.72278444E+00
   0.11300000E+01           0.72048796E+00
   0.11400000E+01           0.71737296E+00
   0.11500000E+01           0.71475870E+00
   0.11600000E+01           0.71274648E+00
   0.11700000E+01           0.70906889E+00
   0.11800000E+01           0.70570778E+00
   0.11900000E+01           0.70221130E+00
   0.12000000E+01           0.69860019E+00
   0.12100000E+01           0.69515870E+00
   0.12200000E+01           0.69112352E+00
   0.12300000E+01           0.68710926E+00
   0.12400000E+01           0.68298796E+00
   0.12500000E+01           0.67865370E+00
   0.12600000E+01           0.67336444E+00
   0.12700000E+01           0.66909685E+00
   0.12800000E+01           0.66470722E+00
   0.12900000E+01           0.65985907E+00
   0.13000000E+01           0.65468593E+00
   0.13100000E+01           0.64987204E+00
   0.13200000E+01           0.64448259E+00
   0.13300000E+01           0.63898056E+00
   0.13400000E+01           0.63362574E+00
   0.13500000E+01           0.62824130E+00
   0.13600000E+01           0.62223259E+00
   0.13700000E+01           0.61693056E+00
   0.13800000E+01           0.61095426E+00
   0.13900000E+01           0.60530315E+00
   0.14000000E+01           0.59927778E+00
   0.14100000E+01           0.59283463E+00
   0.14200000E+01           0.58662500E+00
   0.14300000E+01           0.58084981E+00
   0.14400000E+01           0.57542722E+00
   0.14500000E+01           0.56796019E+00
   0.14600000E+01           0.56156852E+00
   0.14700000E+01           0.55530074E+00
   0.14800000E+01           0.54893056E+00
   0.14900000E+01           0.54192741E+00
   0.15000000E+01           0.53562759E+00
   0.15100000E+01           0.52940426E+00
   0.15200000E+01           0.52273389E+00
   0.15300000E+01           0.51561500E+00
   0.15400000E+01           0.50884574E+00
   0.15500000E+01           0.50269648E+00
   0.15600000E+01           0.49547759E+00
   0.15700000E+01           0.48891389E+00
   0.15800000E+01           0.48181833E+00
   0.15900000E+01           0.47538963E+00
   0.16000000E+01           0.46873963E+00
   0.16100000E+01           0.46163241E+00
   0.16200000E+01           0.45483315E+00
   0.16300000E+01           0.44793944E+00
   0.16400000E+01           0.44123778E+00
   0.16500000E+01           0.43498370E+00
   0.16600000E+01           0.42705333E+00
   0.16700000E+01           0.42171370E+00
   0.16800000E+01           0.41467648E+00
   0.16900000E+01           0.40794593E+00
   0.17000000E+01           0.40114574E+00
   0.17100000E+01           0.39422204E+00
   0.17200000E+01           0.38742630E+00
   0.17300000E+01           0.38133741E+00
   0.17400000E+01           0.37406259E+00
   0.17500000E+01           0.36791778E+00
   0.17600000E+01           0.36145426E+00
   0.17700000E+01           0.35492833E+00
   0.17800000E+01           0.34851481E+00
   0.17900000E+01           0.34206222E+00
   0.18000000E+01           0.33553352E+00
   0.18100000E+01           0.32941722E+00
   0.18200000E+01           0.32252870E+00
   0.18300000E+01           0.31615889E+00
   0.18400000E+01           0.31071222E+00
   0.18500000E+01           0.30372389E+00
   0.18600000E+01           0.29824833E+00
   0.18700000E+01           0.29188037E+00
   0.18800000E+01           0.28638148E+00
   0.18900000E+01           0.27996630E+00
   0.19000000E+01           0.27448907E+00
   0.19100000E+01           0.26873685E+00
   0.19200000E+01           0.26270889E+00
   0.19300000E+01           0.25720167E+00
   0.19400000E+01           0.25120037E+00
   0.19500000E+01           0.24557778E+00
   0.19600000E+01           0.24036167E+00
   0.19700000E+01           0.23451741E+00
   0.19800000E+01           0.22933537E+00
   0.19900000E+01           0.22390778E+00
   0.20000000E+01           0.21883278E+00
   0.20100000E+01           0.21332667E+00
   0.20200000E+01           0.20820704E+00
   0.20300000E+01           0.20317778E+00
   0.20400000E+01           0.19839500E+00
   0.20500000E+01           0.19385833E+00
   0.20600000E+01           0.18864500E+00
   0.20700000E+01           0.18398796E+00
   0.20800000E+01           0.17982426E+00
   0.20900000E+01           0.17477056E+00
   0.21000000E+01           0.17039278E+00
   0.21100000E+01           0.16617463E+00
   0.21200000E+01           0.16203981E+00
   0.21300000E+01           0.15742130E+00
   0.21400000E+01           0.15376389E+00
   0.21500000E+01           0.14955593E+00
   0.21600000E+01           0.14565963E+00
   0.21700000E+01           0.14175296E+00
   0.21800000E+01           0.13768426E+00
   0.21900000E+01           0.13428389E+00
   0.22000000E+01           0.13043926E+00
   0.22100000E+01           0.12716519E+00
   0.22200000E+01           0.12346444E+00
   0.22300000E+01           0.12032296E+00
   0.22400000E+01           0.11664333E+00
   0.22500000E+01           0.11336796E+00
   0.22600000E+01           0.11019889E+00
   0.22700000E+01           0.10694833E+00
   0.22800000E+01           0.10377870E+00
   0.22900000E+01           0.10115796E+00
   0.23000000E+01           0.98027963E-01
   0.23100000E+01           0.95132963E-01
   0.23200000E+01           0.92342593E-01
   0.23300000E+01           0.89799259E-01
   0.23400000E+01           0.87115000E-01
   0.23500000E+01           0.84382593E-01
   0.23600000E+01           0.81954630E-01
   0.23700000E+01           0.79169630E-01
   0.23800000E+01           0.76883519E-01
   0.23900000E+01           0.74653889E-01
   0.24000000E+01           0.72357407E-01
   0.24100000E+01           0.70030185E-01
   0.24200000E+01           0.67823519E-01
   0.24300000E+01           0.65686852E-01
   0.24400000E+01           0.63518889E-01
   0.24500000E+01           0.61424259E-01
   0.24600000E+01           0.59599630E-01
   0.24700000E+01           0.57752037E-01
   0.24800000E+01           0.55787778E-01
   0.24900000E+01           0.53876852E-01
   0.25000000E+01           0.52147037E-01
   0.25100000E+01           0.50515185E-01
   0.25200000E+01           0.48932222E-01
   0.25300000E+01           0.47140185E-01
   0.25400000E+01           0.45622037E-01
   0.25500000E+01           0.43860926E-01
   0.25600000E+01           0.42731296E-01
   0.25700000E+01           0.41093519E-01
   0.25800000E+01           0.39738333E-01
   0.25900000E+01           0.38209630E-01
   0.26000000E+01           0.36869074E-01
   0.26100000E+01           0.35687037E-01
   0.26200000E+01           0.34281296E-01
   0.26300000E+01           0.33167407E-01
   0.26400000E+01           0.31842778E-01
   0.26500000E+01           0.30932037E-01
   0.26600000E+01           0.29794815E-01
   0.26700000E+01           0.28756111E-01
   0.26800000E+01           0.27686852E-01
   0.26900000E+01           0.26683704E-01
   0.27000000E+01           0.25682593E-01
   0.27100000E+01           0.24623519E-01
   0.27200000E+01           0.23716852E-01
   0.27300000E+01           0.22842593E-01
   0.27400000E+01           0.21945185E-01
   0.27500000E+01           0.21085000E-01
   0.27600000E+01           0.20223889E-01
   0.27700000E+01           0.19418889E-01
   0.27800000E+01           0.18797037E-01
   0.27900000E+01           0.17972037E-01
   0.28000000E+01           0.17344444E-01
   0.28100000E+01           0.16513148E-01
   0.28200000E+01           0.16000741E-01
   0.28300000E+01           0.15283889E-01
   0.28400000E+01           0.14625741E-01
   0.28500000E+01           0.14077778E-01
   0.28600000E+01           0.13498333E-01
   0.28700000E+01           0.13000000E-01
   0.28800000E+01           0.12481852E-01
   0.28900000E+01           0.11875926E-01
   0.29000000E+01           0.11424815E-01
   0.29100000E+01           0.10934630E-01
   0.29200000E+01           0.10511111E-01
   0.29300000E+01           0.10027407E-01
   0.29400000E+01           0.95444444E-02
   0.29500000E+01           0.92140741E-02
   0.29600000E+01           0.87125926E-02
   0.29700000E+01           0.83751852E-02
   0.29800000E+01           0.79837037E-02
   0.29900000E+01           0.76788889E-02
   0.30000000E+01           0.73846296E-02
   0.30100000E+01           0.69677778E-02
   0.30200000E+01           0.66787037E-02
   0.30300000E+01           0.63455556E-02
   0.30400000E+01           0.60305556E-02
   0.30500000E+01           0.57818519E-02
   0.30600000E+01           0.55477778E-02
   0.30700000E+01           0.53025926E-02
   0.30800000E+01           0.50098148E-02
   0.30900000E+01           0.46979630E-02
   0.31000000E+01           0.45446296E-02
   0.31100000E+01           0.42866667E-02
   0.31200000E+01           0.41301852E-02
   0.31300000E+01           0.38888889E-02
   0.31400000E+01           0.36962963E-02
   0.31500000E+01           0.35622222E-02
   0.31600000E+01           0.33511111E-02
   0.31700000E+01           0.32048148E-02
   0.31800000E+01           0.30705556E-02
   0.31900000E+01           0.28598148E-02
   0.32000000E+01           0.27440741E-02
   0.32100000E+01           0.26151852E-02
   0.32200000E+01           0.24607407E-02
   0.32300000E+01           0.23494444E-02
   0.32400000E+01           0.21625926E-02
   0.32500000E+01           0.21168519E-02
   0.32600000E+01           0.19514815E-02
   0.32700000E+01           0.18485185E-02
   0.32800000E+01           0.17575926E-02
   0.32900000E+01           0.16575926E-02
   0.33000000E+01           0.15625926E-02
   0.33100000E+01           0.14655556E-02
   0.33200000E+01           0.14066667E-02
   0.33300000E+01           0.12981481E-02
   0.33400000E+01           0.12429630E-02
   0.33500000E+01           0.11633333E-02
   0.33600000E+01           0.11312963E-02
   0.33700000E+01           0.10442593E-02
   0.33800000E+01           0.95685185E-03
   0.33900000E+01           0.91388889E-03
   0.34000000E+01           0.86074074E-03
   0.34100000E+01           0.79277778E-03
   0.34200000E+01           0.74185185E-03
   0.34300000E+01           0.69148148E-03
   0.34400000E+01           0.67185185E-03
   0.34500000E+01           0.61074074E-03
   0.34600000E+01           0.56907407E-03
   0.34700000E+01           0.54648148E-03
   0.34800000E+01           0.51500000E-03
   0.34900000E+01           0.46407407E-03
   0.35000000E+01           0.45592593E-03
   0.35100000E+01           0.39870370E-03
   0.35200000E+01           0.37055556E-03
   0.35300000E+01           0.34759259E-03
   0.35400000E+01           0.31407407E-03
   0.35500000E+01           0.30037037E-03
   0.35600000E+01           0.26666667E-03
   0.35700000E+01           0.26166667E-03
   0.35800000E+01           0.23333333E-03
   0.35900000E+01           0.22962963E-03
   0.36000000E+01           0.20388889E-03
   0.36100000E+01           0.18629630E-03
   0.36200000E+01           0.16888889E-03
   0.36300000E+01           0.16037037E-03
   0.36400000E+01           0.14296296E-03
   0.36500000E+01           0.13018519E-03
   0.36600000E+01           0.12259259E-03
   0.36700000E+01           0.10777778E-03
   0.36800000E+01           0.10444444E-03
   0.36900000E+01           0.92592593E-04
   0.37000000E+01           0.80000000E-04
   0.37100000E+01           0.75185185E-04
   0.37200000E+01           0.70000000E-04
   0.37300000E+01           0.62407407E-04
   0.37400000E+01           0.54074074E-04
   0.37500000E+01           0.45740741E-04
   0.37600000E+01           0.47407407E-04
   0.37700000E+01           0.39629630E-04
   0.37800000E+01           0.33888889E-04
   0.37900000E+01           0.34629630E-04
   0.38000000E+01           0.28333333E-04
   0.38100000E+01           0.21111111E-04
   0.38200000E+01           0.22962963E-04
   0.38300000E+01           0.16481481E-04
   0.38400000E+01           0.12592593E-04
   0.38500000E+01           0.13148148E-04
   0.38600000E+01           0.98148148E-05
   0.38700000E+01           0.64814815E-05
   0.38800000E+01           0.55555556E-05
   0.38900000E+01           0.42592593E-05
   0.39000000E+01           0.53703704E-05
   0.39100000E+01           0.42592593E-05
   0.39200000E+01           0.18518519E-05
   0.39300000E+01           0.16666667E-05
   0.39400000E+01           0.27777778E-05
   0.39500000E+01           0.92592593E-06
   0.39600000E+01           0.55555556E-06
   0.39700000E+01           0.18518519E-06
   0.39800000E+01           0.18518519E-06
   0.39900000E+01           0.00000000E+00
   0.40000000E+01           0.00000000E+00
 #T=   402.0000
  -0.40000000E+01           0.00000000E+00
  -0.39900000E+01           0.00000000E+00
  -0.39800000E+01           0.00000000E+00
  -0.39700000E+01           0.00000000E+00
  -0.39600000E+01           0.00000000E+00
  -0.39500000E+01           0.00000000E+00
  -0.39400000E+01           0.00000000E+00
  -0.39300000E+01           0.00000000E+00
  -0.39200000E+01           0.00000000E+00
  -0.39100000E+01           0.00000000E+00
  -0.39000000E+01           0.00000000E+00
  -0.38900000E+01           0.00000000E+00
  -0.38800000E+01           0.00000000E+00
  -0.38700000E+01           0.00000000E+00
  -0.38600000E+01           0.00000000E+00
  -0.38500000E+01           0.00000000E+00
  -0.38400000E+01           0.00000000E+00
  -0.38300000E+01           0.00000000E+00
  -0.38200000E+01           0.00000000E+00
  -0.38100000E+01           0.00000000E+00
  -0.38000000E+01           0.00000000E+00
  -0.37900000E+01           0.00000000E+00
  -0.37800000E+01           0.00000000E+00
  -0.37700000E+01           0.00000000E+00
  -0.37600000E+01           0.00000000E+00
  -0.37500000E+01           0.00000000E+00
  -0.37400000E+01           0.00000000E+00
  -0.37300000E+01           0.00000000E+00
  -0.37200000E+01           0.00000000E+00
  -0.37100000E+01           0.00000000E+00
  -0.37000000E+01           0.00000000E+00
  -0.36900000E+01           0.00000000E+00
  -0.36800000E+01           0.00000000E+00
  -0.36700000E+01           0.00000000E+00
  -0.36600000E+01           0.00000000E+00
  -0.36500000E+01           0.00000000E+00
  -0.36400000E+01           0.00000000E+00
  -0.36300000E+01           0.00000000E+00
  -0.36200000E+01           0.00000000E+00
  -0.36100000E+01           0.00000000E+00
  -0.36000000E+01           0.00000000E+00
  -0.35900000E+01           0.00000000E+00
  -0.35800000E+01           0.00000000E+00
  -0.35700000E+01           0.00000000E+00
  -0.35600000E+01           0.00000000E+00
  -0.35500000E+01           0.00000000E+00
  -0.35400000E+01           0.00000000E+00
  -0.35300000E+01           0.00000000E+00
  -0.35200000E+01           0.00000000E+00
  -0.35100000E+01           0.00000000E+00
  -0.35000000E+01           0.00000000E+00
  -0.34900000E+01           0.00000000E+00
  -0.34800000E+01           0.00000000E+00
  -0.34700000E+01           0.00000000E+00
  -0.34600000E+01           0.00000000E+00
  -0.34500000E+01           0.00000000E+00
  -0.34400000E+01           0.00000000E+00
  -0.34300000E+01           0.00000000E+00
  -0.34200000E+01           0.00000000E+00
  -0.34100000E+01           0.00000000E+00
  -0.34000000E+01           0.00000000E+00
  -0.33900000E+01           0.00000000E+00
  -0.33800000E+01           0.00000000E+00
  -0.33700000E+01           0.00000000E+00
  -0.33600000E+01           0.00000000E+00
  -0.33500000E+01           0.00000000E+00
  -0.33400000E+01           0.00000000E+00
  -0.33300000E+01           0.00000000E+00
  -0.33200000E+01           0.00000000E+00
  -0.33100000E+01           0.00000000E+00
  -0.33000000E+01           0.00000000E+00
  -0.32900000E+01           0.00000000E+00
  -0.32800000E+01           0.00000000E+00
  -0.32700000E+01           0.00000000E+00
  -0.32600000E+01           0.00000000E+00
  -0.32500000E+01           0.00000000E+00
  -0.32400000E+01           0.00000000E+00
  -0.32300000E+01           0.00000000E+00
  -0.32200000E+01           0.00000000E+00
  -0.32100000E+01           0.00000000E+00
  -0.32000000E+01           0.00000000E+00
  -0.31900000E+01           0.00000000E+00
  -0.31800000E+01           0.00000000E+00
  -0.31700000E+01           0.00000000E+00
  -0.31600000E+01           0.00000000E+00
  -0.31500000E+01           0.00000000E+00
  -0.31400000E+01           0.00000000E+00
  -0.31300000E+01           0.00000000E+00
  -0.31200000E+01           0.00000000E+00
  -0.31100000E+01           0.00000000E+00
  -0.31000000E+01           0.00000000E+00
  -0.30900000E+01           0.00000000E+00
  -0.30800000E+01           0.00000000E+00
  -0.30700000E+01           0.00000000E+00
  -0.30600000E+01           0.00000000E+00
  -0.30500000E+01           0.00000000E+00
  -0.30400000E+01           0.00000000E+00
  -0.30300000E+01           0.00000000E+00
  -0.30200000E+01           0.00000000E+00
  -0.30100000E+01           0.00000000E+00
  -0.30000000E+01           0.00000000E+00
  -0.29900000E+01           0.00000000E+00
  -0.29800000E+01           0.00000000E+00
  -0.29700000E+01           0.00000000E+00
  -0.29600000E+01           0.00000000E+00
  -0.29500000E+01           0.00000000E+00
  -0.29400000E+01           0.00000000E+00
  -0.29300000E+01           0.00000000E+00
  -0.29200000E+01           0.00000000E+00
  -0.29100000E+01           0.00000000E+00
  -0.29000000E+01           0.00000000E+00
  -0.28900000E+01           0.00000000E+00
  -0.28800000E+01           0.00000000E+00
  -0.28700000E+01           0.00000000E+00
  -0.28600000E+01           0.00000000E+00
  -0.28500000E+01           0.00000000E+00
  -0.28400000E+01           0.00000000E+00
  -0.28300000E+01           0.00000000E+00
  -0.28200000E+01           0.00000000E+00
  -0.28100000E+01           0.00000000E+00
  -0.28000000E+01           0.00000000E+00
  -0.27900000E+01           0.00000000E+00
  -0.27800000E+01           0.00000000E+00
  -0.27700000E+01           0.00000000E+00
  -0.27600000E+01           0.00000000E+00
  -0.27500000E+01           0.00000000E+00
  -0.27400000E+01           0.00000000E+00
  -0.27300000E+01           0.00000000E+00
  -0.27200000E+01           0.00000000E+00
  -0.27100000E+01           0.00000000E+00
  -0.27000000E+01           0.00000000E+00
  -0.26900000E+01           0.00000000E+00
  -0.26800000E+01           0.00000000E+00
  -0.26700000E+01           0.00000000E+00
  -0.26600000E+01           0.00000000E+00
  -0.26500000E+01           0.00000000E+00
  -0.26400000E+01           0.00000000E+00
  -0.26300000E+01           0.00000000E+00
  -0.26200000E+01           0.00000000E+00
  -0.26100000E+01           0.00000000E+00
  -0.26000000E+01           0.00000000E+00
  -0.25900000E+01           0.00000000E+00
  -0.25800000E+01           0.00000000E+00
  -0.25700000E+01           0.00000000E+00
  -0.25600000E+01           0.00000000E+00
  -0.25500000E+01           0.00000000E+00
  -0.25400000E+01           0.00000000E+00
  -0.25300000E+01           0.00000000E+00
  -0.25200000E+01           0.00000000E+00
  -0.25100000E+01           0.00000000E+00
  -0.25000000E+01           0.00000000E+00
  -0.24900000E+01           0.00000000E+00
  -0.24800000E+01           0.00000000E+00
  -0.24700000E+01           0.00000000E+00
  -0.24600000E+01           0.00000000E+00
  -0.24500000E+01           0.00000000E+00
  -0.24400000E+01           0.00000000E+00
  -0.24300000E+01           0.00000000E+00
  -0.24200000E+01           0.00000000E+00
  -0.24100000E+01           0.00000000E+00
  -0.24000000E+01           0.00000000E+00
  -0.23900000E+01           0.00000000E+00
  -0.23800000E+01           0.00000000E+00
  -0.23700000E+01           0.00000000E+00
  -0.23600000E+01           0.00000000E+00
  -0.23500000E+01           0.00000000E+00
  -0.23400000E+01           0.00000000E+00
  -0.23300000E+01           0.00000000E+00
  -0.23200000E+01           0.00000000E+00
  -0.23100000E+01           0.00000000E+00
  -0.23000000E+01           0.00000000E+00
  -0.22900000E+01           0.00000000E+00
  -0.22800000E+01           0.00000000E+00
  -0.22700000E+01           0.00000000E+00
  -0.22600000E+01           0.00000000E+00
  -0.22500000E+01           0.00000000E+00
  -0.22400000E+01           0.00000000E+00
  -0.22300000E+01           0.00000000E+00
  -0.22200000E+01           0.00000000E+00
  -0.22100000E+01           0.00000000E+00
  -0.22000000E+01           0.00000000E+00
  -0.21900000E+01           0.00000000E+00
  -0.21800000E+01           0.00000000E+00
  -0.21700000E+01           0.00000000E+00
  -0.21600000E+01           0.00000000E+00
  -0.21500000E+01           0.00000000E+00
  -0.21400000E+01           0.00000000E+00
  -0.21300000E+01           0.00000000E+00
  -0.21200000E+01           0.00000000E+00
  -0.21100000E+01           0.00000000E+00
  -0.21000000E+01           0.00000000E+00
  -0.20900000E+01           0.00000000E+00
  -0.20800000E+01           0.00000000E+00
  -0.20700000E+01           0.00000000E+00
  -0.20600000E+01           0.00000000E+00
  -0.20500000E+01           0.00000000E+00
  -0.20400000E+01           0.00000000E+00
  -0.20300000E+01           0.00000000E+00
  -0.20200000E+01           0.00000000E+00
  -0.20100000E+01           0.00000000E+00
  -0.20000000E+01           0.00000000E+00
  -0.19900000E+01           0.00000000E+00
  -0.19800000E+01           0.00000000E+00
  -0.19700000E+01           0.00000000E+00
  -0.19600000E+01           0.00000000E+00
  -0.19500000E+01           0.00000000E+00
  -0.19400000E+01           0.00000000E+00
  -0.19300000E+01           0.00000000E+00
  -0.19200000E+01           0.00000000E+00
  -0.19100000E+01           0.00000000E+00
  -0.19000000E+01           0.00000000E+00
  -0.18900000E+01           0.00000000E+00
  -0.18800000E+01           0.00000000E+00
  -0.18700000E+01           0.00000000E+00
  -0.18600000E+01           0.00000000E+00
  -0.18500000E+01           0.00000000E+00
  -0.18400000E+01           0.00000000E+00
  -0.18300000E+01           0.00000000E+00
  -0.18200000E+01           0.00000000E+00
  -0.18100000E+01           0.00000000E+00
  -0.18000000E+01           0.00000000E+00
  -0.17900000E+01           0.00000000E+00
  -0.17800000E+01           0.00000000E+00
  -0.17700000E+01           0.00000000E+00
  -0.17600000E+01           0.00000000E+00
  -0.17500000E+01           0.00000000E+00
  -0.17400000E+01           0.00000000E+00
  -0.17300000E+01           0.00000000E+00
  -0.17200000E+01           0.00000000E+00
  -0.17100000E+01           0.00000000E+00
  -0.17000000E+01           0.00000000E+00
  -0.16900000E+01           0.00000000E+00
  -0.16800000E+01           0.00000000E+00
  -0.16700000E+01           0.00000000E+00
  -0.16600000E+01           0.00000000E+00
  -0.16500000E+01           0.00000000E+00
  -0.16400000E+01           0.00000000E+00
  -0.16300000E+01           0.00000000E+00
  -0.16200000E+01           0.00000000E+00
  -0.16100000E+01           0.00000000E+00
  -0.16000000E+01           0.00000000E+00
  -0.15900000E+01           0.00000000E+00
  -0.15800000E+01           0.00000000E+00
  -0.15700000E+01           0.00000000E+00
  -0.15600000E+01           0.00000000E+00
  -0.15500000E+01           0.00000000E+00
  -0.15400000E+01           0.00000000E+00
  -0.15300000E+01           0.00000000E+00
  -0.15200000E+01           0.00000000E+00
  -0.15100000E+01           0.00000000E+00
  -0.15000000E+01           0.00000000E+00
  -0.14900000E+01           0.00000000E+00
[...]
  -0.64000000E+00           0.00000000E+00
  -0.63000000E+00           0.00000000E+00
  -0.62000000E+00           0.00000000E+00
  -0.61000000E+00           0.00000000E+00
  -0.60000000E+00           0.00000000E+00
  -0.59000000E+00           0.00000000E+00
  -0.58000000E+00           0.00000000E+00
  -0.57000000E+00           0.00000000E+00
  -0.56000000E+00           0.00000000E+00
  -0.55000000E+00           0.00000000E+00
  -0.54000000E+00           0.00000000E+00
  -0.53000000E+00           0.00000000E+00
  -0.52000000E+00           0.00000000E+00
  -0.51000000E+00           0.00000000E+00
  -0.50000000E+00           0.00000000E+00
  -0.49000000E+00           0.00000000E+00
  -0.48000000E+00           0.00000000E+00
  -0.47000000E+00           0.00000000E+00
  -0.46000000E+00           0.00000000E+00
  -0.45000000E+00           0.00000000E+00
  -0.44000000E+00           0.00000000E+00
  -0.43000000E+00           0.00000000E+00
  -0.42000000E+00           0.00000000E+00
  -0.41000000E+00           0.00000000E+00
  -0.40000000E+00           0.00000000E+00
  -0.39000000E+00           0.00000000E+00
  -0.38000000E+00           0.00000000E+00
  -0.37000000E+00           0.00000000E+00
  -0.36000000E+00           0.00000000E+00
  -0.35000000E+00           0.00000000E+00
  -0.34000000E+00           0.00000000E+00
  -0.33000000E+00           0.00000000E+00
  -0.32000000E+00           0.00000000E+00
  -0.31000000E+00           0.00000000E+00
  -0.30000000E+00           0.00000000E+00
  -0.29000000E+00           0.00000000E+00
  -0.28000000E+00           0.00000000E+00
  -0.27000000E+00           0.00000000E+00
  -0.26000000E+00           0.00000000E+00
  -0.25000000E+00           0.00000000E+00
  -0.24000000E+00           0.00000000E+00
  -0.23000000E+00           0.00000000E+00
  -0.22000000E+00           0.00000000E+00
  -0.21000000E+00           0.00000000E+00
  -0.20000000E+00           0.00000000E+00
  -0.19000000E+00           0.00000000E+00
  -0.18000000E+00           0.00000000E+00
  -0.17000000E+00           0.00000000E+00
  -0.16000000E+00           0.00000000E+00
  -0.15000000E+00           0.00000000E+00
  -0.14000000E+00           0.00000000E+00
  -0.13000000E+00           0.00000000E+00
  -0.12000000E+00           0.00000000E+00
  -0.11000000E+00           0.00000000E+00
  -0.10000000E+00           0.00000000E+00
  -0.90000000E-01           0.00000000E+00
  -0.80000000E-01           0.00000000E+00
  -0.70000000E-01           0.00000000E+00
  -0.60000000E-01           0.00000000E+00
  -0.50000000E-01           0.00000000E+00
  -0.40000000E-01           0.00000000E+00
  -0.30000000E-01           0.00000000E+00
  -0.20000000E-01           0.00000000E+00
  -0.10000000E-01           0.00000000E+00
   0.00000000E+00           0.61111111E-05
   0.10000000E-01           0.17333333E-03
   0.20000000E-01           0.66462963E-03
   0.30000000E-01           0.14831481E-02
   0.40000000E-01           0.26066667E-02
   0.50000000E-01           0.40570370E-02
   0.60000000E-01           0.58222222E-02
   0.70000000E-01           0.77775926E-02
   0.80000000E-01           0.10096111E-01
   0.90000000E-01           0.12570926E-01
   0.10000000E+00           0.15345741E-01
   0.11000000E+00           0.18592037E-01
   0.12000000E+00           0.21837407E-01
   0.13000000E+00           0.25520741E-01
   0.14000000E+00           0.29299074E-01
   0.15000000E+00           0.33393889E-01
   0.16000000E+00           0.37668333E-01
   0.17000000E+00           0.42106296E-01
   0.18000000E+00           0.46899815E-01
   0.19000000E+00           0.51835926E-01
   0.20000000E+00           0.56893704E-01
   0.21000000E+00           0.62198333E-01
   0.22000000E+00           0.67701481E-01
   0.23000000E+00           0.73484630E-01
   0.24000000E+00           0.79128889E-01
   0.25000000E+00           0.85259815E-01
   0.26000000E+00           0.91555556E-01
   0.27000000E+00           0.97750926E-01
   0.28000000E+00           0.10413944E+00
   0.29000000E+00           0.11107167E+00
   0.30000000E+00           0.11738407E+00
   0.31000000E+00           0.12436963E+00
   0.32000000E+00           0.13115630E+00
   0.33000000E+00           0.13851704E+00
   0.34000000E+00           0.14540130E+00
   0.35000000E+00           0.15290556E+00
   0.36000000E+00           0.16010111E+00
   0.37000000E+00           0.16815704E+00
   0.38000000E+00           0.17547704E+00
   0.39000000E+00           0.18321093E+00
   0.40000000E+00           0.19067426E+00
   0.41000000E+00           0.19853741E+00
   0.42000000E+00           0.20622093E+00
   0.43000000E+00           0.21393611E+00
   0.44000000E+00           0.22195852E+00
   0.45000000E+00           0.23012407E+00
   0.46000000E+00           0.23769185E+00
   0.47000000E+00           0.24600926E+00
   0.48000000E+00           0.25395222E+00
   0.49000000E+00           0.26218463E+00
   0.50000000E+00           0.27033056E+00
   0.51000000E+00           0.27837907E+00
   0.52000000E+00           0.28622333E+00
   0.53000000E+00           0.29456537E+00
   0.54000000E+00           0.30257833E+00
   0.55000000E+00           0.31092204E+00
   0.56000000E+00           0.31876926E+00
   0.57000000E+00           0.32697593E+00
   0.58000000E+00           0.33497537E+00
   0.59000000E+00           0.34297481E+00
   0.60000000E+00           0.35080167E+00
   0.61000000E+00           0.35867296E+00
   0.62000000E+00           0.36618278E+00
   0.63000000E+00           0.37464241E+00
   0.64000000E+00           0.38249389E+00
   0.65000000E+00           0.39024241E+00
   0.66000000E+00           0.39772926E+00
   0.67000000E+00           0.40592704E+00
   0.68000000E+00           0.41323778E+00
   0.69000000E+00           0.42019315E+00
   0.70000000E+00           0.42776296E+00
   0.71000000E+00           0.43519500E+00
   0.72000000E+00           0.44220204E+00
   0.73000000E+00           0.45000204E+00
   0.74000000E+00           0.45686537E+00
   0.75000000E+00           0.46326593E+00
   0.76000000E+00           0.47002944E+00
   0.77000000E+00           0.47648759E+00
   0.78000000E+00           0.48378296E+00
   0.79000000E+00           0.49056407E+00
   0.80000000E+00           0.49695241E+00
   0.81000000E+00           0.50284296E+00
   0.82000000E+00           0.50956519E+00
   0.83000000E+00           0.51532056E+00
   0.84000000E+00           0.52129426E+00
   0.85000000E+00           0.52746759E+00
   0.86000000E+00           0.53330333E+00
   0.87000000E+00           0.53866981E+00
   0.88000000E+00           0.54479222E+00
   0.89000000E+00           0.54940500E+00
   0.90000000E+00           0.55503630E+00
   0.91000000E+00           0.55963222E+00
   0.92000000E+00           0.56490519E+00
   0.93000000E+00           0.56963296E+00
   0.94000000E+00           0.57525167E+00
   0.95000000E+00           0.57890204E+00
   0.96000000E+00           0.58364204E+00
   0.97000000E+00           0.58832463E+00
   0.98000000E+00           0.59269944E+00
   0.99000000E+00           0.59609333E+00
   0.10000000E+01           0.59989500E+00
   0.10100000E+01           0.60371833E+00
   0.10200000E+01           0.60753944E+00
   0.10300000E+01           0.61068741E+00
   0.10400000E+01           0.61413389E+00
   0.10500000E+01           0.61782204E+00
   0.10600000E+01           0.62055278E+00
   0.10700000E+01           0.62308648E+00
   0.10800000E+01           0.62589833E+00
   0.10900000E+01           0.62789296E+00
   0.11000000E+01           0.63094093E+00
   0.11100000E+01           0.63310222E+00
   0.11200000E+01           0.63476426E+00
   0.11300000E+01           0.63731259E+00
   0.11400000E+01           0.63907907E+00
   0.11500000E+01           0.64110815E+00
   0.11600000E+01           0.64146778E+00
   0.11700000E+01           0.64321148E+00
   0.11800000E+01           0.64408944E+00
   0.11900000E+01           0.64556759E+00
   0.12000000E+01           0.64727870E+00
   0.12100000E+01           0.64672352E+00
   0.12200000E+01           0.64742148E+00
   0.12300000E+01           0.64783500E+00
   0.12400000E+01           0.64915833E+00
   0.12500000E+01           0.64794741E+00
   0.12600000E+01           0.64914000E+00
   0.12700000E+01           0.64884074E+00
   0.12800000E+01           0.64862278E+00
   0.12900000E+01           0.64869037E+00
   0.13000000E+01           0.64713315E+00
   0.13100000E+01           0.64722389E+00
   0.13200000E+01           0.64559667E+00
   0.13300000E+01           0.64508426E+00
   0.13400000E+01           0.64402593E+00
   0.13500000E+01           0.64204222E+00
   0.13600000E+01           0.64112056E+00
   0.13700000E+01           0.63976852E+00
   0.13800000E+01           0.63823259E+00
   0.13900000E+01           0.63609222E+00
   0.14000000E+01           0.63443148E+00
   0.14100000E+01           0.63223759E+00
   0.14200000E+01           0.63014296E+00
   0.14300000E+01           0.62760222E+00
   0.14400000E+01           0.62569333E+00
   0.14500000E+01           0.62230389E+00
   0.14600000E+01           0.62044926E+00
   0.14700000E+01           0.61814296E+00
   0.14800000E+01           0.61458259E+00
   0.14900000E+01           0.61191241E+00
   0.15000000E+01           0.60796481E+00
   0.15100000E+01           0.60461019E+00
   0.15200000E+01           0.60176019E+00
   0.15300000E+01           0.59942259E+00
   0.15400000E+01           0.59548000E+00
   0.15500000E+01           0.59130815E+00
   0.15600000E+01           0.58833130E+00
   0.15700000E+01           0.58366481E+00
   0.15800000E+01           0.58058167E+00
   0.15900000E+01           0.57593500E+00
   0.16000000E+01           0.57212500E+00
   0.16100000E+01           0.56723519E+00
   0.16200000E+01           0.56400352E+00
   0.16300000E+01           0.55900556E+00
   0.16400000E+01           0.55461593E+00
   0.16500000E+01           0.55017926E+00
   0.16600000E+01           0.54609519E+00
   0.16700000E+01           0.54036963E+00
   0.16800000E+01           0.53630259E+00
   0.16900000E+01           0.53142593E+00
   0.17000000E+01           0.52594130E+00
   0.17100000E+01           0.52199833E+00
   0.17200000E+01           0.51632889E+00
   0.17300000E+01           0.51101407E+00
   0.17400000E+01           0.50594000E+00
   0.17500000E+01           0.50090519E+00
   0.17600000E+01           0.49536370E+00
   0.17700000E+01           0.49053037E+00
   0.17800000E+01           0.48526815E+00
   0.17900000E+01           0.47952741E+00
   0.18000000E+01           0.47402389E+00
   0.18100000E+01           0.46859389E+00
   0.18200000E+01           0.46309352E+00
   0.18300000E+01           0.45701296E+00
   0.18400000E+01           0.45195852E+00
   0.18500000E+01           0.44586000E+00
   0.18600000E+01           0.44036352E+00
   0.18700000E+01           0.43411463E+00
   0.18800000E+01           0.42816278E+00
   0.18900000E+01           0.42283315E+00
   0.19000000E+01           0.41720944E+00
   0.19100000E+01           0.41129222E+00
   0.19200000E+01           0.40532259E+00
   0.19300000E+01           0.39981778E+00
   0.19400000E+01           0.39295852E+00
   0.19500000E+01           0.38713926E+00
   0.19600000E+01           0.38120222E+00
   0.19700000E+01           0.37579148E+00
   0.19800000E+01           0.36886611E+00
   0.19900000E+01           0.36257019E+00
   0.20000000E+01           0.35744481E+00
   0.20100000E+01           0.35106537E+00
   0.20200000E+01           0.34542722E+00
   0.20300000E+01           0.33929500E+00
   0.20400000E+01           0.33303852E+00
   0.20500000E+01           0.32769463E+00
   0.20600000E+01           0.32193093E+00
   0.20700000E+01           0.31659648E+00
   0.20800000E+01           0.31032870E+00
   0.20900000E+01           0.30522537E+00
   0.21000000E+01           0.29973315E+00
   0.21100000E+01           0.29372037E+00
   0.21200000E+01           0.28868074E+00
   0.21300000E+01           0.28375926E+00
   0.21400000E+01           0.27822259E+00
   0.21500000E+01           0.27306926E+00
   0.21600000E+01           0.26775944E+00
   0.21700000E+01           0.26271833E+00
   0.21800000E+01           0.25771667E+00
   0.21900000E+01           0.25275556E+00
   0.22000000E+01           0.24786648E+00
   0.22100000E+01           0.24309667E+00
   0.22200000E+01           0.23835333E+00
   0.22300000E+01           0.23360259E+00
   0.22400000E+01           0.22882037E+00
   0.22500000E+01           0.22447889E+00
   0.22600000E+01           0.21975481E+00
   0.22700000E+01           0.21542815E+00
   0.22800000E+01           0.21089796E+00
   0.22900000E+01           0.20608315E+00
   0.23000000E+01           0.20197500E+00
   0.23100000E+01           0.19793259E+00
   0.23200000E+01           0.19351037E+00
   0.23300000E+01           0.18959204E+00
   0.23400000E+01           0.18562259E+00
   0.23500000E+01           0.18139130E+00
   0.23600000E+01           0.17767333E+00
   0.23700000E+01           0.17359000E+00
   0.23800000E+01           0.16978148E+00
   0.23900000E+01           0.16601889E+00
   0.24000000E+01           0.16246130E+00
   0.24100000E+01           0.15876963E+00
   0.24200000E+01           0.15530519E+00
   0.24300000E+01           0.15135963E+00
   0.24400000E+01           0.14811648E+00
   0.24500000E+01           0.14481667E+00
   0.24600000E+01           0.14149241E+00
   0.24700000E+01           0.13809296E+00
   0.24800000E+01           0.13469685E+00
   0.24900000E+01           0.13176370E+00
   0.25000000E+01           0.12858500E+00
   0.25100000E+01           0.12544148E+00
   0.25200000E+01           0.12252833E+00
   0.25300000E+01           0.11926759E+00
   0.25400000E+01           0.11652130E+00
   0.25500000E+01           0.11340241E+00
   0.25600000E+01           0.11049407E+00
   0.25700000E+01           0.10829574E+00
   0.25800000E+01           0.10507519E+00
   0.25900000E+01           0.10262704E+00
   0.26000000E+01           0.10008185E+00
   0.26100000E+01           0.97408333E-01
   0.26200000E+01           0.94682593E-01
   0.26300000E+01           0.92538704E-01
   0.26400000E+01           0.90129074E-01
   0.26500000E+01           0.87636296E-01
   0.26600000E+01           0.85474074E-01
   0.26700000E+01           0.83245370E-01
   0.26800000E+01           0.80844444E-01
   0.26900000E+01           0.78783889E-01
   0.27000000E+01           0.76543704E-01
   0.27100000E+01           0.74424630E-01
   0.27200000E+01           0.72292037E-01
   0.27300000E+01           0.70436481E-01
   0.27400000E+01           0.68430741E-01
   0.27500000E+01           0.66458704E-01
   0.27600000E+01           0.64493519E-01
   0.27700000E+01           0.62845556E-01
   0.27800000E+01           0.61055556E-01
   0.27900000E+01           0.59282963E-01
   0.28000000E+01           0.57559074E-01
   0.28100000E+01           0.55955000E-01
   0.28200000E+01           0.54027778E-01
   0.28300000E+01           0.52388333E-01
   0.28400000E+01           0.50928519E-01
   0.28500000E+01           0.49334444E-01
   0.28600000E+01           0.47830185E-01
   0.28700000E+01           0.46373333E-01
   0.28800000E+01           0.44998333E-01
   0.28900000E+01           0.43680000E-01
   0.29000000E+01           0.42240370E-01
   0.29100000E+01           0.40854444E-01
   0.29200000E+01           0.39600000E-01
   0.29300000E+01           0.38321111E-01
   0.29400000E+01           0.37120370E-01
   0.29500000E+01           0.36035556E-01
   0.29600000E+01           0.34731111E-01
   0.29700000E+01           0.33558148E-01
   0.29800000E+01           0.32538889E-01
   0.29900000E+01           0.31447222E-01
   0.30000000E+01           0.30298519E-01
   0.30100000E+01           0.29476296E-01
   0.30200000E+01           0.28371296E-01
   0.30300000E+01           0.27412593E-01
   0.30400000E+01           0.26417963E-01
   0.30500000E+01           0.25525926E-01
   0.30600000E+01           0.24569259E-01
   0.30700000E+01           0.23653148E-01
   0.30800000E+01           0.22911667E-01
   0.30900000E+01           0.21984074E-01
   0.31000000E+01           0.21276111E-01
   0.31100000E+01           0.20519259E-01
   0.31200000E+01           0.19582963E-01
   0.31300000E+01           0.18927407E-01
   0.31400000E+01           0.18274259E-01
   0.31500000E+01           0.17548704E-01
   0.31600000E+01           0.16819630E-01
   0.31700000E+01           0.16313333E-01
   0.31800000E+01           0.15570370E-01
   0.31900000E+01           0.15015000E-01
   0.32000000E+01           0.14477037E-01
   0.32100000E+01           0.13735926E-01
   0.32200000E+01           0.13256852E-01
   0.32300000E+01           0.12570185E-01
   0.32400000E+01           0.12195370E-01
   0.32500000E+01           0.11735370E-01
   0.32600000E+01           0.11276852E-01
   0.32700000E+01           0.10753889E-01
   0.32800000E+01           0.10201296E-01
   0.32900000E+01           0.98581481E-02
   0.33000000E+01           0.93737037E-02
   0.33100000E+01           0.89866667E-02
   0.33200000E+01           0.85548148E-02
   0.33300000E+01           0.81612963E-02
   0.33400000E+01           0.78103704E-02
   0.33500000E+01           0.74748148E-02
   0.33600000E+01           0.71637037E-02
   0.33700000E+01           0.67901852E-02
   0.33800000E+01           0.64309259E-02
   0.33900000E+01           0.61775926E-02
   0.34000000E+01           0.58662963E-02
   0.34100000E+01           0.55796296E-02
   0.34200000E+01           0.53177778E-02
   0.34300000E+01           0.50135185E-02
   0.34400000E+01           0.47479630E-02
   0.34500000E+01           0.44861111E-02
   0.34600000E+01           0.42907407E-02
   0.34700000E+01           0.40985185E-02
   0.34800000E+01           0.38357407E-02
   0.34900000E+01           0.36401852E-02
   0.35000000E+01           0.33644444E-02
   0.35100000E+01           0.32601852E-02
   0.35200000E+01           0.30561111E-02
   0.35300000E+01           0.28787037E-02
   0.35400000E+01           0.26468519E-02
   0.35500000E+01           0.25300000E-02
   0.35600000E+01           0.24146296E-02
   0.35700000E+01           0.22585185E-02
   0.35800000E+01           0.21242593E-02
   0.35900000E+01           0.19416667E-02
   0.36000000E+01           0.18435185E-02
   0.36100000E+01           0.17020370E-02
   0.36200000E+01           0.15750000E-02
   0.36300000E+01           0.15125926E-02
   0.36400000E+01           0.13707407E-02
   0.36500000E+01           0.12883333E-02
   0.36600000E+01           0.11887037E-02
   0.36700000E+01           0.10820370E-02
   0.36800000E+01           0.10135185E-02
   0.36900000E+01           0.91870370E-03
   0.37000000E+01           0.84907407E-03
   0.37100000E+01           0.79962963E-03
   0.37200000E+01           0.71074074E-03
   0.37300000E+01           0.65000000E-03
   0.37400000E+01           0.60611111E-03
   0.37500000E+01           0.55314815E-03
   0.37600000E+01           0.49111111E-03
   0.37700000E+01           0.42981481E-03
   0.37800000E+01           0.39796296E-03
   0.37900000E+01           0.36407407E-03
   0.38000000E+01           0.31722222E-03
   0.38100000E+01           0.28092593E-03
   0.38200000E+01           0.25148148E-03
   0.38300000E+01           0.21962963E-03
   0.38400000E+01           0.18185185E-03
   0.38500000E+01           0.16388889E-03
   0.38600000E+01           0.14111111E-03
   0.38700000E+01           0.11129630E-03
   0.38800000E+01           0.95925926E-04
   0.38900000E+01           0.86481481E-04
   0.39000000E+01           0.69259259E-04
   0.39100000E+01           0.47407407E-04
   0.39200000E+01           0.35555556E-04
   0.39300000E+01           0.25370370E-04
   0.39400000E+01           0.23148148E-04
   0.39500000E+01           0.16666667E-04
   0.39600000E+01           0.10740741E-04
   0.39700000E+01           0.59259259E-05
   0.39800000E+01           0.11111111E-05
   0.39900000E+01           0.92592593E-06
   0.40000000E+01           0.00000000E+00
