 #written on 30Nov2024 at 12:06:17 
 #----------------- MONTECARLO -------------------#
 #        M                      P(M)             #
 #------------------------------------------------#
 #T=   140.0000
  -0.20000000E+01           0.00000000E+00
  -0.19900000E+01           0.00000000E+00
  -0.19800000E+01           0.00000000E+00
  -0.19700000E+01           0.00000000E+00
  -0.19600000E+01           0.00000000E+00
  -0.19500000E+01           0.00000000E+00
  -0.19400000E+01           0.00000000E+00
  -0.19300000E+01           0.00000000E+00
  -0.19200000E+01           0.00000000E+00
  -0.19100000E+01           0.00000000E+00
  -0.19000000E+01           0.00000000E+00
  -0.18900000E+01           0.00000000E+00
  -0.18800000E+01           0.00000000E+00
  -0.18700000E+01           0.00000000E+00
  -0.18600000E+01           0.00000000E+00
  -0.18500000E+01           0.00000000E+00
  -0.18400000E+01           0.00000000E+00
  -0.18300000E+01           0.00000000E+00
  -0.18200000E+01           0.00000000E+00
  -0.18100000E+01           0.00000000E+00
  -0.18000000E+01           0.00000000E+00
  -0.17900000E+01           0.00000000E+00
  -0.17800000E+01           0.00000000E+00
  -0.17700000E+01           0.00000000E+00
  -0.17600000E+01           0.00000000E+00
  -0.17500000E+01           0.00000000E+00
  -0.17400000E+01           0.00000000E+00
  -0.17300000E+01           0.00000000E+00
  -0.17200000E+01           0.00000000E+00
  -0.17100000E+01           0.00000000E+00
  -0.17000000E+01           0.00000000E+00
  -0.16900000E+01           0.00000000E+00
  -0.16800000E+01           0.00000000E+00
  -0.16700000E+01           0.00000000E+00
  -0.16600000E+01           0.00000000E+00
  -0.16500000E+01           0.00000000E+00
  -0.16400000E+01           0.00000000E+00
  -0.16300000E+01           0.00000000E+00
  -0.16200000E+01           0.00000000E+00
  -0.16100000E+01           0.00000000E+00
  -0.16000000E+01           0.00000000E+00
  -0.15900000E+01           0.00000000E+00
  -0.15800000E+01           0.00000000E+00
  -0.15700000E+01           0.00000000E+00
  -0.15600000E+01           0.00000000E+00
  -0.15500000E+01           0.00000000E+00
  -0.15400000E+01           0.00000000E+00
  -0.15300000E+01           0.00000000E+00
  -0.15200000E+01           0.00000000E+00
  -0.15100000E+01           0.00000000E+00
  -0.15000000E+01           0.00000000E+00
  -0.14900000E+01           0.00000000E+00
  -0.14800000E+01           0.00000000E+00
  -0.14700000E+01           0.00000000E+00
  -0.14600000E+01           0.00000000E+00
  -0.14500000E+01           0.00000000E+00
  -0.14400000E+01           0.00000000E+00
  -0.14300000E+01           0.00000000E+00
  -0.14200000E+01           0.00000000E+00
  -0.14100000E+01           0.00000000E+00
  -0.14000000E+01           0.00000000E+00
  -0.13900000E+01           0.00000000E+00
  -0.13800000E+01           0.00000000E+00
  -0.13700000E+01           0.00000000E+00
  -0.13600000E+01           0.00000000E+00
  -0.13500000E+01           0.00000000E+00
  -0.13400000E+01           0.00000000E+00
  -0.13300000E+01           0.00000000E+00
  -0.13200000E+01           0.00000000E+00
  -0.13100000E+01           0.00000000E+00
  -0.13000000E+01           0.00000000E+00
  -0.12900000E+01           0.00000000E+00
  -0.12800000E+01           0.00000000E+00
  -0.12700000E+01           0.00000000E+00
  -0.12600000E+01           0.00000000E+00
  -0.12500000E+01           0.00000000E+00
  -0.12400000E+01           0.00000000E+00
  -0.12300000E+01           0.00000000E+00
  -0.12200000E+01           0.00000000E+00
  -0.12100000E+01           0.00000000E+00
  -0.12000000E+01           0.00000000E+00
  -0.11900000E+01           0.00000000E+00
  -0.11800000E+01           0.00000000E+00
  -0.11700000E+01           0.00000000E+00
  -0.11600000E+01           0.00000000E+00
  -0.11500000E+01           0.00000000E+00
  -0.11400000E+01           0.00000000E+00
  -0.11300000E+01           0.00000000E+00
  -0.11200000E+01           0.00000000E+00
  -0.11100000E+01           0.00000000E+00
  -0.11000000E+01           0.00000000E+00
  -0.10900000E+01           0.00000000E+00
  -0.10800000E+01           0.00000000E+00
  -0.10700000E+01           0.00000000E+00
  -0.10600000E+01           0.00000000E+00
  -0.10500000E+01           0.00000000E+00
  -0.10400000E+01           0.00000000E+00
  -0.10300000E+01           0.00000000E+00
  -0.10200000E+01           0.00000000E+00
  -0.10100000E+01           0.00000000E+00
  -0.10000000E+01           0.00000000E+00
  -0.99000000E+00           0.00000000E+00
  -0.98000000E+00           0.00000000E+00
  -0.97000000E+00           0.00000000E+00
  -0.96000000E+00           0.00000000E+00
  -0.95000000E+00           0.00000000E+00
  -0.94000000E+00           0.00000000E+00
  -0.93000000E+00           0.00000000E+00
  -0.92000000E+00           0.00000000E+00
  -0.91000000E+00           0.00000000E+00
  -0.90000000E+00           0.00000000E+00
  -0.89000000E+00           0.00000000E+00
  -0.88000000E+00           0.00000000E+00
  -0.87000000E+00           0.00000000E+00
  -0.86000000E+00           0.00000000E+00
  -0.85000000E+00           0.00000000E+00
  -0.84000000E+00           0.00000000E+00
  -0.83000000E+00           0.00000000E+00
  -0.82000000E+00           0.00000000E+00
  -0.81000000E+00           0.00000000E+00
  -0.80000000E+00           0.00000000E+00
  -0.79000000E+00           0.00000000E+00
  -0.78000000E+00           0.00000000E+00
  -0.77000000E+00           0.00000000E+00
  -0.76000000E+00           0.00000000E+00
  -0.75000000E+00           0.00000000E+00
  -0.74000000E+00           0.00000000E+00
  -0.73000000E+00           0.00000000E+00
  -0.72000000E+00           0.00000000E+00
  -0.71000000E+00           0.00000000E+00
  -0.70000000E+00           0.00000000E+00
  -0.69000000E+00           0.00000000E+00
  -0.68000000E+00           0.00000000E+00
  -0.67000000E+00           0.00000000E+00
  -0.66000000E+00           0.00000000E+00
  -0.65000000E+00           0.00000000E+00
  -0.64000000E+00           0.00000000E+00
  -0.63000000E+00           0.00000000E+00
  -0.62000000E+00           0.00000000E+00
  -0.61000000E+00           0.00000000E+00
  -0.60000000E+00           0.00000000E+00
  -0.59000000E+00           0.00000000E+00
  -0.58000000E+00           0.00000000E+00
  -0.57000000E+00           0.00000000E+00
  -0.56000000E+00           0.00000000E+00
  -0.55000000E+00           0.00000000E+00
  -0.54000000E+00           0.00000000E+00
  -0.53000000E+00           0.00000000E+00
  -0.52000000E+00           0.00000000E+00
  -0.51000000E+00           0.00000000E+00
  -0.50000000E+00           0.00000000E+00
  -0.49000000E+00           0.00000000E+00
  -0.48000000E+00           0.00000000E+00
  -0.47000000E+00           0.00000000E+00
  -0.46000000E+00           0.00000000E+00
  -0.45000000E+00           0.00000000E+00
  -0.44000000E+00           0.00000000E+00
  -0.43000000E+00           0.00000000E+00
  -0.42000000E+00           0.00000000E+00
  -0.41000000E+00           0.00000000E+00
  -0.40000000E+00           0.00000000E+00
  -0.39000000E+00           0.00000000E+00
  -0.38000000E+00           0.00000000E+00
  -0.37000000E+00           0.00000000E+00
  -0.36000000E+00           0.00000000E+00
  -0.35000000E+00           0.00000000E+00
  -0.34000000E+00           0.00000000E+00
  -0.33000000E+00           0.00000000E+00
  -0.32000000E+00           0.00000000E+00
  -0.31000000E+00           0.00000000E+00
  -0.30000000E+00           0.00000000E+00
  -0.29000000E+00           0.00000000E+00
  -0.28000000E+00           0.00000000E+00
  -0.27000000E+00           0.00000000E+00
  -0.26000000E+00           0.00000000E+00
  -0.25000000E+00           0.00000000E+00
  -0.24000000E+00           0.00000000E+00
  -0.23000000E+00           0.00000000E+00
  -0.22000000E+00           0.00000000E+00
  -0.21000000E+00           0.00000000E+00
  -0.20000000E+00           0.00000000E+00
  -0.19000000E+00           0.00000000E+00
  -0.18000000E+00           0.00000000E+00
  -0.17000000E+00           0.00000000E+00
  -0.16000000E+00           0.00000000E+00
  -0.15000000E+00           0.00000000E+00
  -0.14000000E+00           0.00000000E+00
  -0.13000000E+00           0.00000000E+00
  -0.12000000E+00           0.00000000E+00
  -0.11000000E+00           0.00000000E+00
  -0.10000000E+00           0.00000000E+00
  -0.90000000E-01           0.00000000E+00
  -0.80000000E-01           0.00000000E+00
  -0.70000000E-01           0.00000000E+00
  -0.60000000E-01           0.00000000E+00
  -0.50000000E-01           0.00000000E+00
  -0.40000000E-01           0.00000000E+00
  -0.30000000E-01           0.00000000E+00
  -0.20000000E-01           0.00000000E+00
  -0.10000000E-01           0.00000000E+00
   0.00000000E+00           0.59770408E-02
   0.10000000E-01           0.47776247E-01
   0.20000000E-01           0.95662897E-01
   0.30000000E-01           0.14348430E+00
   0.40000000E-01           0.19077871E+00
   0.50000000E-01           0.23802370E+00
   0.60000000E-01           0.28475159E+00
   0.70000000E-01           0.33132276E+00
   0.80000000E-01           0.37725558E+00
   0.90000000E-01           0.42301043E+00
   0.10000000E+00           0.46732571E+00
   0.11000000E+00           0.51154819E+00
   0.12000000E+00           0.55511536E+00
   0.13000000E+00           0.59786491E+00
   0.14000000E+00           0.63973895E+00
   0.15000000E+00           0.68095130E+00
   0.16000000E+00           0.72147115E+00
   0.17000000E+00           0.76006193E+00
   0.18000000E+00           0.79853498E+00
   0.19000000E+00           0.83565006E+00
   0.20000000E+00           0.87122457E+00
   0.21000000E+00           0.90553299E+00
   0.22000000E+00           0.93997608E+00
   0.23000000E+00           0.97216905E+00
   0.24000000E+00           0.10027284E+01
   0.25000000E+00           0.10324072E+01
   0.26000000E+00           0.10611850E+01
   0.27000000E+00           0.10881121E+01
   0.28000000E+00           0.11146780E+01
   0.29000000E+00           0.11379247E+01
   0.30000000E+00           0.11612529E+01
   0.31000000E+00           0.11827975E+01
   0.32000000E+00           0.12030485E+01
   0.33000000E+00           0.12219884E+01
   0.34000000E+00           0.12389704E+01
   0.35000000E+00           0.12556004E+01
   0.36000000E+00           0.12692285E+01
   0.37000000E+00           0.12822227E+01
   0.38000000E+00           0.12935913E+01
   0.39000000E+00           0.13037693E+01
   0.40000000E+00           0.13120767E+01
   0.41000000E+00           0.13195781E+01
   0.42000000E+00           0.13254322E+01
   0.43000000E+00           0.13302446E+01
   0.44000000E+00           0.13337158E+01
   0.45000000E+00           0.13350623E+01
   0.46000000E+00           0.13353856E+01
   0.47000000E+00           0.13350550E+01
   0.48000000E+00           0.13334879E+01
   0.49000000E+00           0.13296743E+01
   0.50000000E+00           0.13250029E+01
   0.51000000E+00           0.13200301E+01
   0.52000000E+00           0.13127464E+01
   0.53000000E+00           0.13055704E+01
   0.54000000E+00           0.12967360E+01
   0.55000000E+00           0.12872536E+01
   0.56000000E+00           0.12764336E+01
   0.57000000E+00           0.12643259E+01
   0.58000000E+00           0.12520878E+01
   0.59000000E+00           0.12382072E+01
   0.60000000E+00           0.12239288E+01
   0.61000000E+00           0.12090449E+01
   0.62000000E+00           0.11939298E+01
   0.63000000E+00           0.11772439E+01
   0.64000000E+00           0.11600477E+01
   0.65000000E+00           0.11423989E+01
   0.66000000E+00           0.11245750E+01
   0.67000000E+00           0.11053849E+01
   0.68000000E+00           0.10862498E+01
   0.69000000E+00           0.10667454E+01
   0.70000000E+00           0.10471034E+01
   0.71000000E+00           0.10265427E+01
   0.72000000E+00           0.10058840E+01
   0.73000000E+00           0.98511712E+00
   0.74000000E+00           0.96356426E+00
   0.75000000E+00           0.94222452E+00
   0.76000000E+00           0.92021103E+00
   0.77000000E+00           0.89883132E+00
   0.78000000E+00           0.87754104E+00
   0.79000000E+00           0.85574989E+00
   0.80000000E+00           0.83395726E+00
   0.81000000E+00           0.81219422E+00
   0.82000000E+00           0.79038061E+00
   0.83000000E+00           0.76872270E+00
   0.84000000E+00           0.74727452E+00
   0.85000000E+00           0.72598107E+00
   0.86000000E+00           0.70441193E+00
   0.87000000E+00           0.68361151E+00
   0.88000000E+00           0.66296922E+00
   0.89000000E+00           0.64249810E+00
   0.90000000E+00           0.62176859E+00
   0.91000000E+00           0.60186871E+00
   0.92000000E+00           0.58156678E+00
   0.93000000E+00           0.56183129E+00
   0.94000000E+00           0.54268563E+00
   0.95000000E+00           0.52412137E+00
   0.96000000E+00           0.50543917E+00
   0.97000000E+00           0.48697857E+00
   0.98000000E+00           0.46921567E+00
   0.99000000E+00           0.45162412E+00
   0.10000000E+01           0.43441026E+00
   0.10100000E+01           0.41781599E+00
   0.10200000E+01           0.40133319E+00
   0.10300000E+01           0.38518469E+00
   0.10400000E+01           0.36974331E+00
   0.10500000E+01           0.35448923E+00
   0.10600000E+01           0.33964118E+00
   0.10700000E+01           0.32552429E+00
   0.10800000E+01           0.31140615E+00
   0.10900000E+01           0.29798189E+00
   0.11000000E+01           0.28465249E+00
   0.11100000E+01           0.27188061E+00
   0.11200000E+01           0.25956018E+00
   0.11300000E+01           0.24776740E+00
   0.11400000E+01           0.23615023E+00
   0.11500000E+01           0.22502985E+00
   0.11600000E+01           0.21424062E+00
   0.11700000E+01           0.20379442E+00
   0.11800000E+01           0.19377973E+00
   0.11900000E+01           0.18422440E+00
   0.12000000E+01           0.17483586E+00
   0.12100000E+01           0.16599391E+00
   0.12200000E+01           0.15741885E+00
   0.12300000E+01           0.14906222E+00
   0.12400000E+01           0.14120774E+00
   0.12500000E+01           0.13378186E+00
   0.12600000E+01           0.12652387E+00
   0.12700000E+01           0.11964099E+00
   0.12800000E+01           0.11286154E+00
   0.12900000E+01           0.10643722E+00
   0.13000000E+01           0.10058577E+00
   0.13100000E+01           0.94810714E-01
   0.13200000E+01           0.89166808E-01
   0.13300000E+01           0.83967744E-01
   0.13400000E+01           0.78972591E-01
   0.13500000E+01           0.74280669E-01
   0.13600000E+01           0.69815703E-01
   0.13700000E+01           0.65476162E-01
   0.13800000E+01           0.61409212E-01
   0.13900000E+01           0.57476729E-01
   0.14000000E+01           0.53926446E-01
   0.14100000E+01           0.50385402E-01
   0.14200000E+01           0.47105272E-01
   0.14300000E+01           0.44068311E-01
   0.14400000E+01           0.41147024E-01
   0.14500000E+01           0.38408305E-01
   0.14600000E+01           0.35724688E-01
   0.14700000E+01           0.33321457E-01
   0.14800000E+01           0.30991497E-01
   0.14900000E+01           0.28866638E-01
   0.15000000E+01           0.26771485E-01
   0.15100000E+01           0.24846570E-01
   0.15200000E+01           0.23071910E-01
   0.15300000E+01           0.21397846E-01
   0.15400000E+01           0.19790193E-01
   0.15500000E+01           0.18330357E-01
   0.15600000E+01           0.16937982E-01
   0.15700000E+01           0.15659977E-01
   0.15800000E+01           0.14427012E-01
   0.15900000E+01           0.13291355E-01
   0.16000000E+01           0.12212755E-01
   0.16100000E+01           0.11259439E-01
   0.16200000E+01           0.10399291E-01
   0.16300000E+01           0.94909580E-02
   0.16400000E+01           0.87287698E-02
   0.16500000E+01           0.79749150E-02
   0.16600000E+01           0.72873016E-02
   0.16700000E+01           0.67054422E-02
   0.16800000E+01           0.61255669E-02
   0.16900000E+01           0.55801304E-02
   0.17000000E+01           0.50956633E-02
   0.17100000E+01           0.46381803E-02
   0.17200000E+01           0.42117063E-02
   0.17300000E+01           0.38097222E-02
   0.17400000E+01           0.34580782E-02
   0.17500000E+01           0.31278061E-02
   0.17600000E+01           0.28342120E-02
   0.17700000E+01           0.25506236E-02
   0.17800000E+01           0.23128685E-02
   0.17900000E+01           0.20774660E-02
   0.18000000E+01           0.18630385E-02
   0.18100000E+01           0.16668367E-02
   0.18200000E+01           0.14978175E-02
   0.18300000E+01           0.13286848E-02
   0.18400000E+01           0.12002268E-02
   0.18500000E+01           0.10554705E-02
   0.18600000E+01           0.93917234E-03
   0.18700000E+01           0.82528345E-03
   0.18800000E+01           0.74362245E-03
   0.18900000E+01           0.64370748E-03
   0.19000000E+01           0.56882086E-03
   0.19100000E+01           0.49793084E-03
   0.19200000E+01           0.43202948E-03
   0.19300000E+01           0.37607710E-03
   0.19400000E+01           0.32531179E-03
   0.19500000E+01           0.28132086E-03
   0.19600000E+01           0.24067460E-03
   0.19700000E+01           0.20439342E-03
   0.19800000E+01           0.17403628E-03
   0.19900000E+01           0.14600340E-03
   0.20000000E+01           0.63293651E-04
 #T=   141.0000
  -0.20000000E+01           0.00000000E+00
  -0.19900000E+01           0.00000000E+00
  -0.19800000E+01           0.00000000E+00
  -0.19700000E+01           0.00000000E+00
  -0.19600000E+01           0.00000000E+00
  -0.19500000E+01           0.00000000E+00
  -0.19400000E+01           0.00000000E+00
  -0.19300000E+01           0.00000000E+00
  -0.19200000E+01           0.00000000E+00
  -0.19100000E+01           0.00000000E+00
  -0.19000000E+01           0.00000000E+00
  -0.18900000E+01           0.00000000E+00
  -0.18800000E+01           0.00000000E+00
  -0.18700000E+01           0.00000000E+00
  -0.18600000E+01           0.00000000E+00
  -0.18500000E+01           0.00000000E+00
  -0.18400000E+01           0.00000000E+00
  -0.18300000E+01           0.00000000E+00
  -0.18200000E+01           0.00000000E+00
  -0.18100000E+01           0.00000000E+00
  -0.18000000E+01           0.00000000E+00
  -0.17900000E+01           0.00000000E+00
  -0.17800000E+01           0.00000000E+00
  -0.17700000E+01           0.00000000E+00
  -0.17600000E+01           0.00000000E+00
  -0.17500000E+01           0.00000000E+00
  -0.17400000E+01           0.00000000E+00
  -0.17300000E+01           0.00000000E+00
  -0.17200000E+01           0.00000000E+00
  -0.17100000E+01           0.00000000E+00
  -0.17000000E+01           0.00000000E+00
  -0.16900000E+01           0.00000000E+00
  -0.16800000E+01           0.00000000E+00
  -0.16700000E+01           0.00000000E+00
  -0.16600000E+01           0.00000000E+00
  -0.16500000E+01           0.00000000E+00
  -0.16400000E+01           0.00000000E+00
  -0.16300000E+01           0.00000000E+00
  -0.16200000E+01           0.00000000E+00
  -0.16100000E+01           0.00000000E+00
  -0.16000000E+01           0.00000000E+00
  -0.15900000E+01           0.00000000E+00
  -0.15800000E+01           0.00000000E+00
  -0.15700000E+01           0.00000000E+00
  -0.15600000E+01           0.00000000E+00
  -0.15500000E+01           0.00000000E+00
  -0.15400000E+01           0.00000000E+00
  -0.15300000E+01           0.00000000E+00
  -0.15200000E+01           0.00000000E+00
  -0.15100000E+01           0.00000000E+00
  -0.15000000E+01           0.00000000E+00
  -0.14900000E+01           0.00000000E+00
  -0.14800000E+01           0.00000000E+00
  -0.14700000E+01           0.00000000E+00
  -0.14600000E+01           0.00000000E+00
  -0.14500000E+01           0.00000000E+00
  -0.14400000E+01           0.00000000E+00
  -0.14300000E+01           0.00000000E+00
  -0.14200000E+01           0.00000000E+00
  -0.14100000E+01           0.00000000E+00
  -0.14000000E+01           0.00000000E+00
  -0.13900000E+01           0.00000000E+00
  -0.13800000E+01           0.00000000E+00
  -0.13700000E+01           0.00000000E+00
  -0.13600000E+01           0.00000000E+00
  -0.13500000E+01           0.00000000E+00
  -0.13400000E+01           0.00000000E+00
  -0.13300000E+01           0.00000000E+00
  -0.13200000E+01           0.00000000E+00
  -0.13100000E+01           0.00000000E+00
  -0.13000000E+01           0.00000000E+00
  -0.12900000E+01           0.00000000E+00
  -0.12800000E+01           0.00000000E+00
  -0.12700000E+01           0.00000000E+00
  -0.12600000E+01           0.00000000E+00
  -0.12500000E+01           0.00000000E+00
  -0.12400000E+01           0.00000000E+00
  -0.12300000E+01           0.00000000E+00
  -0.12200000E+01           0.00000000E+00
  -0.12100000E+01           0.00000000E+00
  -0.12000000E+01           0.00000000E+00
  -0.11900000E+01           0.00000000E+00
  -0.11800000E+01           0.00000000E+00
  -0.11700000E+01           0.00000000E+00
  -0.11600000E+01           0.00000000E+00
  -0.11500000E+01           0.00000000E+00
  -0.11400000E+01           0.00000000E+00
  -0.11300000E+01           0.00000000E+00
  -0.11200000E+01           0.00000000E+00
  -0.11100000E+01           0.00000000E+00
  -0.11000000E+01           0.00000000E+00
  -0.10900000E+01           0.00000000E+00
  -0.10800000E+01           0.00000000E+00
  -0.10700000E+01           0.00000000E+00
  -0.10600000E+01           0.00000000E+00
  -0.10500000E+01           0.00000000E+00
  -0.10400000E+01           0.00000000E+00
  -0.10300000E+01           0.00000000E+00
  -0.10200000E+01           0.00000000E+00
  -0.10100000E+01           0.00000000E+00
  -0.10000000E+01           0.00000000E+00
  -0.99000000E+00           0.00000000E+00
  -0.98000000E+00           0.00000000E+00
  -0.97000000E+00           0.00000000E+00
  -0.96000000E+00           0.00000000E+00
  -0.95000000E+00           0.00000000E+00
  -0.94000000E+00           0.00000000E+00
  -0.93000000E+00           0.00000000E+00
  -0.92000000E+00           0.00000000E+00
  -0.91000000E+00           0.00000000E+00
  -0.90000000E+00           0.00000000E+00
  -0.89000000E+00           0.00000000E+00
  -0.88000000E+00           0.00000000E+00
  -0.87000000E+00           0.00000000E+00
  -0.86000000E+00           0.00000000E+00
  -0.85000000E+00           0.00000000E+00
  -0.84000000E+00           0.00000000E+00
  -0.83000000E+00           0.00000000E+00
  -0.82000000E+00           0.00000000E+00
  -0.81000000E+00           0.00000000E+00
  -0.80000000E+00           0.00000000E+00
  -0.79000000E+00           0.00000000E+00
  -0.78000000E+00           0.00000000E+00
  -0.77000000E+00           0.00000000E+00
  -0.76000000E+00           0.00000000E+00
  -0.75000000E+00           0.00000000E+00
  -0.74000000E+00           0.00000000E+00
  -0.73000000E+00           0.00000000E+00
  -0.72000000E+00           0.00000000E+00
  -0.71000000E+00           0.00000000E+00
  -0.70000000E+00           0.00000000E+00
  -0.69000000E+00           0.00000000E+00
  -0.68000000E+00           0.00000000E+00
  -0.67000000E+00           0.00000000E+00
  -0.66000000E+00           0.00000000E+00
  -0.65000000E+00           0.00000000E+00
  -0.64000000E+00           0.00000000E+00
  -0.63000000E+00           0.00000000E+00
  -0.62000000E+00           0.00000000E+00
  -0.61000000E+00           0.00000000E+00
  -0.60000000E+00           0.00000000E+00
  -0.59000000E+00           0.00000000E+00
  -0.58000000E+00           0.00000000E+00
  -0.57000000E+00           0.00000000E+00
  -0.56000000E+00           0.00000000E+00
  -0.55000000E+00           0.00000000E+00
  -0.54000000E+00           0.00000000E+00
  -0.53000000E+00           0.00000000E+00
  -0.52000000E+00           0.00000000E+00
  -0.51000000E+00           0.00000000E+00
  -0.50000000E+00           0.00000000E+00
  -0.49000000E+00           0.00000000E+00
  -0.48000000E+00           0.00000000E+00
  -0.47000000E+00           0.00000000E+00
  -0.46000000E+00           0.00000000E+00
  -0.45000000E+00           0.00000000E+00
  -0.44000000E+00           0.00000000E+00
  -0.43000000E+00           0.00000000E+00
  -0.42000000E+00           0.00000000E+00
  -0.41000000E+00           0.00000000E+00
  -0.40000000E+00           0.00000000E+00
  -0.39000000E+00           0.00000000E+00
  -0.38000000E+00           0.00000000E+00
  -0.37000000E+00           0.00000000E+00
  -0.36000000E+00           0.00000000E+00
  -0.35000000E+00           0.00000000E+00
  -0.34000000E+00           0.00000000E+00
  -0.33000000E+00           0.00000000E+00
  -0.32000000E+00           0.00000000E+00
  -0.31000000E+00           0.00000000E+00
  -0.30000000E+00           0.00000000E+00
  -0.29000000E+00           0.00000000E+00
  -0.28000000E+00           0.00000000E+00
  -0.27000000E+00           0.00000000E+00
  -0.26000000E+00           0.00000000E+00
  -0.25000000E+00           0.00000000E+00
  -0.24000000E+00           0.00000000E+00
  -0.23000000E+00           0.00000000E+00
  -0.22000000E+00           0.00000000E+00
  -0.21000000E+00           0.00000000E+00
  -0.20000000E+00           0.00000000E+00
  -0.19000000E+00           0.00000000E+00
  -0.18000000E+00           0.00000000E+00
  -0.17000000E+00           0.00000000E+00
  -0.16000000E+00           0.00000000E+00
  -0.15000000E+00           0.00000000E+00
  -0.14000000E+00           0.00000000E+00
  -0.13000000E+00           0.00000000E+00
  -0.12000000E+00           0.00000000E+00
  -0.11000000E+00           0.00000000E+00
  -0.10000000E+00           0.00000000E+00
  -0.90000000E-01           0.00000000E+00
  -0.80000000E-01           0.00000000E+00
  -0.70000000E-01           0.00000000E+00
  -0.60000000E-01           0.00000000E+00
  -0.50000000E-01           0.00000000E+00
  -0.40000000E-01           0.00000000E+00
  -0.30000000E-01           0.00000000E+00
  -0.20000000E-01           0.00000000E+00
  -0.10000000E-01           0.00000000E+00
   0.00000000E+00           0.59260488E-02
   0.10000000E-01           0.47533844E-01
   0.20000000E-01           0.94903628E-01
   0.30000000E-01           0.14207639E+00
   0.40000000E-01           0.18908194E+00
   0.50000000E-01           0.23594294E+00
   0.60000000E-01           0.28234385E+00
   0.70000000E-01           0.32846874E+00
   0.80000000E-01           0.37452302E+00
   0.90000000E-01           0.41949615E+00
   0.10000000E+00           0.46414765E+00
   0.11000000E+00           0.50777197E+00
   0.12000000E+00           0.55131837E+00
   0.13000000E+00           0.59357772E+00
   0.14000000E+00           0.63531154E+00
   0.15000000E+00           0.67607639E+00
   0.16000000E+00           0.71617432E+00
   0.17000000E+00           0.75499178E+00
   0.18000000E+00           0.79235578E+00
   0.19000000E+00           0.82930638E+00
   0.20000000E+00           0.86525632E+00
   0.21000000E+00           0.89957758E+00
   0.22000000E+00           0.93301250E+00
   0.23000000E+00           0.96594359E+00
   0.24000000E+00           0.99610595E+00
   0.25000000E+00           0.10262785E+01
   0.26000000E+00           0.10542962E+01
   0.27000000E+00           0.10813169E+01
   0.28000000E+00           0.11070912E+01
   0.29000000E+00           0.11314892E+01
   0.30000000E+00           0.11548582E+01
   0.31000000E+00           0.11757340E+01
   0.32000000E+00           0.11961014E+01
   0.33000000E+00           0.12148491E+01
   0.34000000E+00           0.12319331E+01
   0.35000000E+00           0.12479877E+01
   0.36000000E+00           0.12625687E+01
   0.37000000E+00           0.12746799E+01
   0.38000000E+00           0.12875081E+01
   0.39000000E+00           0.12969923E+01
   0.40000000E+00           0.13060158E+01
   0.41000000E+00           0.13134111E+01
   0.42000000E+00           0.13195627E+01
   0.43000000E+00           0.13245603E+01
   0.44000000E+00           0.13279805E+01
   0.45000000E+00           0.13295654E+01
   0.46000000E+00           0.13304306E+01
   0.47000000E+00           0.13293810E+01
   0.48000000E+00           0.13281920E+01
   0.49000000E+00           0.13249982E+01
   0.50000000E+00           0.13211509E+01
   0.51000000E+00           0.13161697E+01
   0.52000000E+00           0.13092974E+01
   0.53000000E+00           0.13019571E+01
   0.54000000E+00           0.12932539E+01
   0.55000000E+00           0.12841166E+01
   0.56000000E+00           0.12741286E+01
   0.57000000E+00           0.12620048E+01
   0.58000000E+00           0.12491539E+01
   0.59000000E+00           0.12366856E+01
   0.60000000E+00           0.12229060E+01
   0.61000000E+00           0.12079409E+01
   0.62000000E+00           0.11925435E+01
   0.63000000E+00           0.11766163E+01
   0.64000000E+00           0.11595547E+01
   0.65000000E+00           0.11425984E+01
   0.66000000E+00           0.11247911E+01
   0.67000000E+00           0.11060914E+01
   0.68000000E+00           0.10875626E+01
   0.69000000E+00           0.10679574E+01
   0.70000000E+00           0.10482389E+01
   0.71000000E+00           0.10284545E+01
   0.72000000E+00           0.10079118E+01
   0.73000000E+00           0.98658350E+00
   0.74000000E+00           0.96597948E+00
   0.75000000E+00           0.94494895E+00
   0.76000000E+00           0.92358112E+00
   0.77000000E+00           0.90223268E+00
   0.78000000E+00           0.88084691E+00
   0.79000000E+00           0.85906125E+00
   0.80000000E+00           0.83724776E+00
   0.81000000E+00           0.81583753E+00
   0.82000000E+00           0.79487696E+00
   0.83000000E+00           0.77303980E+00
   0.84000000E+00           0.75117971E+00
   0.85000000E+00           0.73025266E+00
   0.86000000E+00           0.70889050E+00
   0.87000000E+00           0.68835431E+00
   0.88000000E+00           0.66731451E+00
   0.89000000E+00           0.64672976E+00
   0.90000000E+00           0.62631069E+00
   0.91000000E+00           0.60629989E+00
   0.92000000E+00           0.58668353E+00
   0.93000000E+00           0.56674929E+00
   0.94000000E+00           0.54779855E+00
   0.95000000E+00           0.52917605E+00
   0.96000000E+00           0.51004904E+00
   0.97000000E+00           0.49181828E+00
   0.98000000E+00           0.47423722E+00
   0.99000000E+00           0.45665031E+00
   0.10000000E+01           0.43933931E+00
   0.10100000E+01           0.42262670E+00
   0.10200000E+01           0.40646508E+00
   0.10300000E+01           0.39016176E+00
   0.10400000E+01           0.37453563E+00
   0.10500000E+01           0.35920677E+00
   0.10600000E+01           0.34457798E+00
   0.10700000E+01           0.33018407E+00
   0.10800000E+01           0.31593668E+00
   0.10900000E+01           0.30218634E+00
   0.11000000E+01           0.28918535E+00
   0.11100000E+01           0.27634291E+00
   0.11200000E+01           0.26393387E+00
   0.11300000E+01           0.25161460E+00
   0.11400000E+01           0.24046094E+00
   0.11500000E+01           0.22908855E+00
   0.11600000E+01           0.21816857E+00
   0.11700000E+01           0.20772032E+00
   0.11800000E+01           0.19745309E+00
   0.11900000E+01           0.18761392E+00
   0.12000000E+01           0.17841202E+00
   0.12100000E+01           0.16946482E+00
   0.12200000E+01           0.16062988E+00
   0.12300000E+01           0.15246956E+00
   0.12400000E+01           0.14445590E+00
   0.12500000E+01           0.13671035E+00
   0.12600000E+01           0.12946567E+00
   0.12700000E+01           0.12243237E+00
   0.12800000E+01           0.11584433E+00
   0.12900000E+01           0.10926508E+00
   0.13000000E+01           0.10312520E+00
   0.13100000E+01           0.97180527E-01
   0.13200000E+01           0.91669161E-01
   0.13300000E+01           0.86251956E-01
   0.13400000E+01           0.81176389E-01
   0.13500000E+01           0.76492630E-01
   0.13600000E+01           0.71737783E-01
   0.13700000E+01           0.67382313E-01
   0.13800000E+01           0.63333447E-01
   0.13900000E+01           0.59362132E-01
   0.14000000E+01           0.55609580E-01
   0.14100000E+01           0.52176077E-01
   0.14200000E+01           0.48712046E-01
   0.14300000E+01           0.45576502E-01
   0.14400000E+01           0.42550000E-01
   0.14500000E+01           0.39714739E-01
   0.14600000E+01           0.37073583E-01
   0.14700000E+01           0.34616156E-01
   0.14800000E+01           0.32233617E-01
   0.14900000E+01           0.29939257E-01
   0.15000000E+01           0.27875368E-01
   0.15100000E+01           0.25873384E-01
   0.15200000E+01           0.23974688E-01
   0.15300000E+01           0.22261536E-01
   0.15400000E+01           0.20652126E-01
   0.15500000E+01           0.19105527E-01
   0.15600000E+01           0.17737670E-01
   0.15700000E+01           0.16330669E-01
   0.15800000E+01           0.15076927E-01
   0.15900000E+01           0.13956037E-01
   0.16000000E+01           0.12809807E-01
   0.16100000E+01           0.11797336E-01
   0.16200000E+01           0.10887160E-01
   0.16300000E+01           0.99816327E-02
   0.16400000E+01           0.91821429E-02
   0.16500000E+01           0.84094671E-02
   0.16600000E+01           0.77418651E-02
   0.16700000E+01           0.70696145E-02
   0.16800000E+01           0.64248016E-02
   0.16900000E+01           0.58730726E-02
   0.17000000E+01           0.53644274E-02
   0.17100000E+01           0.48772109E-02
   0.17200000E+01           0.44422052E-02
   0.17300000E+01           0.40263039E-02
   0.17400000E+01           0.36617630E-02
   0.17500000E+01           0.33033447E-02
   0.17600000E+01           0.29898810E-02
   0.17700000E+01           0.27262755E-02
   0.17800000E+01           0.24569728E-02
   0.17900000E+01           0.22219388E-02
   0.18000000E+01           0.19973356E-02
   0.18100000E+01           0.17818027E-02
   0.18200000E+01           0.16022959E-02
   0.18300000E+01           0.14381519E-02
   0.18400000E+01           0.12728741E-02
   0.18500000E+01           0.11423186E-02
   0.18600000E+01           0.10224206E-02
   0.18700000E+01           0.88616780E-03
   0.18800000E+01           0.78622449E-03
   0.18900000E+01           0.69708050E-03
   0.19000000E+01           0.61349206E-03
   0.19100000E+01           0.53293651E-03
   0.19200000E+01           0.46848073E-03
   0.19300000E+01           0.40714286E-03
   0.19400000E+01           0.35756803E-03
   0.19500000E+01           0.30640590E-03
   0.19600000E+01           0.26286848E-03
   0.19700000E+01           0.22298753E-03
   0.19800000E+01           0.18792517E-03
   0.19900000E+01           0.16309524E-03
   0.20000000E+01           0.70918367E-04
 #T=   142.0000
  -0.20000000E+01           0.00000000E+00
  -0.19900000E+01           0.00000000E+00
  -0.19800000E+01           0.00000000E+00
  -0.19700000E+01           0.00000000E+00
  -0.19600000E+01           0.00000000E+00
  -0.19500000E+01           0.00000000E+00
  -0.19400000E+01           0.00000000E+00
  -0.19300000E+01           0.00000000E+00
  -0.19200000E+01           0.00000000E+00
  -0.19100000E+01           0.00000000E+00
  -0.19000000E+01           0.00000000E+00
  -0.18900000E+01           0.00000000E+00
  -0.18800000E+01           0.00000000E+00
  -0.18700000E+01           0.00000000E+00
  -0.18600000E+01           0.00000000E+00
  -0.18500000E+01           0.00000000E+00
  -0.18400000E+01           0.00000000E+00
  -0.18300000E+01           0.00000000E+00
  -0.18200000E+01           0.00000000E+00
  -0.18100000E+01           0.00000000E+00
  -0.18000000E+01           0.00000000E+00
  -0.17900000E+01           0.00000000E+00
  -0.17800000E+01           0.00000000E+00
  -0.17700000E+01           0.00000000E+00
  -0.17600000E+01           0.00000000E+00
  -0.17500000E+01           0.00000000E+00
  -0.17400000E+01           0.00000000E+00
  -0.17300000E+01           0.00000000E+00
  -0.17200000E+01           0.00000000E+00
  -0.17100000E+01           0.00000000E+00
  -0.17000000E+01           0.00000000E+00
  -0.16900000E+01           0.00000000E+00
  -0.16800000E+01           0.00000000E+00
  -0.16700000E+01           0.00000000E+00
  -0.16600000E+01           0.00000000E+00
  -0.16500000E+01           0.00000000E+00
  -0.16400000E+01           0.00000000E+00
  -0.16300000E+01           0.00000000E+00
  -0.16200000E+01           0.00000000E+00
  -0.16100000E+01           0.00000000E+00
  -0.16000000E+01           0.00000000E+00
  -0.15900000E+01           0.00000000E+00
  -0.15800000E+01           0.00000000E+00
  -0.15700000E+01           0.00000000E+00
  -0.15600000E+01           0.00000000E+00
  -0.15500000E+01           0.00000000E+00
  -0.15400000E+01           0.00000000E+00
  -0.15300000E+01           0.00000000E+00
  -0.15200000E+01           0.00000000E+00
  -0.15100000E+01           0.00000000E+00
  -0.15000000E+01           0.00000000E+00
  -0.14900000E+01           0.00000000E+00
  -0.14800000E+01           0.00000000E+00
  -0.14700000E+01           0.00000000E+00
  -0.14600000E+01           0.00000000E+00
  -0.14500000E+01           0.00000000E+00
  -0.14400000E+01           0.00000000E+00
  -0.14300000E+01           0.00000000E+00
  -0.14200000E+01           0.00000000E+00
  -0.14100000E+01           0.00000000E+00
  -0.14000000E+01           0.00000000E+00
  -0.13900000E+01           0.00000000E+00
  -0.13800000E+01           0.00000000E+00
  -0.13700000E+01           0.00000000E+00
  -0.13600000E+01           0.00000000E+00
  -0.13500000E+01           0.00000000E+00
  -0.13400000E+01           0.00000000E+00
  -0.13300000E+01           0.00000000E+00
  -0.13200000E+01           0.00000000E+00
  -0.13100000E+01           0.00000000E+00
  -0.13000000E+01           0.00000000E+00
  -0.12900000E+01           0.00000000E+00
  -0.12800000E+01           0.00000000E+00
  -0.12700000E+01           0.00000000E+00
  -0.12600000E+01           0.00000000E+00
  -0.12500000E+01           0.00000000E+00
  -0.12400000E+01           0.00000000E+00
  -0.12300000E+01           0.00000000E+00
  -0.12200000E+01           0.00000000E+00
  -0.12100000E+01           0.00000000E+00
  -0.12000000E+01           0.00000000E+00
  -0.11900000E+01           0.00000000E+00
  -0.11800000E+01           0.00000000E+00
  -0.11700000E+01           0.00000000E+00
  -0.11600000E+01           0.00000000E+00
  -0.11500000E+01           0.00000000E+00
  -0.11400000E+01           0.00000000E+00
  -0.11300000E+01           0.00000000E+00
  -0.11200000E+01           0.00000000E+00
  -0.11100000E+01           0.00000000E+00
  -0.11000000E+01           0.00000000E+00
  -0.10900000E+01           0.00000000E+00
  -0.10800000E+01           0.00000000E+00
  -0.10700000E+01           0.00000000E+00
  -0.10600000E+01           0.00000000E+00
  -0.10500000E+01           0.00000000E+00
  -0.10400000E+01           0.00000000E+00
  -0.10300000E+01           0.00000000E+00
  -0.10200000E+01           0.00000000E+00
  -0.10100000E+01           0.00000000E+00
  -0.10000000E+01           0.00000000E+00
  -0.99000000E+00           0.00000000E+00
  -0.98000000E+00           0.00000000E+00
  -0.97000000E+00           0.00000000E+00
  -0.96000000E+00           0.00000000E+00
  -0.95000000E+00           0.00000000E+00
  -0.94000000E+00           0.00000000E+00
  -0.93000000E+00           0.00000000E+00
  -0.92000000E+00           0.00000000E+00
  -0.91000000E+00           0.00000000E+00
  -0.90000000E+00           0.00000000E+00
  -0.89000000E+00           0.00000000E+00
  -0.88000000E+00           0.00000000E+00
  -0.87000000E+00           0.00000000E+00
  -0.86000000E+00           0.00000000E+00
  -0.85000000E+00           0.00000000E+00
  -0.84000000E+00           0.00000000E+00
  -0.83000000E+00           0.00000000E+00
  -0.82000000E+00           0.00000000E+00
  -0.81000000E+00           0.00000000E+00
  -0.80000000E+00           0.00000000E+00
  -0.79000000E+00           0.00000000E+00
  -0.78000000E+00           0.00000000E+00
  -0.77000000E+00           0.00000000E+00
  -0.76000000E+00           0.00000000E+00
  -0.75000000E+00           0.00000000E+00
  -0.74000000E+00           0.00000000E+00
  -0.73000000E+00           0.00000000E+00
  -0.72000000E+00           0.00000000E+00
  -0.71000000E+00           0.00000000E+00
  -0.70000000E+00           0.00000000E+00
  -0.69000000E+00           0.00000000E+00
  -0.68000000E+00           0.00000000E+00
  -0.67000000E+00           0.00000000E+00
  -0.66000000E+00           0.00000000E+00
  -0.65000000E+00           0.00000000E+00
  -0.64000000E+00           0.00000000E+00
  -0.63000000E+00           0.00000000E+00
  -0.62000000E+00           0.00000000E+00
  -0.61000000E+00           0.00000000E+00
  -0.60000000E+00           0.00000000E+00
  -0.59000000E+00           0.00000000E+00
  -0.58000000E+00           0.00000000E+00
  -0.57000000E+00           0.00000000E+00
  -0.56000000E+00           0.00000000E+00
  -0.55000000E+00           0.00000000E+00
  -0.54000000E+00           0.00000000E+00
  -0.53000000E+00           0.00000000E+00
  -0.52000000E+00           0.00000000E+00
  -0.51000000E+00           0.00000000E+00
  -0.50000000E+00           0.00000000E+00
  -0.49000000E+00           0.00000000E+00
  -0.48000000E+00           0.00000000E+00
  -0.47000000E+00           0.00000000E+00
  -0.46000000E+00           0.00000000E+00
  -0.45000000E+00           0.00000000E+00
  -0.44000000E+00           0.00000000E+00
  -0.43000000E+00           0.00000000E+00
  -0.42000000E+00           0.00000000E+00
  -0.41000000E+00           0.00000000E+00
  -0.40000000E+00           0.00000000E+00
  -0.39000000E+00           0.00000000E+00
  -0.38000000E+00           0.00000000E+00
  -0.37000000E+00           0.00000000E+00
  -0.36000000E+00           0.00000000E+00
  -0.35000000E+00           0.00000000E+00
  -0.34000000E+00           0.00000000E+00
  -0.33000000E+00           0.00000000E+00
  -0.32000000E+00           0.00000000E+00
  -0.31000000E+00           0.00000000E+00
  -0.30000000E+00           0.00000000E+00
  -0.29000000E+00           0.00000000E+00
  -0.28000000E+00           0.00000000E+00
  -0.27000000E+00           0.00000000E+00
  -0.26000000E+00           0.00000000E+00
  -0.25000000E+00           0.00000000E+00
  -0.24000000E+00           0.00000000E+00
  -0.23000000E+00           0.00000000E+00
  -0.22000000E+00           0.00000000E+00
  -0.21000000E+00           0.00000000E+00
  -0.20000000E+00           0.00000000E+00
  -0.19000000E+00           0.00000000E+00
  -0.18000000E+00           0.00000000E+00
  -0.17000000E+00           0.00000000E+00
  -0.16000000E+00           0.00000000E+00
  -0.15000000E+00           0.00000000E+00
  -0.14000000E+00           0.00000000E+00
  -0.13000000E+00           0.00000000E+00
  -0.12000000E+00           0.00000000E+00
  -0.11000000E+00           0.00000000E+00
  -0.10000000E+00           0.00000000E+00
  -0.90000000E-01           0.00000000E+00
  -0.80000000E-01           0.00000000E+00
  -0.70000000E-01           0.00000000E+00
  -0.60000000E-01           0.00000000E+00
  -0.50000000E-01           0.00000000E+00
  -0.40000000E-01           0.00000000E+00
  -0.30000000E-01           0.00000000E+00
  -0.20000000E-01           0.00000000E+00
  -0.10000000E-01           0.00000000E+00
   0.00000000E+00           0.59098923E-02
   0.10000000E-01           0.47233503E-01
   0.20000000E-01           0.94310431E-01
   0.30000000E-01           0.14120428E+00
   0.40000000E-01           0.18782370E+00
   0.50000000E-01           0.23422611E+00
   0.60000000E-01           0.28061440E+00
   0.70000000E-01           0.32623971E+00
   0.80000000E-01           0.37153036E+00
   0.90000000E-01           0.41617389E+00
   0.10000000E+00           0.46044807E+00
   0.11000000E+00           0.50429912E+00
   0.12000000E+00           0.54729405E+00
   0.13000000E+00           0.58945669E+00
   0.14000000E+00           0.63046293E+00
   0.15000000E+00           0.67109490E+00
   0.16000000E+00           0.71029700E+00
   0.17000000E+00           0.74943523E+00
   0.18000000E+00           0.78713481E+00
   0.19000000E+00           0.82347103E+00
   0.20000000E+00           0.85905411E+00
   0.21000000E+00           0.89323050E+00
   0.22000000E+00           0.92677883E+00
   0.23000000E+00           0.95867639E+00
   0.24000000E+00           0.98952769E+00
   0.25000000E+00           0.10195652E+01
   0.26000000E+00           0.10474886E+01
   0.27000000E+00           0.10744074E+01
   0.28000000E+00           0.11000918E+01
   0.29000000E+00           0.11245044E+01
   0.30000000E+00           0.11474835E+01
   0.31000000E+00           0.11686393E+01
   0.32000000E+00           0.11890935E+01
   0.33000000E+00           0.12082531E+01
   0.34000000E+00           0.12253656E+01
   0.35000000E+00           0.12413554E+01
   0.36000000E+00           0.12560283E+01
   0.37000000E+00           0.12683842E+01
   0.38000000E+00           0.12806541E+01
   0.39000000E+00           0.12905432E+01
   0.40000000E+00           0.12994024E+01
   0.41000000E+00           0.13072050E+01
   0.42000000E+00           0.13132655E+01
   0.43000000E+00           0.13184604E+01
   0.44000000E+00           0.13223317E+01
   0.45000000E+00           0.13239063E+01
   0.46000000E+00           0.13253014E+01
   0.47000000E+00           0.13253919E+01
   0.48000000E+00           0.13236428E+01
   0.49000000E+00           0.13206368E+01
   0.50000000E+00           0.13166333E+01
   0.51000000E+00           0.13122936E+01
   0.52000000E+00           0.13056347E+01
   0.53000000E+00           0.12988782E+01
   0.54000000E+00           0.12901643E+01
   0.55000000E+00           0.12809161E+01
   0.56000000E+00           0.12712126E+01
   0.57000000E+00           0.12594863E+01
   0.58000000E+00           0.12479753E+01
   0.59000000E+00           0.12351705E+01
   0.60000000E+00           0.12215073E+01
   0.61000000E+00           0.12066698E+01
   0.62000000E+00           0.11916131E+01
   0.63000000E+00           0.11759726E+01
   0.64000000E+00           0.11597919E+01
   0.65000000E+00           0.11423163E+01
   0.66000000E+00           0.11247331E+01
   0.67000000E+00           0.11063779E+01
   0.68000000E+00           0.10879135E+01
   0.69000000E+00           0.10692195E+01
   0.70000000E+00           0.10499555E+01
   0.71000000E+00           0.10293929E+01
   0.72000000E+00           0.10096908E+01
   0.73000000E+00           0.98902273E+00
   0.74000000E+00           0.96789036E+00
   0.75000000E+00           0.94772766E+00
   0.76000000E+00           0.92634546E+00
   0.77000000E+00           0.90500938E+00
   0.78000000E+00           0.88366329E+00
   0.79000000E+00           0.86244306E+00
   0.80000000E+00           0.84118186E+00
   0.81000000E+00           0.81972455E+00
   0.82000000E+00           0.79834172E+00
   0.83000000E+00           0.77689427E+00
   0.84000000E+00           0.75552863E+00
   0.85000000E+00           0.73469977E+00
   0.86000000E+00           0.71370337E+00
   0.87000000E+00           0.69239575E+00
   0.88000000E+00           0.67203818E+00
   0.89000000E+00           0.65132126E+00
   0.90000000E+00           0.63116766E+00
   0.91000000E+00           0.61131057E+00
   0.92000000E+00           0.59133087E+00
   0.93000000E+00           0.57176618E+00
   0.94000000E+00           0.55274059E+00
   0.95000000E+00           0.53385629E+00
   0.96000000E+00           0.51478603E+00
   0.97000000E+00           0.49644206E+00
   0.98000000E+00           0.47901409E+00
   0.99000000E+00           0.46142888E+00
   0.10000000E+01           0.44403296E+00
   0.10100000E+01           0.42727704E+00
   0.10200000E+01           0.41090363E+00
   0.10300000E+01           0.39458265E+00
   0.10400000E+01           0.37917585E+00
   0.10500000E+01           0.36371820E+00
   0.10600000E+01           0.34904209E+00
   0.10700000E+01           0.33469501E+00
   0.10800000E+01           0.32052625E+00
   0.10900000E+01           0.30694793E+00
   0.11000000E+01           0.29349226E+00
   0.11100000E+01           0.28072914E+00
   0.11200000E+01           0.26830989E+00
   0.11300000E+01           0.25586105E+00
   0.11400000E+01           0.24440556E+00
   0.11500000E+01           0.23314889E+00
   0.11600000E+01           0.22223532E+00
   0.11700000E+01           0.21156644E+00
   0.11800000E+01           0.20132075E+00
   0.11900000E+01           0.19140694E+00
   0.12000000E+01           0.18180845E+00
   0.12100000E+01           0.17310505E+00
   0.12200000E+01           0.16437988E+00
   0.12300000E+01           0.15577800E+00
   0.12400000E+01           0.14764804E+00
   0.12500000E+01           0.13991497E+00
   0.12600000E+01           0.13250113E+00
   0.12700000E+01           0.12528118E+00
   0.12800000E+01           0.11849252E+00
   0.12900000E+01           0.11197789E+00
   0.13000000E+01           0.10573773E+00
   0.13100000E+01           0.99783050E-01
   0.13200000E+01           0.94040788E-01
   0.13300000E+01           0.88771769E-01
   0.13400000E+01           0.83549178E-01
   0.13500000E+01           0.78591412E-01
   0.13600000E+01           0.73765334E-01
   0.13700000E+01           0.69356264E-01
   0.13800000E+01           0.65128090E-01
   0.13900000E+01           0.61135006E-01
   0.14000000E+01           0.57349121E-01
   0.14100000E+01           0.53767432E-01
   0.14200000E+01           0.50299717E-01
   0.14300000E+01           0.47139853E-01
   0.14400000E+01           0.43961026E-01
   0.14500000E+01           0.41125227E-01
   0.14600000E+01           0.38400085E-01
   0.14700000E+01           0.35788520E-01
   0.14800000E+01           0.33336593E-01
   0.14900000E+01           0.31034580E-01
   0.15000000E+01           0.28918736E-01
   0.15100000E+01           0.26865760E-01
   0.15200000E+01           0.24959070E-01
   0.15300000E+01           0.23128288E-01
   0.15400000E+01           0.21508759E-01
   0.15500000E+01           0.19843056E-01
   0.15600000E+01           0.18415561E-01
   0.15700000E+01           0.17078316E-01
   0.15800000E+01           0.15733730E-01
   0.15900000E+01           0.14515561E-01
   0.16000000E+01           0.13412160E-01
   0.16100000E+01           0.12341695E-01
   0.16200000E+01           0.11357766E-01
   0.16300000E+01           0.10465278E-01
   0.16400000E+01           0.96016156E-02
   0.16500000E+01           0.88207483E-02
   0.16600000E+01           0.80670351E-02
   0.16700000E+01           0.74275227E-02
   0.16800000E+01           0.67789966E-02
   0.16900000E+01           0.61973639E-02
   0.17000000E+01           0.56512755E-02
   0.17100000E+01           0.51653912E-02
   0.17200000E+01           0.46824263E-02
   0.17300000E+01           0.42790533E-02
   0.17400000E+01           0.38646542E-02
   0.17500000E+01           0.35311224E-02
   0.17600000E+01           0.32079932E-02
   0.17700000E+01           0.28945862E-02
   0.17800000E+01           0.26075680E-02
   0.17900000E+01           0.23509070E-02
   0.18000000E+01           0.21098923E-02
   0.18100000E+01           0.18979308E-02
   0.18200000E+01           0.16985261E-02
   0.18300000E+01           0.15357426E-02
   0.18400000E+01           0.13655896E-02
   0.18500000E+01           0.12220238E-02
   0.18600000E+01           0.10839002E-02
   0.18700000E+01           0.94662698E-03
   0.18800000E+01           0.85535714E-03
   0.18900000E+01           0.75141723E-03
   0.19000000E+01           0.66006236E-03
   0.19100000E+01           0.58832200E-03
   0.19200000E+01           0.50600907E-03
   0.19300000E+01           0.44172336E-03
   0.19400000E+01           0.38534580E-03
   0.19500000E+01           0.32845805E-03
   0.19600000E+01           0.28979592E-03
   0.19700000E+01           0.24841270E-03
   0.19800000E+01           0.20691610E-03
   0.19900000E+01           0.18132086E-03
   0.20000000E+01           0.75680272E-04
 #T=   143.0000
  -0.20000000E+01           0.00000000E+00
  -0.19900000E+01           0.00000000E+00
  -0.19800000E+01           0.00000000E+00
  -0.19700000E+01           0.00000000E+00
  -0.19600000E+01           0.00000000E+00
  -0.19500000E+01           0.00000000E+00
  -0.19400000E+01           0.00000000E+00
  -0.19300000E+01           0.00000000E+00
  -0.19200000E+01           0.00000000E+00
  -0.19100000E+01           0.00000000E+00
  -0.19000000E+01           0.00000000E+00
  -0.18900000E+01           0.00000000E+00
  -0.18800000E+01           0.00000000E+00
  -0.18700000E+01           0.00000000E+00
  -0.18600000E+01           0.00000000E+00
  -0.18500000E+01           0.00000000E+00
  -0.18400000E+01           0.00000000E+00
  -0.18300000E+01           0.00000000E+00
  -0.18200000E+01           0.00000000E+00
  -0.18100000E+01           0.00000000E+00
  -0.18000000E+01           0.00000000E+00
  -0.17900000E+01           0.00000000E+00
  -0.17800000E+01           0.00000000E+00
  -0.17700000E+01           0.00000000E+00
  -0.17600000E+01           0.00000000E+00
  -0.17500000E+01           0.00000000E+00
  -0.17400000E+01           0.00000000E+00
  -0.17300000E+01           0.00000000E+00
  -0.17200000E+01           0.00000000E+00
  -0.17100000E+01           0.00000000E+00
  -0.17000000E+01           0.00000000E+00
  -0.16900000E+01           0.00000000E+00
  -0.16800000E+01           0.00000000E+00
  -0.16700000E+01           0.00000000E+00
  -0.16600000E+01           0.00000000E+00
  -0.16500000E+01           0.00000000E+00
  -0.16400000E+01           0.00000000E+00
  -0.16300000E+01           0.00000000E+00
  -0.16200000E+01           0.00000000E+00
  -0.16100000E+01           0.00000000E+00
  -0.16000000E+01           0.00000000E+00
  -0.15900000E+01           0.00000000E+00
  -0.15800000E+01           0.00000000E+00
  -0.15700000E+01           0.00000000E+00
  -0.15600000E+01           0.00000000E+00
  -0.15500000E+01           0.00000000E+00
  -0.15400000E+01           0.00000000E+00
  -0.15300000E+01           0.00000000E+00
  -0.15200000E+01           0.00000000E+00
  -0.15100000E+01           0.00000000E+00
  -0.15000000E+01           0.00000000E+00
  -0.14900000E+01           0.00000000E+00
  -0.14800000E+01           0.00000000E+00
  -0.14700000E+01           0.00000000E+00
  -0.14600000E+01           0.00000000E+00
  -0.14500000E+01           0.00000000E+00
  -0.14400000E+01           0.00000000E+00
  -0.14300000E+01           0.00000000E+00
  -0.14200000E+01           0.00000000E+00
  -0.14100000E+01           0.00000000E+00
  -0.14000000E+01           0.00000000E+00
  -0.13900000E+01           0.00000000E+00
  -0.13800000E+01           0.00000000E+00
  -0.13700000E+01           0.00000000E+00
  -0.13600000E+01           0.00000000E+00
  -0.13500000E+01           0.00000000E+00
  -0.13400000E+01           0.00000000E+00
  -0.13300000E+01           0.00000000E+00
  -0.13200000E+01           0.00000000E+00
  -0.13100000E+01           0.00000000E+00
  -0.13000000E+01           0.00000000E+00
  -0.12900000E+01           0.00000000E+00
  -0.12800000E+01           0.00000000E+00
  -0.12700000E+01           0.00000000E+00
  -0.12600000E+01           0.00000000E+00
  -0.12500000E+01           0.00000000E+00
  -0.12400000E+01           0.00000000E+00
  -0.12300000E+01           0.00000000E+00
  -0.12200000E+01           0.00000000E+00
  -0.12100000E+01           0.00000000E+00
  -0.12000000E+01           0.00000000E+00
  -0.11900000E+01           0.00000000E+00
  -0.11800000E+01           0.00000000E+00
  -0.11700000E+01           0.00000000E+00
  -0.11600000E+01           0.00000000E+00
  -0.11500000E+01           0.00000000E+00
  -0.11400000E+01           0.00000000E+00
  -0.11300000E+01           0.00000000E+00
  -0.11200000E+01           0.00000000E+00
  -0.11100000E+01           0.00000000E+00
  -0.11000000E+01           0.00000000E+00
  -0.10900000E+01           0.00000000E+00
  -0.10800000E+01           0.00000000E+00
  -0.10700000E+01           0.00000000E+00
  -0.10600000E+01           0.00000000E+00
  -0.10500000E+01           0.00000000E+00
  -0.10400000E+01           0.00000000E+00
  -0.10300000E+01           0.00000000E+00
  -0.10200000E+01           0.00000000E+00
  -0.10100000E+01           0.00000000E+00
  -0.10000000E+01           0.00000000E+00
  -0.99000000E+00           0.00000000E+00
  -0.98000000E+00           0.00000000E+00
  -0.97000000E+00           0.00000000E+00
  -0.96000000E+00           0.00000000E+00
  -0.95000000E+00           0.00000000E+00
  -0.94000000E+00           0.00000000E+00
  -0.93000000E+00           0.00000000E+00
  -0.92000000E+00           0.00000000E+00
  -0.91000000E+00           0.00000000E+00
  -0.90000000E+00           0.00000000E+00
  -0.89000000E+00           0.00000000E+00
  -0.88000000E+00           0.00000000E+00
  -0.87000000E+00           0.00000000E+00
  -0.86000000E+00           0.00000000E+00
  -0.85000000E+00           0.00000000E+00
  -0.84000000E+00           0.00000000E+00
  -0.83000000E+00           0.00000000E+00
  -0.82000000E+00           0.00000000E+00
  -0.81000000E+00           0.00000000E+00
  -0.80000000E+00           0.00000000E+00
  -0.79000000E+00           0.00000000E+00
  -0.78000000E+00           0.00000000E+00
  -0.77000000E+00           0.00000000E+00
  -0.76000000E+00           0.00000000E+00
  -0.75000000E+00           0.00000000E+00
  -0.74000000E+00           0.00000000E+00
  -0.73000000E+00           0.00000000E+00
  -0.72000000E+00           0.00000000E+00
  -0.71000000E+00           0.00000000E+00
  -0.70000000E+00           0.00000000E+00
  -0.69000000E+00           0.00000000E+00
  -0.68000000E+00           0.00000000E+00
  -0.67000000E+00           0.00000000E+00
  -0.66000000E+00           0.00000000E+00
  -0.65000000E+00           0.00000000E+00
  -0.64000000E+00           0.00000000E+00
  -0.63000000E+00           0.00000000E+00
  -0.62000000E+00           0.00000000E+00
  -0.61000000E+00           0.00000000E+00
  -0.60000000E+00           0.00000000E+00
  -0.59000000E+00           0.00000000E+00
  -0.58000000E+00           0.00000000E+00
  -0.57000000E+00           0.00000000E+00
  -0.56000000E+00           0.00000000E+00
  -0.55000000E+00           0.00000000E+00
  -0.54000000E+00           0.00000000E+00
  -0.53000000E+00           0.00000000E+00
  -0.52000000E+00           0.00000000E+00
  -0.51000000E+00           0.00000000E+00
  -0.50000000E+00           0.00000000E+00
  -0.49000000E+00           0.00000000E+00
  -0.48000000E+00           0.00000000E+00
  -0.47000000E+00           0.00000000E+00
  -0.46000000E+00           0.00000000E+00
  -0.45000000E+00           0.00000000E+00
  -0.44000000E+00           0.00000000E+00
  -0.43000000E+00           0.00000000E+00
  -0.42000000E+00           0.00000000E+00
  -0.41000000E+00           0.00000000E+00
  -0.40000000E+00           0.00000000E+00
  -0.39000000E+00           0.00000000E+00
  -0.38000000E+00           0.00000000E+00
  -0.37000000E+00           0.00000000E+00
  -0.36000000E+00           0.00000000E+00
  -0.35000000E+00           0.00000000E+00
  -0.34000000E+00           0.00000000E+00
  -0.33000000E+00           0.00000000E+00
  -0.32000000E+00           0.00000000E+00
  -0.31000000E+00           0.00000000E+00
  -0.30000000E+00           0.00000000E+00
  -0.29000000E+00           0.00000000E+00
  -0.28000000E+00           0.00000000E+00
  -0.27000000E+00           0.00000000E+00
  -0.26000000E+00           0.00000000E+00
  -0.25000000E+00           0.00000000E+00
  -0.24000000E+00           0.00000000E+00
  -0.23000000E+00           0.00000000E+00
  -0.22000000E+00           0.00000000E+00
  -0.21000000E+00           0.00000000E+00
  -0.20000000E+00           0.00000000E+00
  -0.19000000E+00           0.00000000E+00
  -0.18000000E+00           0.00000000E+00
  -0.17000000E+00           0.00000000E+00
  -0.16000000E+00           0.00000000E+00
  -0.15000000E+00           0.00000000E+00
  -0.14000000E+00           0.00000000E+00
  -0.13000000E+00           0.00000000E+00
  -0.12000000E+00           0.00000000E+00
  -0.11000000E+00           0.00000000E+00
  -0.10000000E+00           0.00000000E+00
  -0.90000000E-01           0.00000000E+00
  -0.80000000E-01           0.00000000E+00
  -0.70000000E-01           0.00000000E+00
  -0.60000000E-01           0.00000000E+00
  -0.50000000E-01           0.00000000E+00
  -0.40000000E-01           0.00000000E+00
  -0.30000000E-01           0.00000000E+00
  -0.20000000E-01           0.00000000E+00
  -0.10000000E-01           0.00000000E+00
   0.00000000E+00           0.58162698E-02
   0.10000000E-01           0.46744359E-01
   0.20000000E-01           0.93514031E-01
   0.30000000E-01           0.14002571E+00
   0.40000000E-01           0.18632744E+00
   0.50000000E-01           0.23239294E+00
   0.60000000E-01           0.27814583E+00
   0.70000000E-01           0.32320782E+00
   0.80000000E-01           0.36840553E+00
   0.90000000E-01           0.41285366E+00
   0.10000000E+00           0.45708424E+00
   0.11000000E+00           0.50020683E+00
   0.12000000E+00           0.54285666E+00
   0.13000000E+00           0.58482112E+00
   0.14000000E+00           0.62576746E+00
   0.15000000E+00           0.66585592E+00
   0.16000000E+00           0.70530417E+00
   0.17000000E+00           0.74394416E+00
   0.18000000E+00           0.78136117E+00
   0.19000000E+00           0.81750286E+00
   0.20000000E+00           0.85333603E+00
   0.21000000E+00           0.88722010E+00
   0.22000000E+00           0.92079702E+00
   0.23000000E+00           0.95270391E+00
   0.24000000E+00           0.98302304E+00
   0.25000000E+00           0.10124598E+01
   0.26000000E+00           0.10407479E+01
   0.27000000E+00           0.10671638E+01
   0.28000000E+00           0.10930733E+01
   0.29000000E+00           0.11172067E+01
   0.30000000E+00           0.11401531E+01
   0.31000000E+00           0.11617274E+01
   0.32000000E+00           0.11824384E+01
   0.33000000E+00           0.12012771E+01
   0.34000000E+00           0.12181773E+01
   0.35000000E+00           0.12341575E+01
   0.36000000E+00           0.12491813E+01
   0.37000000E+00           0.12622530E+01
   0.38000000E+00           0.12743037E+01
   0.39000000E+00           0.12841335E+01
   0.40000000E+00           0.12933861E+01
   0.41000000E+00           0.13014366E+01
   0.42000000E+00           0.13079776E+01
   0.43000000E+00           0.13124821E+01
   0.44000000E+00           0.13166338E+01
   0.45000000E+00           0.13190642E+01
   0.46000000E+00           0.13192466E+01
   0.47000000E+00           0.13201372E+01
   0.48000000E+00           0.13183934E+01
   0.49000000E+00           0.13172453E+01
   0.50000000E+00           0.13132355E+01
   0.51000000E+00           0.13080080E+01
   0.52000000E+00           0.13018282E+01
   0.53000000E+00           0.12950342E+01
   0.54000000E+00           0.12874141E+01
   0.55000000E+00           0.12786143E+01
   0.56000000E+00           0.12682031E+01
   0.57000000E+00           0.12574768E+01
   0.58000000E+00           0.12463970E+01
   0.59000000E+00           0.12335966E+01
   0.60000000E+00           0.12196925E+01
   0.61000000E+00           0.12056229E+01
   0.62000000E+00           0.11907740E+01
   0.63000000E+00           0.11750050E+01
   0.64000000E+00           0.11590459E+01
   0.65000000E+00           0.11426633E+01
   0.66000000E+00           0.11254096E+01
   0.67000000E+00           0.11074453E+01
   0.68000000E+00           0.10887733E+01
   0.69000000E+00           0.10700024E+01
   0.70000000E+00           0.10503631E+01
   0.71000000E+00           0.10310960E+01
   0.72000000E+00           0.10114443E+01
   0.73000000E+00           0.99086111E+00
   0.74000000E+00           0.97078713E+00
   0.75000000E+00           0.94986522E+00
   0.76000000E+00           0.92900145E+00
   0.77000000E+00           0.90783923E+00
   0.78000000E+00           0.88679989E+00
   0.79000000E+00           0.86578849E+00
   0.80000000E+00           0.84436616E+00
   0.81000000E+00           0.82309308E+00
   0.82000000E+00           0.80155003E+00
   0.83000000E+00           0.78078690E+00
   0.84000000E+00           0.75952503E+00
   0.85000000E+00           0.73874541E+00
   0.86000000E+00           0.71731298E+00
   0.87000000E+00           0.69656658E+00
   0.88000000E+00           0.67611837E+00
   0.89000000E+00           0.65579821E+00
   0.90000000E+00           0.63574008E+00
   0.91000000E+00           0.61609555E+00
   0.92000000E+00           0.59582222E+00
   0.93000000E+00           0.57644158E+00
   0.94000000E+00           0.55742072E+00
   0.95000000E+00           0.53863121E+00
   0.96000000E+00           0.52000329E+00
   0.97000000E+00           0.50164354E+00
   0.98000000E+00           0.48408393E+00
   0.99000000E+00           0.46623611E+00
   0.10000000E+01           0.44932225E+00
   0.10100000E+01           0.43228265E+00
   0.10200000E+01           0.41561910E+00
   0.10300000E+01           0.39974796E+00
   0.10400000E+01           0.38409218E+00
   0.10500000E+01           0.36871919E+00
   0.10600000E+01           0.35371395E+00
   0.10700000E+01           0.33916403E+00
   0.10800000E+01           0.32497962E+00
   0.10900000E+01           0.31139192E+00
   0.11000000E+01           0.29804337E+00
   0.11100000E+01           0.28492078E+00
   0.11200000E+01           0.27247973E+00
   0.11300000E+01           0.26036752E+00
   0.11400000E+01           0.24852769E+00
   0.11500000E+01           0.23722046E+00
   0.11600000E+01           0.22610476E+00
   0.11700000E+01           0.21524104E+00
   0.11800000E+01           0.20528112E+00
   0.11900000E+01           0.19532817E+00
   0.12000000E+01           0.18577613E+00
   0.12100000E+01           0.17646468E+00
   0.12200000E+01           0.16758912E+00
   0.12300000E+01           0.15915077E+00
   0.12400000E+01           0.15076553E+00
   0.12500000E+01           0.14302327E+00
   0.12600000E+01           0.13559249E+00
   0.12700000E+01           0.12825196E+00
   0.12800000E+01           0.12134649E+00
   0.12900000E+01           0.11486224E+00
   0.13000000E+01           0.10836565E+00
   0.13100000E+01           0.10233804E+00
   0.13200000E+01           0.96630669E-01
   0.13300000E+01           0.91114711E-01
   0.13400000E+01           0.85652381E-01
   0.13500000E+01           0.80772109E-01
   0.13600000E+01           0.76003770E-01
   0.13700000E+01           0.71448951E-01
   0.13800000E+01           0.67175624E-01
   0.13900000E+01           0.63010799E-01
   0.14000000E+01           0.59195465E-01
   0.14100000E+01           0.55385261E-01
   0.14200000E+01           0.51880839E-01
   0.14300000E+01           0.48579393E-01
   0.14400000E+01           0.45537500E-01
   0.14500000E+01           0.42509212E-01
   0.14600000E+01           0.39709382E-01
   0.14700000E+01           0.37039342E-01
   0.14800000E+01           0.34548214E-01
   0.14900000E+01           0.32259722E-01
   0.15000000E+01           0.29995011E-01
   0.15100000E+01           0.27871627E-01
   0.15200000E+01           0.25975255E-01
   0.15300000E+01           0.24026446E-01
   0.15400000E+01           0.22379819E-01
   0.15500000E+01           0.20696684E-01
   0.15600000E+01           0.19179535E-01
   0.15700000E+01           0.17761536E-01
   0.15800000E+01           0.16443707E-01
   0.15900000E+01           0.15145125E-01
   0.16000000E+01           0.14013350E-01
   0.16100000E+01           0.12939966E-01
   0.16200000E+01           0.11917715E-01
   0.16300000E+01           0.10978288E-01
   0.16400000E+01           0.10085913E-01
   0.16500000E+01           0.92568027E-02
   0.16600000E+01           0.84910714E-02
   0.16700000E+01           0.78099206E-02
   0.16800000E+01           0.71317744E-02
   0.16900000E+01           0.65200113E-02
   0.17000000E+01           0.59657596E-02
   0.17100000E+01           0.54412132E-02
   0.17200000E+01           0.49636621E-02
   0.17300000E+01           0.45287982E-02
   0.17400000E+01           0.41007086E-02
   0.17500000E+01           0.37475057E-02
   0.17600000E+01           0.33876984E-02
   0.17700000E+01           0.30563492E-02
   0.17800000E+01           0.27604592E-02
   0.17900000E+01           0.24936224E-02
   0.18000000E+01           0.22575964E-02
   0.18100000E+01           0.20451531E-02
   0.18200000E+01           0.18220238E-02
   0.18300000E+01           0.16359977E-02
   0.18400000E+01           0.14627268E-02
   0.18500000E+01           0.13000850E-02
   0.18600000E+01           0.11634921E-02
   0.18700000E+01           0.10241497E-02
   0.18800000E+01           0.91034580E-03
   0.18900000E+01           0.81774376E-03
   0.19000000E+01           0.71142290E-03
   0.19100000E+01           0.62191043E-03
   0.19200000E+01           0.55807823E-03
   0.19300000E+01           0.47928005E-03
   0.19400000E+01           0.41884921E-03
   0.19500000E+01           0.36096939E-03
   0.19600000E+01           0.30487528E-03
   0.19700000E+01           0.26743197E-03
   0.19800000E+01           0.22497166E-03
   0.19900000E+01           0.19435941E-03
   0.20000000E+01           0.82142857E-04
 #T=   144.0000
  -0.20000000E+01           0.00000000E+00
  -0.19900000E+01           0.00000000E+00
  -0.19800000E+01           0.00000000E+00
  -0.19700000E+01           0.00000000E+00
  -0.19600000E+01           0.00000000E+00
  -0.19500000E+01           0.00000000E+00
  -0.19400000E+01           0.00000000E+00
  -0.19300000E+01           0.00000000E+00
  -0.19200000E+01           0.00000000E+00
  -0.19100000E+01           0.00000000E+00
  -0.19000000E+01           0.00000000E+00
  -0.18900000E+01           0.00000000E+00
  -0.18800000E+01           0.00000000E+00
  -0.18700000E+01           0.00000000E+00
  -0.18600000E+01           0.00000000E+00
  -0.18500000E+01           0.00000000E+00
  -0.18400000E+01           0.00000000E+00
  -0.18300000E+01           0.00000000E+00
  -0.18200000E+01           0.00000000E+00
  -0.18100000E+01           0.00000000E+00
  -0.18000000E+01           0.00000000E+00
  -0.17900000E+01           0.00000000E+00
  -0.17800000E+01           0.00000000E+00
  -0.17700000E+01           0.00000000E+00
  -0.17600000E+01           0.00000000E+00
  -0.17500000E+01           0.00000000E+00
  -0.17400000E+01           0.00000000E+00
  -0.17300000E+01           0.00000000E+00
  -0.17200000E+01           0.00000000E+00
  -0.17100000E+01           0.00000000E+00
  -0.17000000E+01           0.00000000E+00
  -0.16900000E+01           0.00000000E+00
  -0.16800000E+01           0.00000000E+00
  -0.16700000E+01           0.00000000E+00
  -0.16600000E+01           0.00000000E+00
  -0.16500000E+01           0.00000000E+00
  -0.16400000E+01           0.00000000E+00
  -0.16300000E+01           0.00000000E+00
  -0.16200000E+01           0.00000000E+00
  -0.16100000E+01           0.00000000E+00
  -0.16000000E+01           0.00000000E+00
  -0.15900000E+01           0.00000000E+00
  -0.15800000E+01           0.00000000E+00
  -0.15700000E+01           0.00000000E+00
  -0.15600000E+01           0.00000000E+00
  -0.15500000E+01           0.00000000E+00
  -0.15400000E+01           0.00000000E+00
  -0.15300000E+01           0.00000000E+00
  -0.15200000E+01           0.00000000E+00
  -0.15100000E+01           0.00000000E+00
  -0.15000000E+01           0.00000000E+00
  -0.14900000E+01           0.00000000E+00
  -0.14800000E+01           0.00000000E+00
  -0.14700000E+01           0.00000000E+00
  -0.14600000E+01           0.00000000E+00
  -0.14500000E+01           0.00000000E+00
  -0.14400000E+01           0.00000000E+00
  -0.14300000E+01           0.00000000E+00
  -0.14200000E+01           0.00000000E+00
  -0.14100000E+01           0.00000000E+00
  -0.14000000E+01           0.00000000E+00
  -0.13900000E+01           0.00000000E+00
  -0.13800000E+01           0.00000000E+00
  -0.13700000E+01           0.00000000E+00
  -0.13600000E+01           0.00000000E+00
  -0.13500000E+01           0.00000000E+00
  -0.13400000E+01           0.00000000E+00
  -0.13300000E+01           0.00000000E+00
  -0.13200000E+01           0.00000000E+00
  -0.13100000E+01           0.00000000E+00
  -0.13000000E+01           0.00000000E+00
  -0.12900000E+01           0.00000000E+00
  -0.12800000E+01           0.00000000E+00
  -0.12700000E+01           0.00000000E+00
  -0.12600000E+01           0.00000000E+00
  -0.12500000E+01           0.00000000E+00
  -0.12400000E+01           0.00000000E+00
  -0.12300000E+01           0.00000000E+00
  -0.12200000E+01           0.00000000E+00
  -0.12100000E+01           0.00000000E+00
  -0.12000000E+01           0.00000000E+00
  -0.11900000E+01           0.00000000E+00
  -0.11800000E+01           0.00000000E+00
  -0.11700000E+01           0.00000000E+00
  -0.11600000E+01           0.00000000E+00
  -0.11500000E+01           0.00000000E+00
  -0.11400000E+01           0.00000000E+00
  -0.11300000E+01           0.00000000E+00
  -0.11200000E+01           0.00000000E+00
  -0.11100000E+01           0.00000000E+00
  -0.11000000E+01           0.00000000E+00
  -0.10900000E+01           0.00000000E+00
  -0.10800000E+01           0.00000000E+00
  -0.10700000E+01           0.00000000E+00
  -0.10600000E+01           0.00000000E+00
  -0.10500000E+01           0.00000000E+00
  -0.10400000E+01           0.00000000E+00
  -0.10300000E+01           0.00000000E+00
  -0.10200000E+01           0.00000000E+00
  -0.10100000E+01           0.00000000E+00
  -0.10000000E+01           0.00000000E+00
  -0.99000000E+00           0.00000000E+00
  -0.98000000E+00           0.00000000E+00
  -0.97000000E+00           0.00000000E+00
  -0.96000000E+00           0.00000000E+00
  -0.95000000E+00           0.00000000E+00
  -0.94000000E+00           0.00000000E+00
  -0.93000000E+00           0.00000000E+00
  -0.92000000E+00           0.00000000E+00
  -0.91000000E+00           0.00000000E+00
  -0.90000000E+00           0.00000000E+00
  -0.89000000E+00           0.00000000E+00
  -0.88000000E+00           0.00000000E+00
  -0.87000000E+00           0.00000000E+00
  -0.86000000E+00           0.00000000E+00
  -0.85000000E+00           0.00000000E+00
  -0.84000000E+00           0.00000000E+00
  -0.83000000E+00           0.00000000E+00
  -0.82000000E+00           0.00000000E+00
  -0.81000000E+00           0.00000000E+00
  -0.80000000E+00           0.00000000E+00
  -0.79000000E+00           0.00000000E+00
  -0.78000000E+00           0.00000000E+00
  -0.77000000E+00           0.00000000E+00
  -0.76000000E+00           0.00000000E+00
  -0.75000000E+00           0.00000000E+00
  -0.74000000E+00           0.00000000E+00
  -0.73000000E+00           0.00000000E+00
  -0.72000000E+00           0.00000000E+00
  -0.71000000E+00           0.00000000E+00
  -0.70000000E+00           0.00000000E+00
  -0.69000000E+00           0.00000000E+00
  -0.68000000E+00           0.00000000E+00
  -0.67000000E+00           0.00000000E+00
  -0.66000000E+00           0.00000000E+00
  -0.65000000E+00           0.00000000E+00
  -0.64000000E+00           0.00000000E+00
  -0.63000000E+00           0.00000000E+00
  -0.62000000E+00           0.00000000E+00
  -0.61000000E+00           0.00000000E+00
  -0.60000000E+00           0.00000000E+00
  -0.59000000E+00           0.00000000E+00
  -0.58000000E+00           0.00000000E+00
  -0.57000000E+00           0.00000000E+00
  -0.56000000E+00           0.00000000E+00
  -0.55000000E+00           0.00000000E+00
  -0.54000000E+00           0.00000000E+00
  -0.53000000E+00           0.00000000E+00
  -0.52000000E+00           0.00000000E+00
  -0.51000000E+00           0.00000000E+00
  -0.50000000E+00           0.00000000E+00
  -0.49000000E+00           0.00000000E+00
  -0.48000000E+00           0.00000000E+00
  -0.47000000E+00           0.00000000E+00
  -0.46000000E+00           0.00000000E+00
  -0.45000000E+00           0.00000000E+00
  -0.44000000E+00           0.00000000E+00
  -0.43000000E+00           0.00000000E+00
  -0.42000000E+00           0.00000000E+00
  -0.41000000E+00           0.00000000E+00
  -0.40000000E+00           0.00000000E+00
  -0.39000000E+00           0.00000000E+00
  -0.38000000E+00           0.00000000E+00
  -0.37000000E+00           0.00000000E+00
  -0.36000000E+00           0.00000000E+00
  -0.35000000E+00           0.00000000E+00
  -0.34000000E+00           0.00000000E+00
  -0.33000000E+00           0.00000000E+00
  -0.32000000E+00           0.00000000E+00
  -0.31000000E+00           0.00000000E+00
  -0.30000000E+00           0.00000000E+00
  -0.29000000E+00           0.00000000E+00
  -0.28000000E+00           0.00000000E+00
  -0.27000000E+00           0.00000000E+00
  -0.26000000E+00           0.00000000E+00
  -0.25000000E+00           0.00000000E+00
  -0.24000000E+00           0.00000000E+00
  -0.23000000E+00           0.00000000E+00
  -0.22000000E+00           0.00000000E+00
  -0.21000000E+00           0.00000000E+00
  -0.20000000E+00           0.00000000E+00
  -0.19000000E+00           0.00000000E+00
  -0.18000000E+00           0.00000000E+00
  -0.17000000E+00           0.00000000E+00
  -0.16000000E+00           0.00000000E+00
  -0.15000000E+00           0.00000000E+00
  -0.14000000E+00           0.00000000E+00
  -0.13000000E+00           0.00000000E+00
  -0.12000000E+00           0.00000000E+00
  -0.11000000E+00           0.00000000E+00
  -0.10000000E+00           0.00000000E+00
  -0.90000000E-01           0.00000000E+00
  -0.80000000E-01           0.00000000E+00
  -0.70000000E-01           0.00000000E+00
  -0.60000000E-01           0.00000000E+00
  -0.50000000E-01           0.00000000E+00
  -0.40000000E-01           0.00000000E+00
  -0.30000000E-01           0.00000000E+00
  -0.20000000E-01           0.00000000E+00
  -0.10000000E-01           0.00000000E+00
   0.00000000E+00           0.58054989E-02
   0.10000000E-01           0.46400340E-01
   0.20000000E-01           0.92716837E-01
   0.30000000E-01           0.13886310E+00
   0.40000000E-01           0.18495564E+00
   0.50000000E-01           0.23066735E+00
   0.60000000E-01           0.27625740E+00
   0.70000000E-01           0.32115315E+00
   0.80000000E-01           0.36559532E+00
   0.90000000E-01           0.40989062E+00
   0.10000000E+00           0.45347381E+00
   0.11000000E+00           0.49640507E+00
   0.12000000E+00           0.53921063E+00
   0.13000000E+00           0.58068141E+00
   0.14000000E+00           0.62149456E+00
   0.15000000E+00           0.66083359E+00
   0.16000000E+00           0.70049668E+00
   0.17000000E+00           0.73844249E+00
   0.18000000E+00           0.77607262E+00
   0.19000000E+00           0.81226066E+00
   0.20000000E+00           0.84680184E+00
   0.21000000E+00           0.88156156E+00
   0.22000000E+00           0.91442931E+00
   0.23000000E+00           0.94564861E+00
   0.24000000E+00           0.97657004E+00
   0.25000000E+00           0.10060207E+01
   0.26000000E+00           0.10345749E+01
   0.27000000E+00           0.10607791E+01
   0.28000000E+00           0.10865045E+01
   0.29000000E+00           0.11106308E+01
   0.30000000E+00           0.11333873E+01
   0.31000000E+00           0.11553122E+01
   0.32000000E+00           0.11754605E+01
   0.33000000E+00           0.11943344E+01
   0.34000000E+00           0.12111068E+01
   0.35000000E+00           0.12273554E+01
   0.36000000E+00           0.12418072E+01
   0.37000000E+00           0.12553135E+01
   0.38000000E+00           0.12679145E+01
   0.39000000E+00           0.12778659E+01
   0.40000000E+00           0.12866105E+01
   0.41000000E+00           0.12951643E+01
   0.42000000E+00           0.13015261E+01
   0.43000000E+00           0.13069698E+01
   0.44000000E+00           0.13108931E+01
   0.45000000E+00           0.13141162E+01
   0.46000000E+00           0.13156462E+01
   0.47000000E+00           0.13148843E+01
   0.48000000E+00           0.13136687E+01
   0.49000000E+00           0.13119675E+01
[...]
   0.13800000E+01           0.38710272E+00
   0.13900000E+01           0.37831474E+00
   0.14000000E+01           0.36993274E+00
   0.14100000E+01           0.36123308E+00
   0.14200000E+01           0.35313461E+00
   0.14300000E+01           0.34469487E+00
   0.14400000E+01           0.33663328E+00
   0.14500000E+01           0.32876735E+00
   0.14600000E+01           0.32065754E+00
   0.14700000E+01           0.31289972E+00
   0.14800000E+01           0.30524357E+00
   0.14900000E+01           0.29762109E+00
   0.15000000E+01           0.29011335E+00
   0.15100000E+01           0.28310658E+00
   0.15200000E+01           0.27562511E+00
   0.15300000E+01           0.26863883E+00
   0.15400000E+01           0.26161151E+00
   0.15500000E+01           0.25477095E+00
   0.15600000E+01           0.24785471E+00
   0.15700000E+01           0.24124430E+00
   0.15800000E+01           0.23479121E+00
   0.15900000E+01           0.22839238E+00
   0.16000000E+01           0.22212543E+00
   0.16100000E+01           0.21597664E+00
   0.16200000E+01           0.20993501E+00
   0.16300000E+01           0.20393682E+00
   0.16400000E+01           0.19815856E+00
   0.16500000E+01           0.19256831E+00
   0.16600000E+01           0.18694178E+00
   0.16700000E+01           0.18136125E+00
   0.16800000E+01           0.17606037E+00
   0.16900000E+01           0.17092755E+00
   0.17000000E+01           0.16576003E+00
   0.17100000E+01           0.16078645E+00
   0.17200000E+01           0.15590726E+00
   0.17300000E+01           0.15113642E+00
   0.17400000E+01           0.14658682E+00
   0.17500000E+01           0.14190686E+00
   0.17600000E+01           0.13740108E+00
   0.17700000E+01           0.13318665E+00
   0.17800000E+01           0.12889929E+00
   0.17900000E+01           0.12479887E+00
   0.18000000E+01           0.12070207E+00
   0.18100000E+01           0.11693849E+00
   0.18200000E+01           0.11300317E+00
   0.18300000E+01           0.10934385E+00
   0.18400000E+01           0.10573605E+00
   0.18500000E+01           0.10214935E+00
   0.18600000E+01           0.98766638E-01
   0.18700000E+01           0.95442885E-01
   0.18800000E+01           0.92190476E-01
   0.18900000E+01           0.88912443E-01
   0.19000000E+01           0.86078005E-01
   0.19100000E+01           0.83088889E-01
   0.19200000E+01           0.80045607E-01
   0.19300000E+01           0.77305697E-01
   0.19400000E+01           0.74451757E-01
   0.19500000E+01           0.71877041E-01
   0.19600000E+01           0.69384666E-01
   0.19700000E+01           0.66783050E-01
   0.19800000E+01           0.64448498E-01
   0.19900000E+01           0.62007058E-01
   0.20000000E+01           0.30188549E-01
 #T=   259.0000
  -0.20000000E+01           0.00000000E+00
  -0.19900000E+01           0.00000000E+00
  -0.19800000E+01           0.00000000E+00
  -0.19700000E+01           0.00000000E+00
  -0.19600000E+01           0.00000000E+00
  -0.19500000E+01           0.00000000E+00
  -0.19400000E+01           0.00000000E+00
  -0.19300000E+01           0.00000000E+00
  -0.19200000E+01           0.00000000E+00
  -0.19100000E+01           0.00000000E+00
  -0.19000000E+01           0.00000000E+00
  -0.18900000E+01           0.00000000E+00
  -0.18800000E+01           0.00000000E+00
  -0.18700000E+01           0.00000000E+00
  -0.18600000E+01           0.00000000E+00
  -0.18500000E+01           0.00000000E+00
  -0.18400000E+01           0.00000000E+00
  -0.18300000E+01           0.00000000E+00
  -0.18200000E+01           0.00000000E+00
  -0.18100000E+01           0.00000000E+00
  -0.18000000E+01           0.00000000E+00
  -0.17900000E+01           0.00000000E+00
  -0.17800000E+01           0.00000000E+00
  -0.17700000E+01           0.00000000E+00
  -0.17600000E+01           0.00000000E+00
  -0.17500000E+01           0.00000000E+00
  -0.17400000E+01           0.00000000E+00
  -0.17300000E+01           0.00000000E+00
  -0.17200000E+01           0.00000000E+00
  -0.17100000E+01           0.00000000E+00
  -0.17000000E+01           0.00000000E+00
  -0.16900000E+01           0.00000000E+00
  -0.16800000E+01           0.00000000E+00
  -0.16700000E+01           0.00000000E+00
  -0.16600000E+01           0.00000000E+00
  -0.16500000E+01           0.00000000E+00
  -0.16400000E+01           0.00000000E+00
  -0.16300000E+01           0.00000000E+00
  -0.16200000E+01           0.00000000E+00
  -0.16100000E+01           0.00000000E+00
  -0.16000000E+01           0.00000000E+00
  -0.15900000E+01           0.00000000E+00
  -0.15800000E+01           0.00000000E+00
  -0.15700000E+01           0.00000000E+00
  -0.15600000E+01           0.00000000E+00
  -0.15500000E+01           0.00000000E+00
  -0.15400000E+01           0.00000000E+00
  -0.15300000E+01           0.00000000E+00
  -0.15200000E+01           0.00000000E+00
  -0.15100000E+01           0.00000000E+00
  -0.15000000E+01           0.00000000E+00
  -0.14900000E+01           0.00000000E+00
  -0.14800000E+01           0.00000000E+00
  -0.14700000E+01           0.00000000E+00
  -0.14600000E+01           0.00000000E+00
  -0.14500000E+01           0.00000000E+00
  -0.14400000E+01           0.00000000E+00
  -0.14300000E+01           0.00000000E+00
  -0.14200000E+01           0.00000000E+00
  -0.14100000E+01           0.00000000E+00
  -0.14000000E+01           0.00000000E+00
  -0.13900000E+01           0.00000000E+00
  -0.13800000E+01           0.00000000E+00
  -0.13700000E+01           0.00000000E+00
  -0.13600000E+01           0.00000000E+00
  -0.13500000E+01           0.00000000E+00
  -0.13400000E+01           0.00000000E+00
  -0.13300000E+01           0.00000000E+00
  -0.13200000E+01           0.00000000E+00
  -0.13100000E+01           0.00000000E+00
  -0.13000000E+01           0.00000000E+00
  -0.12900000E+01           0.00000000E+00
  -0.12800000E+01           0.00000000E+00
  -0.12700000E+01           0.00000000E+00
  -0.12600000E+01           0.00000000E+00
  -0.12500000E+01           0.00000000E+00
  -0.12400000E+01           0.00000000E+00
  -0.12300000E+01           0.00000000E+00
  -0.12200000E+01           0.00000000E+00
  -0.12100000E+01           0.00000000E+00
  -0.12000000E+01           0.00000000E+00
  -0.11900000E+01           0.00000000E+00
  -0.11800000E+01           0.00000000E+00
  -0.11700000E+01           0.00000000E+00
  -0.11600000E+01           0.00000000E+00
  -0.11500000E+01           0.00000000E+00
  -0.11400000E+01           0.00000000E+00
  -0.11300000E+01           0.00000000E+00
  -0.11200000E+01           0.00000000E+00
  -0.11100000E+01           0.00000000E+00
  -0.11000000E+01           0.00000000E+00
  -0.10900000E+01           0.00000000E+00
  -0.10800000E+01           0.00000000E+00
  -0.10700000E+01           0.00000000E+00
  -0.10600000E+01           0.00000000E+00
  -0.10500000E+01           0.00000000E+00
  -0.10400000E+01           0.00000000E+00
  -0.10300000E+01           0.00000000E+00
  -0.10200000E+01           0.00000000E+00
  -0.10100000E+01           0.00000000E+00
  -0.10000000E+01           0.00000000E+00
  -0.99000000E+00           0.00000000E+00
  -0.98000000E+00           0.00000000E+00
  -0.97000000E+00           0.00000000E+00
  -0.96000000E+00           0.00000000E+00
  -0.95000000E+00           0.00000000E+00
  -0.94000000E+00           0.00000000E+00
  -0.93000000E+00           0.00000000E+00
  -0.92000000E+00           0.00000000E+00
  -0.91000000E+00           0.00000000E+00
  -0.90000000E+00           0.00000000E+00
  -0.89000000E+00           0.00000000E+00
  -0.88000000E+00           0.00000000E+00
  -0.87000000E+00           0.00000000E+00
  -0.86000000E+00           0.00000000E+00
  -0.85000000E+00           0.00000000E+00
  -0.84000000E+00           0.00000000E+00
  -0.83000000E+00           0.00000000E+00
  -0.82000000E+00           0.00000000E+00
  -0.81000000E+00           0.00000000E+00
  -0.80000000E+00           0.00000000E+00
  -0.79000000E+00           0.00000000E+00
  -0.78000000E+00           0.00000000E+00
  -0.77000000E+00           0.00000000E+00
  -0.76000000E+00           0.00000000E+00
  -0.75000000E+00           0.00000000E+00
  -0.74000000E+00           0.00000000E+00
  -0.73000000E+00           0.00000000E+00
  -0.72000000E+00           0.00000000E+00
  -0.71000000E+00           0.00000000E+00
  -0.70000000E+00           0.00000000E+00
  -0.69000000E+00           0.00000000E+00
  -0.68000000E+00           0.00000000E+00
  -0.67000000E+00           0.00000000E+00
  -0.66000000E+00           0.00000000E+00
  -0.65000000E+00           0.00000000E+00
  -0.64000000E+00           0.00000000E+00
  -0.63000000E+00           0.00000000E+00
  -0.62000000E+00           0.00000000E+00
  -0.61000000E+00           0.00000000E+00
  -0.60000000E+00           0.00000000E+00
  -0.59000000E+00           0.00000000E+00
  -0.58000000E+00           0.00000000E+00
  -0.57000000E+00           0.00000000E+00
  -0.56000000E+00           0.00000000E+00
  -0.55000000E+00           0.00000000E+00
  -0.54000000E+00           0.00000000E+00
  -0.53000000E+00           0.00000000E+00
  -0.52000000E+00           0.00000000E+00
  -0.51000000E+00           0.00000000E+00
  -0.50000000E+00           0.00000000E+00
  -0.49000000E+00           0.00000000E+00
  -0.48000000E+00           0.00000000E+00
  -0.47000000E+00           0.00000000E+00
  -0.46000000E+00           0.00000000E+00
  -0.45000000E+00           0.00000000E+00
  -0.44000000E+00           0.00000000E+00
  -0.43000000E+00           0.00000000E+00
  -0.42000000E+00           0.00000000E+00
  -0.41000000E+00           0.00000000E+00
  -0.40000000E+00           0.00000000E+00
  -0.39000000E+00           0.00000000E+00
  -0.38000000E+00           0.00000000E+00
  -0.37000000E+00           0.00000000E+00
  -0.36000000E+00           0.00000000E+00
  -0.35000000E+00           0.00000000E+00
  -0.34000000E+00           0.00000000E+00
  -0.33000000E+00           0.00000000E+00
  -0.32000000E+00           0.00000000E+00
  -0.31000000E+00           0.00000000E+00
  -0.30000000E+00           0.00000000E+00
  -0.29000000E+00           0.00000000E+00
  -0.28000000E+00           0.00000000E+00
  -0.27000000E+00           0.00000000E+00
  -0.26000000E+00           0.00000000E+00
  -0.25000000E+00           0.00000000E+00
  -0.24000000E+00           0.00000000E+00
  -0.23000000E+00           0.00000000E+00
  -0.22000000E+00           0.00000000E+00
  -0.21000000E+00           0.00000000E+00
  -0.20000000E+00           0.00000000E+00
  -0.19000000E+00           0.00000000E+00
  -0.18000000E+00           0.00000000E+00
  -0.17000000E+00           0.00000000E+00
  -0.16000000E+00           0.00000000E+00
  -0.15000000E+00           0.00000000E+00
  -0.14000000E+00           0.00000000E+00
  -0.13000000E+00           0.00000000E+00
  -0.12000000E+00           0.00000000E+00
  -0.11000000E+00           0.00000000E+00
  -0.10000000E+00           0.00000000E+00
  -0.90000000E-01           0.00000000E+00
  -0.80000000E-01           0.00000000E+00
  -0.70000000E-01           0.00000000E+00
  -0.60000000E-01           0.00000000E+00
  -0.50000000E-01           0.00000000E+00
  -0.40000000E-01           0.00000000E+00
  -0.30000000E-01           0.00000000E+00
  -0.20000000E-01           0.00000000E+00
  -0.10000000E-01           0.00000000E+00
   0.00000000E+00           0.27235828E-02
   0.10000000E-01           0.21762982E-01
   0.20000000E-01           0.43586224E-01
   0.30000000E-01           0.65308815E-01
   0.40000000E-01           0.86868707E-01
   0.50000000E-01           0.10868237E+00
   0.60000000E-01           0.13019272E+00
   0.70000000E-01           0.15172367E+00
   0.80000000E-01           0.17311797E+00
   0.90000000E-01           0.19416499E+00
   0.10000000E+00           0.21551786E+00
   0.11000000E+00           0.23650726E+00
   0.12000000E+00           0.25736429E+00
   0.13000000E+00           0.27785762E+00
   0.14000000E+00           0.29850794E+00
   0.15000000E+00           0.31863265E+00
   0.16000000E+00           0.33908084E+00
   0.17000000E+00           0.35891976E+00
   0.18000000E+00           0.37849836E+00
   0.19000000E+00           0.39794972E+00
   0.20000000E+00           0.41714323E+00
   0.21000000E+00           0.43640020E+00
   0.22000000E+00           0.45452653E+00
   0.23000000E+00           0.47322715E+00
   0.24000000E+00           0.49125258E+00
   0.25000000E+00           0.50943605E+00
   0.26000000E+00           0.52638407E+00
   0.27000000E+00           0.54365266E+00
   0.28000000E+00           0.56054082E+00
   0.29000000E+00           0.57681227E+00
   0.30000000E+00           0.59313832E+00
   0.31000000E+00           0.60832296E+00
   0.32000000E+00           0.62427979E+00
   0.33000000E+00           0.63921505E+00
   0.34000000E+00           0.65383291E+00
   0.35000000E+00           0.66798330E+00
   0.36000000E+00           0.68177625E+00
   0.37000000E+00           0.69552494E+00
   0.38000000E+00           0.70813926E+00
   0.39000000E+00           0.72109263E+00
   0.40000000E+00           0.73314918E+00
   0.41000000E+00           0.74488934E+00
   0.42000000E+00           0.75649785E+00
   0.43000000E+00           0.76702582E+00
   0.44000000E+00           0.77803050E+00
   0.45000000E+00           0.78783535E+00
   0.46000000E+00           0.79774439E+00
   0.47000000E+00           0.80677993E+00
   0.48000000E+00           0.81537044E+00
   0.49000000E+00           0.82359209E+00
   0.50000000E+00           0.83191573E+00
   0.51000000E+00           0.83960845E+00
   0.52000000E+00           0.84638121E+00
   0.53000000E+00           0.85293943E+00
   0.54000000E+00           0.85896474E+00
   0.55000000E+00           0.86452001E+00
   0.56000000E+00           0.87017185E+00
   0.57000000E+00           0.87467851E+00
   0.58000000E+00           0.87903362E+00
   0.59000000E+00           0.88304368E+00
   0.60000000E+00           0.88676922E+00
   0.61000000E+00           0.88991899E+00
   0.62000000E+00           0.89257098E+00
   0.63000000E+00           0.89467795E+00
   0.64000000E+00           0.89665303E+00
   0.65000000E+00           0.89790269E+00
   0.66000000E+00           0.89884651E+00
   0.67000000E+00           0.89945745E+00
   0.68000000E+00           0.89984756E+00
   0.69000000E+00           0.89977517E+00
   0.70000000E+00           0.89934881E+00
   0.71000000E+00           0.89821848E+00
   0.72000000E+00           0.89729303E+00
   0.73000000E+00           0.89564447E+00
   0.74000000E+00           0.89363968E+00
   0.75000000E+00           0.89148441E+00
   0.76000000E+00           0.88869430E+00
   0.77000000E+00           0.88544850E+00
   0.78000000E+00           0.88244736E+00
   0.79000000E+00           0.87858183E+00
   0.80000000E+00           0.87498764E+00
   0.81000000E+00           0.87056505E+00
   0.82000000E+00           0.86593251E+00
   0.83000000E+00           0.86108007E+00
   0.84000000E+00           0.85585896E+00
   0.85000000E+00           0.85066888E+00
   0.86000000E+00           0.84475354E+00
   0.87000000E+00           0.83927061E+00
   0.88000000E+00           0.83274266E+00
   0.89000000E+00           0.82630411E+00
   0.90000000E+00           0.81997296E+00
   0.91000000E+00           0.81285034E+00
   0.92000000E+00           0.80602194E+00
   0.93000000E+00           0.79835079E+00
   0.94000000E+00           0.79097188E+00
   0.95000000E+00           0.78360428E+00
   0.96000000E+00           0.77579413E+00
   0.97000000E+00           0.76786995E+00
   0.98000000E+00           0.75958889E+00
   0.99000000E+00           0.75118073E+00
   0.10000000E+01           0.74272455E+00
   0.10100000E+01           0.73411420E+00
   0.10200000E+01           0.72559226E+00
   0.10300000E+01           0.71693435E+00
   0.10400000E+01           0.70773790E+00
   0.10500000E+01           0.69864694E+00
   0.10600000E+01           0.68969836E+00
   0.10700000E+01           0.68013611E+00
   0.10800000E+01           0.67095224E+00
   0.10900000E+01           0.66176638E+00
   0.11000000E+01           0.65234416E+00
   0.11100000E+01           0.64295156E+00
   0.11200000E+01           0.63329059E+00
   0.11300000E+01           0.62339320E+00
   0.11400000E+01           0.61396650E+00
   0.11500000E+01           0.60440040E+00
   0.11600000E+01           0.59475176E+00
   0.11700000E+01           0.58502647E+00
   0.11800000E+01           0.57512126E+00
   0.11900000E+01           0.56604541E+00
   0.12000000E+01           0.55609535E+00
   0.12100000E+01           0.54659940E+00
   0.12200000E+01           0.53659796E+00
   0.12300000E+01           0.52716338E+00
   0.12400000E+01           0.51775788E+00
   0.12500000E+01           0.50794113E+00
   0.12600000E+01           0.49855241E+00
   0.12700000E+01           0.48888781E+00
   0.12800000E+01           0.47971664E+00
   0.12900000E+01           0.47030102E+00
   0.13000000E+01           0.46089929E+00
   0.13100000E+01           0.45170490E+00
   0.13200000E+01           0.44238673E+00
   0.13300000E+01           0.43331652E+00
   0.13400000E+01           0.42431913E+00
   0.13500000E+01           0.41558135E+00
   0.13600000E+01           0.40667968E+00
   0.13700000E+01           0.39773861E+00
   0.13800000E+01           0.38913274E+00
   0.13900000E+01           0.38061599E+00
   0.14000000E+01           0.37209799E+00
   0.14100000E+01           0.36371780E+00
   0.14200000E+01           0.35523382E+00
   0.14300000E+01           0.34705128E+00
   0.14400000E+01           0.33864606E+00
   0.14500000E+01           0.33077874E+00
   0.14600000E+01           0.32300230E+00
   0.14700000E+01           0.31523895E+00
   0.14800000E+01           0.30755204E+00
   0.14900000E+01           0.29990125E+00
   0.15000000E+01           0.29254495E+00
   0.15100000E+01           0.28503313E+00
   0.15200000E+01           0.27792551E+00
   0.15300000E+01           0.27078104E+00
   0.15400000E+01           0.26368713E+00
   0.15500000E+01           0.25689575E+00
   0.15600000E+01           0.25023107E+00
   0.15700000E+01           0.24353455E+00
   0.15800000E+01           0.23699311E+00
   0.15900000E+01           0.23046584E+00
   0.16000000E+01           0.22410244E+00
   0.16100000E+01           0.21802358E+00
   0.16200000E+01           0.21188790E+00
   0.16300000E+01           0.20606973E+00
   0.16400000E+01           0.20022948E+00
   0.16500000E+01           0.19453424E+00
   0.16600000E+01           0.18878866E+00
   0.16700000E+01           0.18346573E+00
   0.16800000E+01           0.17813308E+00
   0.16900000E+01           0.17278379E+00
   0.17000000E+01           0.16771372E+00
   0.17100000E+01           0.16276103E+00
   0.17200000E+01           0.15779827E+00
   0.17300000E+01           0.15300629E+00
   0.17400000E+01           0.14824039E+00
   0.17500000E+01           0.14373245E+00
   0.17600000E+01           0.13917871E+00
   0.17700000E+01           0.13481661E+00
   0.17800000E+01           0.13058254E+00
   0.17900000E+01           0.12649368E+00
   0.18000000E+01           0.12248529E+00
   0.18100000E+01           0.11861001E+00
   0.18200000E+01           0.11473773E+00
   0.18300000E+01           0.11094124E+00
   0.18400000E+01           0.10727851E+00
   0.18500000E+01           0.10362605E+00
   0.18600000E+01           0.10030884E+00
   0.18700000E+01           0.96867744E-01
   0.18800000E+01           0.93582058E-01
   0.18900000E+01           0.90377608E-01
   0.19000000E+01           0.87334155E-01
   0.19100000E+01           0.84288039E-01
   0.19200000E+01           0.81404308E-01
   0.19300000E+01           0.78525510E-01
   0.19400000E+01           0.75847902E-01
   0.19500000E+01           0.73125397E-01
   0.19600000E+01           0.70456831E-01
   0.19700000E+01           0.68065023E-01
   0.19800000E+01           0.65545323E-01
   0.19900000E+01           0.63164427E-01
   0.20000000E+01           0.30779110E-01
