 #written on 31Jul2024 at 13:40:06 
 #----------------- MONTECARLO -------------------#
 #        M                      P(M)             #
 #------------------------------------------------#
 #T=   386.0000
  -0.20000000E+01           0.00000000E+00
  -0.19900000E+01           0.00000000E+00
  -0.19800000E+01           0.00000000E+00
  -0.19700000E+01           0.00000000E+00
  -0.19600000E+01           0.00000000E+00
  -0.19500000E+01           0.00000000E+00
  -0.19400000E+01           0.00000000E+00
  -0.19300000E+01           0.00000000E+00
  -0.19200000E+01           0.00000000E+00
  -0.19100000E+01           0.00000000E+00
  -0.19000000E+01           0.00000000E+00
  -0.18900000E+01           0.00000000E+00
  -0.18800000E+01           0.00000000E+00
  -0.18700000E+01           0.00000000E+00
  -0.18600000E+01           0.00000000E+00
  -0.18500000E+01           0.00000000E+00
  -0.18400000E+01           0.00000000E+00
  -0.18300000E+01           0.00000000E+00
  -0.18200000E+01           0.00000000E+00
  -0.18100000E+01           0.00000000E+00
  -0.18000000E+01           0.00000000E+00
  -0.17900000E+01           0.00000000E+00
  -0.17800000E+01           0.00000000E+00
  -0.17700000E+01           0.00000000E+00
  -0.17600000E+01           0.00000000E+00
  -0.17500000E+01           0.00000000E+00
  -0.17400000E+01           0.00000000E+00
  -0.17300000E+01           0.00000000E+00
  -0.17200000E+01           0.00000000E+00
  -0.17100000E+01           0.00000000E+00
  -0.17000000E+01           0.00000000E+00
  -0.16900000E+01           0.00000000E+00
  -0.16800000E+01           0.00000000E+00
  -0.16700000E+01           0.00000000E+00
  -0.16600000E+01           0.00000000E+00
  -0.16500000E+01           0.00000000E+00
  -0.16400000E+01           0.00000000E+00
  -0.16300000E+01           0.00000000E+00
  -0.16200000E+01           0.00000000E+00
  -0.16100000E+01           0.00000000E+00
  -0.16000000E+01           0.00000000E+00
  -0.15900000E+01           0.00000000E+00
  -0.15800000E+01           0.00000000E+00
  -0.15700000E+01           0.00000000E+00
  -0.15600000E+01           0.00000000E+00
  -0.15500000E+01           0.00000000E+00
  -0.15400000E+01           0.00000000E+00
  -0.15300000E+01           0.00000000E+00
  -0.15200000E+01           0.00000000E+00
  -0.15100000E+01           0.00000000E+00
  -0.15000000E+01           0.00000000E+00
  -0.14900000E+01           0.00000000E+00
  -0.14800000E+01           0.00000000E+00
  -0.14700000E+01           0.00000000E+00
  -0.14600000E+01           0.00000000E+00
  -0.14500000E+01           0.00000000E+00
  -0.14400000E+01           0.00000000E+00
  -0.14300000E+01           0.00000000E+00
  -0.14200000E+01           0.00000000E+00
  -0.14100000E+01           0.00000000E+00
  -0.14000000E+01           0.00000000E+00
  -0.13900000E+01           0.00000000E+00
  -0.13800000E+01           0.00000000E+00
  -0.13700000E+01           0.00000000E+00
  -0.13600000E+01           0.00000000E+00
  -0.13500000E+01           0.00000000E+00
  -0.13400000E+01           0.00000000E+00
  -0.13300000E+01           0.00000000E+00
  -0.13200000E+01           0.00000000E+00
  -0.13100000E+01           0.00000000E+00
  -0.13000000E+01           0.00000000E+00
  -0.12900000E+01           0.00000000E+00
  -0.12800000E+01           0.00000000E+00
  -0.12700000E+01           0.00000000E+00
  -0.12600000E+01           0.00000000E+00
  -0.12500000E+01           0.00000000E+00
  -0.12400000E+01           0.00000000E+00
  -0.12300000E+01           0.00000000E+00
  -0.12200000E+01           0.00000000E+00
  -0.12100000E+01           0.00000000E+00
  -0.12000000E+01           0.00000000E+00
  -0.11900000E+01           0.00000000E+00
  -0.11800000E+01           0.00000000E+00
  -0.11700000E+01           0.00000000E+00
  -0.11600000E+01           0.00000000E+00
  -0.11500000E+01           0.00000000E+00
  -0.11400000E+01           0.00000000E+00
  -0.11300000E+01           0.00000000E+00
  -0.11200000E+01           0.00000000E+00
  -0.11100000E+01           0.00000000E+00
  -0.11000000E+01           0.00000000E+00
  -0.10900000E+01           0.00000000E+00
  -0.10800000E+01           0.00000000E+00
  -0.10700000E+01           0.00000000E+00
  -0.10600000E+01           0.00000000E+00
  -0.10500000E+01           0.00000000E+00
  -0.10400000E+01           0.00000000E+00
  -0.10300000E+01           0.00000000E+00
  -0.10200000E+01           0.00000000E+00
  -0.10100000E+01           0.00000000E+00
  -0.10000000E+01           0.00000000E+00
  -0.99000000E+00           0.00000000E+00
  -0.98000000E+00           0.00000000E+00
  -0.97000000E+00           0.00000000E+00
  -0.96000000E+00           0.00000000E+00
  -0.95000000E+00           0.00000000E+00
  -0.94000000E+00           0.00000000E+00
  -0.93000000E+00           0.00000000E+00
  -0.92000000E+00           0.00000000E+00
  -0.91000000E+00           0.00000000E+00
  -0.90000000E+00           0.00000000E+00
  -0.89000000E+00           0.00000000E+00
  -0.88000000E+00           0.00000000E+00
  -0.87000000E+00           0.00000000E+00
  -0.86000000E+00           0.00000000E+00
  -0.85000000E+00           0.00000000E+00
  -0.84000000E+00           0.00000000E+00
  -0.83000000E+00           0.00000000E+00
  -0.82000000E+00           0.00000000E+00
  -0.81000000E+00           0.00000000E+00
  -0.80000000E+00           0.00000000E+00
  -0.79000000E+00           0.00000000E+00
  -0.78000000E+00           0.00000000E+00
  -0.77000000E+00           0.00000000E+00
  -0.76000000E+00           0.00000000E+00
  -0.75000000E+00           0.00000000E+00
  -0.74000000E+00           0.00000000E+00
  -0.73000000E+00           0.00000000E+00
  -0.72000000E+00           0.00000000E+00
  -0.71000000E+00           0.00000000E+00
  -0.70000000E+00           0.00000000E+00
  -0.69000000E+00           0.00000000E+00
  -0.68000000E+00           0.00000000E+00
  -0.67000000E+00           0.00000000E+00
  -0.66000000E+00           0.00000000E+00
  -0.65000000E+00           0.00000000E+00
  -0.64000000E+00           0.00000000E+00
  -0.63000000E+00           0.00000000E+00
  -0.62000000E+00           0.00000000E+00
  -0.61000000E+00           0.00000000E+00
  -0.60000000E+00           0.00000000E+00
  -0.59000000E+00           0.00000000E+00
  -0.58000000E+00           0.00000000E+00
  -0.57000000E+00           0.00000000E+00
  -0.56000000E+00           0.00000000E+00
  -0.55000000E+00           0.00000000E+00
  -0.54000000E+00           0.00000000E+00
  -0.53000000E+00           0.00000000E+00
  -0.52000000E+00           0.00000000E+00
  -0.51000000E+00           0.00000000E+00
  -0.50000000E+00           0.00000000E+00
  -0.49000000E+00           0.00000000E+00
  -0.48000000E+00           0.00000000E+00
  -0.47000000E+00           0.00000000E+00
  -0.46000000E+00           0.00000000E+00
  -0.45000000E+00           0.00000000E+00
  -0.44000000E+00           0.00000000E+00
  -0.43000000E+00           0.00000000E+00
  -0.42000000E+00           0.00000000E+00
  -0.41000000E+00           0.00000000E+00
  -0.40000000E+00           0.00000000E+00
  -0.39000000E+00           0.00000000E+00
  -0.38000000E+00           0.00000000E+00
  -0.37000000E+00           0.00000000E+00
  -0.36000000E+00           0.00000000E+00
  -0.35000000E+00           0.00000000E+00
  -0.34000000E+00           0.00000000E+00
  -0.33000000E+00           0.00000000E+00
  -0.32000000E+00           0.00000000E+00
  -0.31000000E+00           0.00000000E+00
  -0.30000000E+00           0.00000000E+00
  -0.29000000E+00           0.00000000E+00
  -0.28000000E+00           0.00000000E+00
  -0.27000000E+00           0.00000000E+00
  -0.26000000E+00           0.00000000E+00
  -0.25000000E+00           0.00000000E+00
  -0.24000000E+00           0.00000000E+00
  -0.23000000E+00           0.00000000E+00
  -0.22000000E+00           0.00000000E+00
  -0.21000000E+00           0.00000000E+00
  -0.20000000E+00           0.00000000E+00
  -0.19000000E+00           0.00000000E+00
  -0.18000000E+00           0.00000000E+00
  -0.17000000E+00           0.00000000E+00
  -0.16000000E+00           0.00000000E+00
  -0.15000000E+00           0.00000000E+00
  -0.14000000E+00           0.00000000E+00
  -0.13000000E+00           0.00000000E+00
  -0.12000000E+00           0.00000000E+00
  -0.11000000E+00           0.00000000E+00
  -0.10000000E+00           0.00000000E+00
  -0.90000000E-01           0.00000000E+00
  -0.80000000E-01           0.00000000E+00
  -0.70000000E-01           0.00000000E+00
  -0.60000000E-01           0.00000000E+00
  -0.50000000E-01           0.00000000E+00
  -0.40000000E-01           0.00000000E+00
  -0.30000000E-01           0.00000000E+00
  -0.20000000E-01           0.00000000E+00
  -0.10000000E-01           0.00000000E+00
   0.00000000E+00           0.14622000E-02
   0.10000000E-01           0.11759200E-01
   0.20000000E-01           0.23455800E-01
   0.30000000E-01           0.35211950E-01
   0.40000000E-01           0.46880250E-01
   0.50000000E-01           0.58615300E-01
   0.60000000E-01           0.70375400E-01
   0.70000000E-01           0.81906400E-01
   0.80000000E-01           0.93571050E-01
   0.90000000E-01           0.10515255E+00
   0.10000000E+00           0.11679690E+00
   0.11000000E+00           0.12816020E+00
   0.12000000E+00           0.13985800E+00
   0.13000000E+00           0.15124330E+00
   0.14000000E+00           0.16271685E+00
   0.15000000E+00           0.17411315E+00
   0.16000000E+00           0.18562245E+00
   0.17000000E+00           0.19699755E+00
   0.18000000E+00           0.20819515E+00
   0.19000000E+00           0.21927815E+00
   0.20000000E+00           0.23064260E+00
   0.21000000E+00           0.24172525E+00
   0.22000000E+00           0.25255525E+00
   0.23000000E+00           0.26359755E+00
   0.24000000E+00           0.27441900E+00
   0.25000000E+00           0.28532745E+00
   0.26000000E+00           0.29581060E+00
   0.27000000E+00           0.30661435E+00
   0.28000000E+00           0.31722395E+00
   0.29000000E+00           0.32761075E+00
   0.30000000E+00           0.33830625E+00
   0.31000000E+00           0.34856845E+00
   0.32000000E+00           0.35846000E+00
   0.33000000E+00           0.36883805E+00
   0.34000000E+00           0.37868435E+00
   0.35000000E+00           0.38896090E+00
   0.36000000E+00           0.39873965E+00
   0.37000000E+00           0.40815455E+00
   0.38000000E+00           0.41773955E+00
   0.39000000E+00           0.42766480E+00
   0.40000000E+00           0.43674220E+00
   0.41000000E+00           0.44626970E+00
   0.42000000E+00           0.45540920E+00
   0.43000000E+00           0.46445855E+00
   0.44000000E+00           0.47316220E+00
   0.45000000E+00           0.48216840E+00
   0.46000000E+00           0.49088620E+00
   0.47000000E+00           0.49959795E+00
   0.48000000E+00           0.50759725E+00
   0.49000000E+00           0.51634775E+00
   0.50000000E+00           0.52438160E+00
   0.51000000E+00           0.53239485E+00
   0.52000000E+00           0.54026610E+00
   0.53000000E+00           0.54814455E+00
   0.54000000E+00           0.55533480E+00
   0.55000000E+00           0.56281375E+00
   0.56000000E+00           0.57040890E+00
   0.57000000E+00           0.57753985E+00
   0.58000000E+00           0.58505520E+00
   0.59000000E+00           0.59173270E+00
   0.60000000E+00           0.59830890E+00
   0.61000000E+00           0.60479480E+00
   0.62000000E+00           0.61171755E+00
   0.63000000E+00           0.61789175E+00
   0.64000000E+00           0.62359155E+00
   0.65000000E+00           0.62979650E+00
   0.66000000E+00           0.63546805E+00
   0.67000000E+00           0.64132505E+00
   0.68000000E+00           0.64649695E+00
   0.69000000E+00           0.65198870E+00
   0.70000000E+00           0.65700740E+00
   0.71000000E+00           0.66241775E+00
   0.72000000E+00           0.66678315E+00
   0.73000000E+00           0.67131305E+00
   0.74000000E+00           0.67615240E+00
   0.75000000E+00           0.68043825E+00
   0.76000000E+00           0.68500050E+00
   0.77000000E+00           0.68870770E+00
   0.78000000E+00           0.69261655E+00
   0.79000000E+00           0.69633430E+00
   0.80000000E+00           0.69985730E+00
   0.81000000E+00           0.70290095E+00
   0.82000000E+00           0.70636860E+00
   0.83000000E+00           0.70959455E+00
   0.84000000E+00           0.71222530E+00
   0.85000000E+00           0.71470290E+00
   0.86000000E+00           0.71758500E+00
   0.87000000E+00           0.71975910E+00
   0.88000000E+00           0.72161885E+00
   0.89000000E+00           0.72381280E+00
   0.90000000E+00           0.72537495E+00
   0.91000000E+00           0.72701105E+00
   0.92000000E+00           0.72854630E+00
   0.93000000E+00           0.72996155E+00
   0.94000000E+00           0.73140935E+00
   0.95000000E+00           0.73218555E+00
   0.96000000E+00           0.73303285E+00
   0.97000000E+00           0.73348450E+00
   0.98000000E+00           0.73413690E+00
   0.99000000E+00           0.73405445E+00
   0.10000000E+01           0.73465170E+00
   0.10100000E+01           0.73461545E+00
   0.10200000E+01           0.73391090E+00
   0.10300000E+01           0.73390380E+00
   0.10400000E+01           0.73355585E+00
   0.10500000E+01           0.73279265E+00
   0.10600000E+01           0.73178435E+00
   0.10700000E+01           0.73113730E+00
   0.10800000E+01           0.72984715E+00
   0.10900000E+01           0.72854665E+00
   0.11000000E+01           0.72721045E+00
   0.11100000E+01           0.72526760E+00
   0.11200000E+01           0.72373880E+00
   0.11300000E+01           0.72174905E+00
   0.11400000E+01           0.71971060E+00
   0.11500000E+01           0.71717205E+00
   0.11600000E+01           0.71548495E+00
   0.11700000E+01           0.71270330E+00
   0.11800000E+01           0.70991490E+00
   0.11900000E+01           0.70709040E+00
   0.12000000E+01           0.70417635E+00
   0.12100000E+01           0.70130760E+00
   0.12200000E+01           0.69782830E+00
   0.12300000E+01           0.69445230E+00
   0.12400000E+01           0.69138355E+00
   0.12500000E+01           0.68703455E+00
   0.12600000E+01           0.68344650E+00
   0.12700000E+01           0.68011855E+00
   0.12800000E+01           0.67505080E+00
   0.12900000E+01           0.67173245E+00
   0.13000000E+01           0.66746840E+00
   0.13100000E+01           0.66321585E+00
   0.13200000E+01           0.65845620E+00
   0.13300000E+01           0.65348240E+00
   0.13400000E+01           0.64906505E+00
   0.13500000E+01           0.64403255E+00
   0.13600000E+01           0.63960995E+00
   0.13700000E+01           0.63436415E+00
   0.13800000E+01           0.62923800E+00
   0.13900000E+01           0.62359600E+00
   0.14000000E+01           0.61837045E+00
   0.14100000E+01           0.61326950E+00
   0.14200000E+01           0.60731640E+00
   0.14300000E+01           0.60157090E+00
   0.14400000E+01           0.59587000E+00
   0.14500000E+01           0.59035495E+00
   0.14600000E+01           0.58430265E+00
   0.14700000E+01           0.57824770E+00
   0.14800000E+01           0.57226395E+00
   0.14900000E+01           0.56611555E+00
   0.15000000E+01           0.55975175E+00
   0.15100000E+01           0.55335760E+00
   0.15200000E+01           0.54736725E+00
   0.15300000E+01           0.54053500E+00
   0.15400000E+01           0.53371245E+00
   0.15500000E+01           0.52751060E+00
   0.15600000E+01           0.52064505E+00
   0.15700000E+01           0.51411975E+00
   0.15800000E+01           0.50734135E+00
   0.15900000E+01           0.50059025E+00
   0.16000000E+01           0.49364345E+00
   0.16100000E+01           0.48654060E+00
   0.16200000E+01           0.47994675E+00
   0.16300000E+01           0.47256525E+00
   0.16400000E+01           0.46558920E+00
   0.16500000E+01           0.45869565E+00
   0.16600000E+01           0.45125970E+00
   0.16700000E+01           0.44419370E+00
   0.16800000E+01           0.43711990E+00
   0.16900000E+01           0.42969755E+00
   0.17000000E+01           0.42287810E+00
   0.17100000E+01           0.41543245E+00
   0.17200000E+01           0.40804165E+00
   0.17300000E+01           0.40110480E+00
   0.17400000E+01           0.39361820E+00
   0.17500000E+01           0.38613845E+00
   0.17600000E+01           0.37905080E+00
   0.17700000E+01           0.37160440E+00
   0.17800000E+01           0.36415750E+00
   0.17900000E+01           0.35675040E+00
   0.18000000E+01           0.34941455E+00
   0.18100000E+01           0.34202695E+00
   0.18200000E+01           0.33483570E+00
   0.18300000E+01           0.32744205E+00
   0.18400000E+01           0.32013565E+00
   0.18500000E+01           0.31292520E+00
   0.18600000E+01           0.30569380E+00
   0.18700000E+01           0.29822695E+00
   0.18800000E+01           0.29101045E+00
   0.18900000E+01           0.28398485E+00
   0.19000000E+01           0.27670475E+00
   0.19100000E+01           0.26951690E+00
   0.19200000E+01           0.26220930E+00
   0.19300000E+01           0.25534390E+00
   0.19400000E+01           0.24810575E+00
   0.19500000E+01           0.24121820E+00
   0.19600000E+01           0.23400100E+00
   0.19700000E+01           0.22718340E+00
   0.19800000E+01           0.22026630E+00
   0.19900000E+01           0.21346015E+00
   0.20000000E+01           0.10430475E+00
 #T=   387.0000
  -0.20000000E+01           0.00000000E+00
  -0.19900000E+01           0.00000000E+00
  -0.19800000E+01           0.00000000E+00
  -0.19700000E+01           0.00000000E+00
  -0.19600000E+01           0.00000000E+00
  -0.19500000E+01           0.00000000E+00
  -0.19400000E+01           0.00000000E+00
  -0.19300000E+01           0.00000000E+00
  -0.19200000E+01           0.00000000E+00
  -0.19100000E+01           0.00000000E+00
  -0.19000000E+01           0.00000000E+00
  -0.18900000E+01           0.00000000E+00
  -0.18800000E+01           0.00000000E+00
  -0.18700000E+01           0.00000000E+00
  -0.18600000E+01           0.00000000E+00
  -0.18500000E+01           0.00000000E+00
  -0.18400000E+01           0.00000000E+00
  -0.18300000E+01           0.00000000E+00
  -0.18200000E+01           0.00000000E+00
  -0.18100000E+01           0.00000000E+00
  -0.18000000E+01           0.00000000E+00
  -0.17900000E+01           0.00000000E+00
  -0.17800000E+01           0.00000000E+00
  -0.17700000E+01           0.00000000E+00
  -0.17600000E+01           0.00000000E+00
  -0.17500000E+01           0.00000000E+00
  -0.17400000E+01           0.00000000E+00
  -0.17300000E+01           0.00000000E+00
  -0.17200000E+01           0.00000000E+00
  -0.17100000E+01           0.00000000E+00
  -0.17000000E+01           0.00000000E+00
  -0.16900000E+01           0.00000000E+00
  -0.16800000E+01           0.00000000E+00
  -0.16700000E+01           0.00000000E+00
  -0.16600000E+01           0.00000000E+00
  -0.16500000E+01           0.00000000E+00
  -0.16400000E+01           0.00000000E+00
  -0.16300000E+01           0.00000000E+00
  -0.16200000E+01           0.00000000E+00
  -0.16100000E+01           0.00000000E+00
  -0.16000000E+01           0.00000000E+00
  -0.15900000E+01           0.00000000E+00
  -0.15800000E+01           0.00000000E+00
  -0.15700000E+01           0.00000000E+00
  -0.15600000E+01           0.00000000E+00
  -0.15500000E+01           0.00000000E+00
  -0.15400000E+01           0.00000000E+00
  -0.15300000E+01           0.00000000E+00
  -0.15200000E+01           0.00000000E+00
  -0.15100000E+01           0.00000000E+00
  -0.15000000E+01           0.00000000E+00
  -0.14900000E+01           0.00000000E+00
  -0.14800000E+01           0.00000000E+00
  -0.14700000E+01           0.00000000E+00
  -0.14600000E+01           0.00000000E+00
  -0.14500000E+01           0.00000000E+00
  -0.14400000E+01           0.00000000E+00
  -0.14300000E+01           0.00000000E+00
  -0.14200000E+01           0.00000000E+00
  -0.14100000E+01           0.00000000E+00
  -0.14000000E+01           0.00000000E+00
  -0.13900000E+01           0.00000000E+00
  -0.13800000E+01           0.00000000E+00
  -0.13700000E+01           0.00000000E+00
  -0.13600000E+01           0.00000000E+00
  -0.13500000E+01           0.00000000E+00
  -0.13400000E+01           0.00000000E+00
  -0.13300000E+01           0.00000000E+00
  -0.13200000E+01           0.00000000E+00
  -0.13100000E+01           0.00000000E+00
  -0.13000000E+01           0.00000000E+00
  -0.12900000E+01           0.00000000E+00
  -0.12800000E+01           0.00000000E+00
  -0.12700000E+01           0.00000000E+00
  -0.12600000E+01           0.00000000E+00
  -0.12500000E+01           0.00000000E+00
  -0.12400000E+01           0.00000000E+00
  -0.12300000E+01           0.00000000E+00
  -0.12200000E+01           0.00000000E+00
  -0.12100000E+01           0.00000000E+00
  -0.12000000E+01           0.00000000E+00
  -0.11900000E+01           0.00000000E+00
  -0.11800000E+01           0.00000000E+00
  -0.11700000E+01           0.00000000E+00
  -0.11600000E+01           0.00000000E+00
  -0.11500000E+01           0.00000000E+00
  -0.11400000E+01           0.00000000E+00
  -0.11300000E+01           0.00000000E+00
  -0.11200000E+01           0.00000000E+00
  -0.11100000E+01           0.00000000E+00
  -0.11000000E+01           0.00000000E+00
  -0.10900000E+01           0.00000000E+00
  -0.10800000E+01           0.00000000E+00
  -0.10700000E+01           0.00000000E+00
  -0.10600000E+01           0.00000000E+00
  -0.10500000E+01           0.00000000E+00
  -0.10400000E+01           0.00000000E+00
  -0.10300000E+01           0.00000000E+00
  -0.10200000E+01           0.00000000E+00
  -0.10100000E+01           0.00000000E+00
  -0.10000000E+01           0.00000000E+00
  -0.99000000E+00           0.00000000E+00
  -0.98000000E+00           0.00000000E+00
  -0.97000000E+00           0.00000000E+00
  -0.96000000E+00           0.00000000E+00
  -0.95000000E+00           0.00000000E+00
  -0.94000000E+00           0.00000000E+00
  -0.93000000E+00           0.00000000E+00
  -0.92000000E+00           0.00000000E+00
  -0.91000000E+00           0.00000000E+00
  -0.90000000E+00           0.00000000E+00
  -0.89000000E+00           0.00000000E+00
  -0.88000000E+00           0.00000000E+00
  -0.87000000E+00           0.00000000E+00
  -0.86000000E+00           0.00000000E+00
  -0.85000000E+00           0.00000000E+00
  -0.84000000E+00           0.00000000E+00
  -0.83000000E+00           0.00000000E+00
  -0.82000000E+00           0.00000000E+00
  -0.81000000E+00           0.00000000E+00
  -0.80000000E+00           0.00000000E+00
  -0.79000000E+00           0.00000000E+00
  -0.78000000E+00           0.00000000E+00
  -0.77000000E+00           0.00000000E+00
  -0.76000000E+00           0.00000000E+00
  -0.75000000E+00           0.00000000E+00
  -0.74000000E+00           0.00000000E+00
  -0.73000000E+00           0.00000000E+00
  -0.72000000E+00           0.00000000E+00
  -0.71000000E+00           0.00000000E+00
  -0.70000000E+00           0.00000000E+00
  -0.69000000E+00           0.00000000E+00
  -0.68000000E+00           0.00000000E+00
  -0.67000000E+00           0.00000000E+00
  -0.66000000E+00           0.00000000E+00
  -0.65000000E+00           0.00000000E+00
  -0.64000000E+00           0.00000000E+00
  -0.63000000E+00           0.00000000E+00
  -0.62000000E+00           0.00000000E+00
  -0.61000000E+00           0.00000000E+00
  -0.60000000E+00           0.00000000E+00
  -0.59000000E+00           0.00000000E+00
  -0.58000000E+00           0.00000000E+00
  -0.57000000E+00           0.00000000E+00
  -0.56000000E+00           0.00000000E+00
  -0.55000000E+00           0.00000000E+00
  -0.54000000E+00           0.00000000E+00
  -0.53000000E+00           0.00000000E+00
  -0.52000000E+00           0.00000000E+00
  -0.51000000E+00           0.00000000E+00
  -0.50000000E+00           0.00000000E+00
  -0.49000000E+00           0.00000000E+00
  -0.48000000E+00           0.00000000E+00
  -0.47000000E+00           0.00000000E+00
  -0.46000000E+00           0.00000000E+00
  -0.45000000E+00           0.00000000E+00
  -0.44000000E+00           0.00000000E+00
  -0.43000000E+00           0.00000000E+00
  -0.42000000E+00           0.00000000E+00
  -0.41000000E+00           0.00000000E+00
  -0.40000000E+00           0.00000000E+00
  -0.39000000E+00           0.00000000E+00
  -0.38000000E+00           0.00000000E+00
  -0.37000000E+00           0.00000000E+00
  -0.36000000E+00           0.00000000E+00
  -0.35000000E+00           0.00000000E+00
  -0.34000000E+00           0.00000000E+00
  -0.33000000E+00           0.00000000E+00
  -0.32000000E+00           0.00000000E+00
  -0.31000000E+00           0.00000000E+00
  -0.30000000E+00           0.00000000E+00
  -0.29000000E+00           0.00000000E+00
  -0.28000000E+00           0.00000000E+00
  -0.27000000E+00           0.00000000E+00
  -0.26000000E+00           0.00000000E+00
  -0.25000000E+00           0.00000000E+00
  -0.24000000E+00           0.00000000E+00
  -0.23000000E+00           0.00000000E+00
  -0.22000000E+00           0.00000000E+00
  -0.21000000E+00           0.00000000E+00
  -0.20000000E+00           0.00000000E+00
  -0.19000000E+00           0.00000000E+00
  -0.18000000E+00           0.00000000E+00
  -0.17000000E+00           0.00000000E+00
  -0.16000000E+00           0.00000000E+00
  -0.15000000E+00           0.00000000E+00
  -0.14000000E+00           0.00000000E+00
  -0.13000000E+00           0.00000000E+00
  -0.12000000E+00           0.00000000E+00
  -0.11000000E+00           0.00000000E+00
  -0.10000000E+00           0.00000000E+00
  -0.90000000E-01           0.00000000E+00
  -0.80000000E-01           0.00000000E+00
  -0.70000000E-01           0.00000000E+00
  -0.60000000E-01           0.00000000E+00
  -0.50000000E-01           0.00000000E+00
  -0.40000000E-01           0.00000000E+00
  -0.30000000E-01           0.00000000E+00
  -0.20000000E-01           0.00000000E+00
  -0.10000000E-01           0.00000000E+00
   0.00000000E+00           0.14733000E-02
   0.10000000E-01           0.11616050E-01
   0.20000000E-01           0.23378500E-01
   0.30000000E-01           0.34974350E-01
   0.40000000E-01           0.46576600E-01
   0.50000000E-01           0.58216650E-01
   0.60000000E-01           0.69897400E-01
   0.70000000E-01           0.81402850E-01
   0.80000000E-01           0.93120600E-01
   0.90000000E-01           0.10446885E+00
   0.10000000E+00           0.11632040E+00
   0.11000000E+00           0.12761380E+00
   0.12000000E+00           0.13907050E+00
   0.13000000E+00           0.15032565E+00
   0.14000000E+00           0.16202095E+00
   0.15000000E+00           0.17316120E+00
   0.16000000E+00           0.18447865E+00
   0.17000000E+00           0.19581715E+00
   0.18000000E+00           0.20697405E+00
   0.19000000E+00           0.21818335E+00
   0.20000000E+00           0.22922770E+00
   0.21000000E+00           0.24008275E+00
   0.22000000E+00           0.25101850E+00
   0.23000000E+00           0.26203275E+00
   0.24000000E+00           0.27271715E+00
   0.25000000E+00           0.28377545E+00
   0.26000000E+00           0.29418870E+00
   0.27000000E+00           0.30499560E+00
   0.28000000E+00           0.31542630E+00
   0.29000000E+00           0.32577640E+00
   0.30000000E+00           0.33605010E+00
   0.31000000E+00           0.34651750E+00
   0.32000000E+00           0.35684070E+00
   0.33000000E+00           0.36674000E+00
   0.34000000E+00           0.37664505E+00
   0.35000000E+00           0.38653740E+00
   0.36000000E+00           0.39642550E+00
   0.37000000E+00           0.40607580E+00
   0.38000000E+00           0.41581845E+00
   0.39000000E+00           0.42515710E+00
   0.40000000E+00           0.43452530E+00
   0.41000000E+00           0.44362000E+00
   0.42000000E+00           0.45291430E+00
   0.43000000E+00           0.46186625E+00
   0.44000000E+00           0.47069760E+00
   0.45000000E+00           0.47964590E+00
   0.46000000E+00           0.48832130E+00
   0.47000000E+00           0.49693745E+00
   0.48000000E+00           0.50526855E+00
   0.49000000E+00           0.51337310E+00
   0.50000000E+00           0.52187815E+00
   0.51000000E+00           0.52977005E+00
   0.52000000E+00           0.53753845E+00
   0.53000000E+00           0.54549735E+00
   0.54000000E+00           0.55292115E+00
   0.55000000E+00           0.56019660E+00
   0.56000000E+00           0.56767780E+00
   0.57000000E+00           0.57432815E+00
   0.58000000E+00           0.58164425E+00
   0.59000000E+00           0.58889320E+00
   0.60000000E+00           0.59560750E+00
   0.61000000E+00           0.60207880E+00
   0.62000000E+00           0.60855850E+00
   0.63000000E+00           0.61503710E+00
   0.64000000E+00           0.62069355E+00
   0.65000000E+00           0.62693855E+00
   0.66000000E+00           0.63286280E+00
   0.67000000E+00           0.63839945E+00
   0.68000000E+00           0.64413670E+00
   0.69000000E+00           0.64924970E+00
   0.70000000E+00           0.65444130E+00
   0.71000000E+00           0.65945830E+00
   0.72000000E+00           0.66439440E+00
   0.73000000E+00           0.66909040E+00
   0.74000000E+00           0.67357215E+00
   0.75000000E+00           0.67772565E+00
   0.76000000E+00           0.68200190E+00
   0.77000000E+00           0.68610870E+00
   0.78000000E+00           0.69006020E+00
   0.79000000E+00           0.69394220E+00
   0.80000000E+00           0.69716590E+00
   0.81000000E+00           0.70062845E+00
   0.82000000E+00           0.70423120E+00
   0.83000000E+00           0.70682690E+00
   0.84000000E+00           0.70996995E+00
   0.85000000E+00           0.71247915E+00
   0.86000000E+00           0.71520445E+00
   0.87000000E+00           0.71755015E+00
   0.88000000E+00           0.71948050E+00
   0.89000000E+00           0.72181940E+00
   0.90000000E+00           0.72380515E+00
   0.91000000E+00           0.72526310E+00
   0.92000000E+00           0.72646340E+00
   0.93000000E+00           0.72810570E+00
   0.94000000E+00           0.72936650E+00
   0.95000000E+00           0.73030010E+00
   0.96000000E+00           0.73173390E+00
   0.97000000E+00           0.73208880E+00
   0.98000000E+00           0.73237200E+00
   0.99000000E+00           0.73266395E+00
   0.10000000E+01           0.73281015E+00
   0.10100000E+01           0.73337020E+00
   0.10200000E+01           0.73285050E+00
   0.10300000E+01           0.73296140E+00
   0.10400000E+01           0.73214230E+00
   0.10500000E+01           0.73141255E+00
   0.10600000E+01           0.73080895E+00
   0.10700000E+01           0.73016705E+00
   0.10800000E+01           0.72922340E+00
   0.10900000E+01           0.72754815E+00
   0.11000000E+01           0.72629270E+00
   0.11100000E+01           0.72493515E+00
   0.11200000E+01           0.72324485E+00
   0.11300000E+01           0.72067980E+00
   0.11400000E+01           0.71926540E+00
   0.11500000E+01           0.71708570E+00
   0.11600000E+01           0.71493945E+00
   0.11700000E+01           0.71251055E+00
   0.11800000E+01           0.70968435E+00
   0.11900000E+01           0.70697935E+00
   0.12000000E+01           0.70434170E+00
   0.12100000E+01           0.70131450E+00
   0.12200000E+01           0.69819715E+00
   0.12300000E+01           0.69458315E+00
   0.12400000E+01           0.69114630E+00
   0.12500000E+01           0.68773005E+00
   0.12600000E+01           0.68389830E+00
   0.12700000E+01           0.68020990E+00
   0.12800000E+01           0.67615235E+00
   0.12900000E+01           0.67191635E+00
   0.13000000E+01           0.66798865E+00
   0.13100000E+01           0.66357525E+00
   0.13200000E+01           0.65964755E+00
   0.13300000E+01           0.65492065E+00
   0.13400000E+01           0.65035255E+00
   0.13500000E+01           0.64546470E+00
   0.13600000E+01           0.64050055E+00
   0.13700000E+01           0.63534605E+00
   0.13800000E+01           0.63043060E+00
   0.13900000E+01           0.62537485E+00
   0.14000000E+01           0.61997960E+00
   0.14100000E+01           0.61489785E+00
   0.14200000E+01           0.60934830E+00
   0.14300000E+01           0.60340370E+00
   0.14400000E+01           0.59782705E+00
   0.14500000E+01           0.59206925E+00
   0.14600000E+01           0.58619595E+00
   0.14700000E+01           0.58044290E+00
   0.14800000E+01           0.57444480E+00
   0.14900000E+01           0.56841535E+00
   0.15000000E+01           0.56208340E+00
   0.15100000E+01           0.55571505E+00
   0.15200000E+01           0.54937735E+00
   0.15300000E+01           0.54299110E+00
   0.15400000E+01           0.53674405E+00
   0.15500000E+01           0.53017420E+00
   0.15600000E+01           0.52348750E+00
   0.15700000E+01           0.51667625E+00
   0.15800000E+01           0.51025430E+00
   0.15900000E+01           0.50305325E+00
   0.16000000E+01           0.49660875E+00
   0.16100000E+01           0.48999950E+00
   0.16200000E+01           0.48289075E+00
   0.16300000E+01           0.47572530E+00
   0.16400000E+01           0.46884785E+00
   0.16500000E+01           0.46193925E+00
   0.16600000E+01           0.45470300E+00
   0.16700000E+01           0.44745275E+00
   0.16800000E+01           0.44043400E+00
   0.16900000E+01           0.43325660E+00
   0.17000000E+01           0.42646325E+00
   0.17100000E+01           0.41871410E+00
   0.17200000E+01           0.41182080E+00
   0.17300000E+01           0.40459640E+00
   0.17400000E+01           0.39741965E+00
   0.17500000E+01           0.38973175E+00
   0.17600000E+01           0.38277365E+00
   0.17700000E+01           0.37524000E+00
   0.17800000E+01           0.36805825E+00
   0.17900000E+01           0.36079660E+00
   0.18000000E+01           0.35357850E+00
   0.18100000E+01           0.34629615E+00
   0.18200000E+01           0.33863745E+00
   0.18300000E+01           0.33136220E+00
   0.18400000E+01           0.32439735E+00
   0.18500000E+01           0.31688720E+00
   0.18600000E+01           0.30964575E+00
   0.18700000E+01           0.30226860E+00
   0.18800000E+01           0.29514765E+00
   0.18900000E+01           0.28801500E+00
   0.19000000E+01           0.28087440E+00
   0.19100000E+01           0.27357175E+00
   0.19200000E+01           0.26642505E+00
   0.19300000E+01           0.25940065E+00
   0.19400000E+01           0.25214675E+00
   0.19500000E+01           0.24564705E+00
   0.19600000E+01           0.23831400E+00
   0.19700000E+01           0.23138120E+00
   0.19800000E+01           0.22434460E+00
   0.19900000E+01           0.21780365E+00
   0.20000000E+01           0.10626740E+00
 #T=   388.0000
  -0.20000000E+01           0.00000000E+00
  -0.19900000E+01           0.00000000E+00
  -0.19800000E+01           0.00000000E+00
  -0.19700000E+01           0.00000000E+00
  -0.19600000E+01           0.00000000E+00
  -0.19500000E+01           0.00000000E+00
  -0.19400000E+01           0.00000000E+00
  -0.19300000E+01           0.00000000E+00
  -0.19200000E+01           0.00000000E+00
  -0.19100000E+01           0.00000000E+00
  -0.19000000E+01           0.00000000E+00
  -0.18900000E+01           0.00000000E+00
  -0.18800000E+01           0.00000000E+00
  -0.18700000E+01           0.00000000E+00
  -0.18600000E+01           0.00000000E+00
  -0.18500000E+01           0.00000000E+00
  -0.18400000E+01           0.00000000E+00
  -0.18300000E+01           0.00000000E+00
  -0.18200000E+01           0.00000000E+00
  -0.18100000E+01           0.00000000E+00
  -0.18000000E+01           0.00000000E+00
  -0.17900000E+01           0.00000000E+00
  -0.17800000E+01           0.00000000E+00
  -0.17700000E+01           0.00000000E+00
  -0.17600000E+01           0.00000000E+00
  -0.17500000E+01           0.00000000E+00
  -0.17400000E+01           0.00000000E+00
  -0.17300000E+01           0.00000000E+00
  -0.17200000E+01           0.00000000E+00
  -0.17100000E+01           0.00000000E+00
  -0.17000000E+01           0.00000000E+00
  -0.16900000E+01           0.00000000E+00
  -0.16800000E+01           0.00000000E+00
  -0.16700000E+01           0.00000000E+00
  -0.16600000E+01           0.00000000E+00
  -0.16500000E+01           0.00000000E+00
  -0.16400000E+01           0.00000000E+00
  -0.16300000E+01           0.00000000E+00
  -0.16200000E+01           0.00000000E+00
  -0.16100000E+01           0.00000000E+00
  -0.16000000E+01           0.00000000E+00
  -0.15900000E+01           0.00000000E+00
  -0.15800000E+01           0.00000000E+00
  -0.15700000E+01           0.00000000E+00
  -0.15600000E+01           0.00000000E+00
  -0.15500000E+01           0.00000000E+00
  -0.15400000E+01           0.00000000E+00
  -0.15300000E+01           0.00000000E+00
  -0.15200000E+01           0.00000000E+00
  -0.15100000E+01           0.00000000E+00
  -0.15000000E+01           0.00000000E+00
  -0.14900000E+01           0.00000000E+00
  -0.14800000E+01           0.00000000E+00
  -0.14700000E+01           0.00000000E+00
  -0.14600000E+01           0.00000000E+00
  -0.14500000E+01           0.00000000E+00
  -0.14400000E+01           0.00000000E+00
  -0.14300000E+01           0.00000000E+00
  -0.14200000E+01           0.00000000E+00
  -0.14100000E+01           0.00000000E+00
  -0.14000000E+01           0.00000000E+00
  -0.13900000E+01           0.00000000E+00
  -0.13800000E+01           0.00000000E+00
  -0.13700000E+01           0.00000000E+00
  -0.13600000E+01           0.00000000E+00
  -0.13500000E+01           0.00000000E+00
  -0.13400000E+01           0.00000000E+00
  -0.13300000E+01           0.00000000E+00
  -0.13200000E+01           0.00000000E+00
  -0.13100000E+01           0.00000000E+00
  -0.13000000E+01           0.00000000E+00
  -0.12900000E+01           0.00000000E+00
  -0.12800000E+01           0.00000000E+00
  -0.12700000E+01           0.00000000E+00
  -0.12600000E+01           0.00000000E+00
  -0.12500000E+01           0.00000000E+00
  -0.12400000E+01           0.00000000E+00
  -0.12300000E+01           0.00000000E+00
  -0.12200000E+01           0.00000000E+00
  -0.12100000E+01           0.00000000E+00
  -0.12000000E+01           0.00000000E+00
  -0.11900000E+01           0.00000000E+00
  -0.11800000E+01           0.00000000E+00
  -0.11700000E+01           0.00000000E+00
  -0.11600000E+01           0.00000000E+00
  -0.11500000E+01           0.00000000E+00
  -0.11400000E+01           0.00000000E+00
  -0.11300000E+01           0.00000000E+00
  -0.11200000E+01           0.00000000E+00
  -0.11100000E+01           0.00000000E+00
  -0.11000000E+01           0.00000000E+00
  -0.10900000E+01           0.00000000E+00
  -0.10800000E+01           0.00000000E+00
  -0.10700000E+01           0.00000000E+00
  -0.10600000E+01           0.00000000E+00
  -0.10500000E+01           0.00000000E+00
  -0.10400000E+01           0.00000000E+00
  -0.10300000E+01           0.00000000E+00
  -0.10200000E+01           0.00000000E+00
  -0.10100000E+01           0.00000000E+00
  -0.10000000E+01           0.00000000E+00
  -0.99000000E+00           0.00000000E+00
  -0.98000000E+00           0.00000000E+00
  -0.97000000E+00           0.00000000E+00
  -0.96000000E+00           0.00000000E+00
  -0.95000000E+00           0.00000000E+00
  -0.94000000E+00           0.00000000E+00
  -0.93000000E+00           0.00000000E+00
  -0.92000000E+00           0.00000000E+00
  -0.91000000E+00           0.00000000E+00
  -0.90000000E+00           0.00000000E+00
  -0.89000000E+00           0.00000000E+00
  -0.88000000E+00           0.00000000E+00
  -0.87000000E+00           0.00000000E+00
  -0.86000000E+00           0.00000000E+00
  -0.85000000E+00           0.00000000E+00
  -0.84000000E+00           0.00000000E+00
  -0.83000000E+00           0.00000000E+00
  -0.82000000E+00           0.00000000E+00
  -0.81000000E+00           0.00000000E+00
  -0.80000000E+00           0.00000000E+00
  -0.79000000E+00           0.00000000E+00
  -0.78000000E+00           0.00000000E+00
  -0.77000000E+00           0.00000000E+00
  -0.76000000E+00           0.00000000E+00
  -0.75000000E+00           0.00000000E+00
  -0.74000000E+00           0.00000000E+00
  -0.73000000E+00           0.00000000E+00
  -0.72000000E+00           0.00000000E+00
  -0.71000000E+00           0.00000000E+00
  -0.70000000E+00           0.00000000E+00
  -0.69000000E+00           0.00000000E+00
  -0.68000000E+00           0.00000000E+00
  -0.67000000E+00           0.00000000E+00
  -0.66000000E+00           0.00000000E+00
  -0.65000000E+00           0.00000000E+00
  -0.64000000E+00           0.00000000E+00
  -0.63000000E+00           0.00000000E+00
  -0.62000000E+00           0.00000000E+00
  -0.61000000E+00           0.00000000E+00
  -0.60000000E+00           0.00000000E+00
  -0.59000000E+00           0.00000000E+00
  -0.58000000E+00           0.00000000E+00
  -0.57000000E+00           0.00000000E+00
  -0.56000000E+00           0.00000000E+00
  -0.55000000E+00           0.00000000E+00
  -0.54000000E+00           0.00000000E+00
  -0.53000000E+00           0.00000000E+00
  -0.52000000E+00           0.00000000E+00
  -0.51000000E+00           0.00000000E+00
  -0.50000000E+00           0.00000000E+00
  -0.49000000E+00           0.00000000E+00
  -0.48000000E+00           0.00000000E+00
  -0.47000000E+00           0.00000000E+00
  -0.46000000E+00           0.00000000E+00
  -0.45000000E+00           0.00000000E+00
  -0.44000000E+00           0.00000000E+00
  -0.43000000E+00           0.00000000E+00
  -0.42000000E+00           0.00000000E+00
  -0.41000000E+00           0.00000000E+00
  -0.40000000E+00           0.00000000E+00
  -0.39000000E+00           0.00000000E+00
  -0.38000000E+00           0.00000000E+00
  -0.37000000E+00           0.00000000E+00
  -0.36000000E+00           0.00000000E+00
  -0.35000000E+00           0.00000000E+00
  -0.34000000E+00           0.00000000E+00
  -0.33000000E+00           0.00000000E+00
  -0.32000000E+00           0.00000000E+00
  -0.31000000E+00           0.00000000E+00
  -0.30000000E+00           0.00000000E+00
  -0.29000000E+00           0.00000000E+00
  -0.28000000E+00           0.00000000E+00
  -0.27000000E+00           0.00000000E+00
  -0.26000000E+00           0.00000000E+00
  -0.25000000E+00           0.00000000E+00
  -0.24000000E+00           0.00000000E+00
  -0.23000000E+00           0.00000000E+00
  -0.22000000E+00           0.00000000E+00
  -0.21000000E+00           0.00000000E+00
  -0.20000000E+00           0.00000000E+00
  -0.19000000E+00           0.00000000E+00
  -0.18000000E+00           0.00000000E+00
  -0.17000000E+00           0.00000000E+00
  -0.16000000E+00           0.00000000E+00
  -0.15000000E+00           0.00000000E+00
  -0.14000000E+00           0.00000000E+00
  -0.13000000E+00           0.00000000E+00
  -0.12000000E+00           0.00000000E+00
  -0.11000000E+00           0.00000000E+00
  -0.10000000E+00           0.00000000E+00
  -0.90000000E-01           0.00000000E+00
  -0.80000000E-01           0.00000000E+00
  -0.70000000E-01           0.00000000E+00
  -0.60000000E-01           0.00000000E+00
  -0.50000000E-01           0.00000000E+00
  -0.40000000E-01           0.00000000E+00
  -0.30000000E-01           0.00000000E+00
  -0.20000000E-01           0.00000000E+00
  -0.10000000E-01           0.00000000E+00
   0.00000000E+00           0.14523500E-02
   0.10000000E-01           0.11583450E-01
   0.20000000E-01           0.23165900E-01
   0.30000000E-01           0.34770700E-01
   0.40000000E-01           0.46314100E-01
   0.50000000E-01           0.57881300E-01
   0.60000000E-01           0.69309350E-01
   0.70000000E-01           0.80991050E-01
   0.80000000E-01           0.92375050E-01
   0.90000000E-01           0.10397145E+00
   0.10000000E+00           0.11546340E+00
   0.11000000E+00           0.12680445E+00
   0.12000000E+00           0.13817095E+00
   0.13000000E+00           0.14960010E+00
   0.14000000E+00           0.16100170E+00
   0.15000000E+00           0.17218230E+00
   0.16000000E+00           0.18313090E+00
   0.17000000E+00           0.19449430E+00
   0.18000000E+00           0.20569815E+00
   0.19000000E+00           0.21679105E+00
   0.20000000E+00           0.22779415E+00
   0.21000000E+00           0.23882210E+00
   0.22000000E+00           0.24974920E+00
   0.23000000E+00           0.26058930E+00
   0.24000000E+00           0.27139380E+00
   0.25000000E+00           0.28208600E+00
   0.26000000E+00           0.29254230E+00
   0.27000000E+00           0.30312485E+00
   0.28000000E+00           0.31365705E+00
   0.29000000E+00           0.32417695E+00
   0.30000000E+00           0.33427020E+00
   0.31000000E+00           0.34438570E+00
   0.32000000E+00           0.35445325E+00
   0.33000000E+00           0.36463395E+00
   0.34000000E+00           0.37470805E+00
   0.35000000E+00           0.38451210E+00
   0.36000000E+00           0.39438835E+00
   0.37000000E+00           0.40398610E+00
   0.38000000E+00           0.41356330E+00
   0.39000000E+00           0.42272100E+00
   0.40000000E+00           0.43213865E+00
   0.41000000E+00           0.44111835E+00
   0.42000000E+00           0.45057450E+00
   0.43000000E+00           0.45951275E+00
   0.44000000E+00           0.46855840E+00
   0.45000000E+00           0.47747130E+00
   0.46000000E+00           0.48572250E+00
   0.47000000E+00           0.49421950E+00
   0.48000000E+00           0.50267030E+00
   0.49000000E+00           0.51074160E+00
   0.50000000E+00           0.51891245E+00
   0.51000000E+00           0.52695470E+00
   0.52000000E+00           0.53513240E+00
   0.53000000E+00           0.54265110E+00
   0.54000000E+00           0.54990805E+00
   0.55000000E+00           0.55745645E+00
   0.56000000E+00           0.56530940E+00
   0.57000000E+00           0.57247705E+00
   0.58000000E+00           0.57899005E+00
   0.59000000E+00           0.58612445E+00
   0.60000000E+00           0.59266790E+00
   0.61000000E+00           0.59912155E+00
   0.62000000E+00           0.60607050E+00
   0.63000000E+00           0.61196690E+00
   0.64000000E+00           0.61764975E+00
   0.65000000E+00           0.62394160E+00
   0.66000000E+00           0.62998225E+00
   0.67000000E+00           0.63553840E+00
   0.68000000E+00           0.64149585E+00
   0.69000000E+00           0.64636345E+00
   0.70000000E+00           0.65136450E+00
   0.71000000E+00           0.65630000E+00
   0.72000000E+00           0.66164175E+00
   0.73000000E+00           0.66592930E+00
   0.74000000E+00           0.67082335E+00
   0.75000000E+00           0.67536255E+00
   0.76000000E+00           0.67949980E+00
   0.77000000E+00           0.68352840E+00
   0.78000000E+00           0.68778100E+00
   0.79000000E+00           0.69103090E+00
   0.80000000E+00           0.69496510E+00
   0.81000000E+00           0.69828765E+00
   0.82000000E+00           0.70180280E+00
   0.83000000E+00           0.70448200E+00
   0.84000000E+00           0.70753860E+00
   0.85000000E+00           0.71065650E+00
   0.86000000E+00           0.71284275E+00
   0.87000000E+00           0.71525150E+00
   0.88000000E+00           0.71736715E+00
   0.89000000E+00           0.71931770E+00
   0.90000000E+00           0.72177395E+00
   0.91000000E+00           0.72312090E+00
   0.92000000E+00           0.72470005E+00
   0.93000000E+00           0.72635660E+00
   0.94000000E+00           0.72746185E+00
   0.95000000E+00           0.72844660E+00
   0.96000000E+00           0.72949160E+00
   0.97000000E+00           0.73076345E+00
   0.98000000E+00           0.73103610E+00
   0.99000000E+00           0.73108065E+00
   0.10000000E+01           0.73142760E+00
   0.10100000E+01           0.73129745E+00
   0.10200000E+01           0.73188375E+00
   0.10300000E+01           0.73099440E+00
   0.10400000E+01           0.73086220E+00
   0.10500000E+01           0.73034175E+00
   0.10600000E+01           0.72958325E+00
   0.10700000E+01           0.72878180E+00
   0.10800000E+01           0.72788990E+00
   0.10900000E+01           0.72654760E+00
   0.11000000E+01           0.72540170E+00
   0.11100000E+01           0.72393210E+00
   0.11200000E+01           0.72242405E+00
   0.11300000E+01           0.72096310E+00
   0.11400000E+01           0.71863940E+00
   0.11500000E+01           0.71689760E+00
   0.11600000E+01           0.71421745E+00
   0.11700000E+01           0.71209390E+00
   0.11800000E+01           0.70937360E+00
   0.11900000E+01           0.70681475E+00
   0.12000000E+01           0.70386435E+00
   0.12100000E+01           0.70140480E+00
   0.12200000E+01           0.69805650E+00
   0.12300000E+01           0.69498095E+00
   0.12400000E+01           0.69154855E+00
   0.12500000E+01           0.68842055E+00
   0.12600000E+01           0.68461725E+00
   0.12700000E+01           0.68060245E+00
   0.12800000E+01           0.67683670E+00
   0.12900000E+01           0.67318885E+00
   0.13000000E+01           0.66859935E+00
   0.13100000E+01           0.66499965E+00
   0.13200000E+01           0.66037960E+00
   0.13300000E+01           0.65588385E+00
   0.13400000E+01           0.65111765E+00
   0.13500000E+01           0.64682005E+00
   0.13600000E+01           0.64145720E+00
   0.13700000E+01           0.63721670E+00
   0.13800000E+01           0.63191595E+00
   0.13900000E+01           0.62687630E+00
   0.14000000E+01           0.62170895E+00
   0.14100000E+01           0.61650100E+00
   0.14200000E+01           0.61067435E+00
   0.14300000E+01           0.60539480E+00
   0.14400000E+01           0.59962345E+00
   0.14500000E+01           0.59404550E+00
   0.14600000E+01           0.58829820E+00
   0.14700000E+01           0.58249395E+00
   0.14800000E+01           0.57652620E+00
   0.14900000E+01           0.57047360E+00
   0.15000000E+01           0.56432445E+00
   0.15100000E+01           0.55833375E+00
   0.15200000E+01           0.55221925E+00
   0.15300000E+01           0.54553645E+00
   0.15400000E+01           0.53927910E+00
   0.15500000E+01           0.53277600E+00
   0.15600000E+01           0.52618670E+00
   0.15700000E+01           0.51994435E+00
   0.15800000E+01           0.51271935E+00
   0.15900000E+01           0.50637480E+00
   0.16000000E+01           0.49961590E+00
   0.16100000E+01           0.49267615E+00
   0.16200000E+01           0.48592380E+00
   0.16300000E+01           0.47892160E+00
   0.16400000E+01           0.47206610E+00
   0.16500000E+01           0.46549280E+00
   0.16600000E+01           0.45796755E+00
   0.16700000E+01           0.45130965E+00
   0.16800000E+01           0.44389665E+00
   0.16900000E+01           0.43723315E+00
   0.17000000E+01           0.42990960E+00
   0.17100000E+01           0.42242260E+00
   0.17200000E+01           0.41536770E+00
   0.17300000E+01           0.40835825E+00
   0.17400000E+01           0.40070515E+00
   0.17500000E+01           0.39405800E+00
   0.17600000E+01           0.38634135E+00
   0.17700000E+01           0.37916015E+00
   0.17800000E+01           0.37183715E+00
   0.17900000E+01           0.36446365E+00
   0.18000000E+01           0.35737880E+00
   0.18100000E+01           0.35008065E+00
   0.18200000E+01           0.34274495E+00
   0.18300000E+01           0.33542735E+00
   0.18400000E+01           0.32824665E+00
   0.18500000E+01           0.32115685E+00
   0.18600000E+01           0.31382585E+00
   0.18700000E+01           0.30668830E+00
   0.18800000E+01           0.29927485E+00
   0.18900000E+01           0.29222315E+00
   0.19000000E+01           0.28502065E+00
   0.19100000E+01           0.27784605E+00
   0.19200000E+01           0.27082700E+00
   0.19300000E+01           0.26363990E+00
   0.19400000E+01           0.25667725E+00
   0.19500000E+01           0.24931375E+00
   0.19600000E+01           0.24257745E+00
   0.19700000E+01           0.23558905E+00
   0.19800000E+01           0.22872975E+00
   0.19900000E+01           0.22188640E+00
   0.20000000E+01           0.10837275E+00
 #T=   389.0000
  -0.20000000E+01           0.00000000E+00
  -0.19900000E+01           0.00000000E+00
  -0.19800000E+01           0.00000000E+00
  -0.19700000E+01           0.00000000E+00
  -0.19600000E+01           0.00000000E+00
  -0.19500000E+01           0.00000000E+00
  -0.19400000E+01           0.00000000E+00
  -0.19300000E+01           0.00000000E+00
  -0.19200000E+01           0.00000000E+00
  -0.19100000E+01           0.00000000E+00
  -0.19000000E+01           0.00000000E+00
  -0.18900000E+01           0.00000000E+00
  -0.18800000E+01           0.00000000E+00
  -0.18700000E+01           0.00000000E+00
  -0.18600000E+01           0.00000000E+00
  -0.18500000E+01           0.00000000E+00
  -0.18400000E+01           0.00000000E+00
  -0.18300000E+01           0.00000000E+00
  -0.18200000E+01           0.00000000E+00
  -0.18100000E+01           0.00000000E+00
  -0.18000000E+01           0.00000000E+00
  -0.17900000E+01           0.00000000E+00
  -0.17800000E+01           0.00000000E+00
  -0.17700000E+01           0.00000000E+00
  -0.17600000E+01           0.00000000E+00
  -0.17500000E+01           0.00000000E+00
  -0.17400000E+01           0.00000000E+00
  -0.17300000E+01           0.00000000E+00
  -0.17200000E+01           0.00000000E+00
  -0.17100000E+01           0.00000000E+00
  -0.17000000E+01           0.00000000E+00
  -0.16900000E+01           0.00000000E+00
  -0.16800000E+01           0.00000000E+00
  -0.16700000E+01           0.00000000E+00
  -0.16600000E+01           0.00000000E+00
  -0.16500000E+01           0.00000000E+00
  -0.16400000E+01           0.00000000E+00
  -0.16300000E+01           0.00000000E+00
  -0.16200000E+01           0.00000000E+00
  -0.16100000E+01           0.00000000E+00
  -0.16000000E+01           0.00000000E+00
  -0.15900000E+01           0.00000000E+00
  -0.15800000E+01           0.00000000E+00
  -0.15700000E+01           0.00000000E+00
  -0.15600000E+01           0.00000000E+00
  -0.15500000E+01           0.00000000E+00
  -0.15400000E+01           0.00000000E+00
  -0.15300000E+01           0.00000000E+00
  -0.15200000E+01           0.00000000E+00
  -0.15100000E+01           0.00000000E+00
  -0.15000000E+01           0.00000000E+00
  -0.14900000E+01           0.00000000E+00
  -0.14800000E+01           0.00000000E+00
  -0.14700000E+01           0.00000000E+00
  -0.14600000E+01           0.00000000E+00
  -0.14500000E+01           0.00000000E+00
  -0.14400000E+01           0.00000000E+00
  -0.14300000E+01           0.00000000E+00
  -0.14200000E+01           0.00000000E+00
  -0.14100000E+01           0.00000000E+00
  -0.14000000E+01           0.00000000E+00
  -0.13900000E+01           0.00000000E+00
  -0.13800000E+01           0.00000000E+00
  -0.13700000E+01           0.00000000E+00
  -0.13600000E+01           0.00000000E+00
  -0.13500000E+01           0.00000000E+00
  -0.13400000E+01           0.00000000E+00
  -0.13300000E+01           0.00000000E+00
  -0.13200000E+01           0.00000000E+00
  -0.13100000E+01           0.00000000E+00
  -0.13000000E+01           0.00000000E+00
  -0.12900000E+01           0.00000000E+00
  -0.12800000E+01           0.00000000E+00
  -0.12700000E+01           0.00000000E+00
  -0.12600000E+01           0.00000000E+00
  -0.12500000E+01           0.00000000E+00
  -0.12400000E+01           0.00000000E+00
  -0.12300000E+01           0.00000000E+00
  -0.12200000E+01           0.00000000E+00
  -0.12100000E+01           0.00000000E+00
  -0.12000000E+01           0.00000000E+00
  -0.11900000E+01           0.00000000E+00
  -0.11800000E+01           0.00000000E+00
  -0.11700000E+01           0.00000000E+00
  -0.11600000E+01           0.00000000E+00
  -0.11500000E+01           0.00000000E+00
  -0.11400000E+01           0.00000000E+00
  -0.11300000E+01           0.00000000E+00
  -0.11200000E+01           0.00000000E+00
  -0.11100000E+01           0.00000000E+00
  -0.11000000E+01           0.00000000E+00
  -0.10900000E+01           0.00000000E+00
  -0.10800000E+01           0.00000000E+00
  -0.10700000E+01           0.00000000E+00
  -0.10600000E+01           0.00000000E+00
  -0.10500000E+01           0.00000000E+00
  -0.10400000E+01           0.00000000E+00
  -0.10300000E+01           0.00000000E+00
  -0.10200000E+01           0.00000000E+00
  -0.10100000E+01           0.00000000E+00
  -0.10000000E+01           0.00000000E+00
  -0.99000000E+00           0.00000000E+00
  -0.98000000E+00           0.00000000E+00
  -0.97000000E+00           0.00000000E+00
  -0.96000000E+00           0.00000000E+00
  -0.95000000E+00           0.00000000E+00
  -0.94000000E+00           0.00000000E+00
  -0.93000000E+00           0.00000000E+00
  -0.92000000E+00           0.00000000E+00
  -0.91000000E+00           0.00000000E+00
  -0.90000000E+00           0.00000000E+00
  -0.89000000E+00           0.00000000E+00
  -0.88000000E+00           0.00000000E+00
  -0.87000000E+00           0.00000000E+00
  -0.86000000E+00           0.00000000E+00
  -0.85000000E+00           0.00000000E+00
  -0.84000000E+00           0.00000000E+00
  -0.83000000E+00           0.00000000E+00
  -0.82000000E+00           0.00000000E+00
  -0.81000000E+00           0.00000000E+00
  -0.80000000E+00           0.00000000E+00
  -0.79000000E+00           0.00000000E+00
  -0.78000000E+00           0.00000000E+00
  -0.77000000E+00           0.00000000E+00
  -0.76000000E+00           0.00000000E+00
  -0.75000000E+00           0.00000000E+00
  -0.74000000E+00           0.00000000E+00
  -0.73000000E+00           0.00000000E+00
  -0.72000000E+00           0.00000000E+00
  -0.71000000E+00           0.00000000E+00
  -0.70000000E+00           0.00000000E+00
  -0.69000000E+00           0.00000000E+00
  -0.68000000E+00           0.00000000E+00
  -0.67000000E+00           0.00000000E+00
  -0.66000000E+00           0.00000000E+00
  -0.65000000E+00           0.00000000E+00
  -0.64000000E+00           0.00000000E+00
  -0.63000000E+00           0.00000000E+00
  -0.62000000E+00           0.00000000E+00
  -0.61000000E+00           0.00000000E+00
  -0.60000000E+00           0.00000000E+00
  -0.59000000E+00           0.00000000E+00
  -0.58000000E+00           0.00000000E+00
  -0.57000000E+00           0.00000000E+00
  -0.56000000E+00           0.00000000E+00
  -0.55000000E+00           0.00000000E+00
  -0.54000000E+00           0.00000000E+00
  -0.53000000E+00           0.00000000E+00
  -0.52000000E+00           0.00000000E+00
  -0.51000000E+00           0.00000000E+00
  -0.50000000E+00           0.00000000E+00
  -0.49000000E+00           0.00000000E+00
  -0.48000000E+00           0.00000000E+00
  -0.47000000E+00           0.00000000E+00
  -0.46000000E+00           0.00000000E+00
  -0.45000000E+00           0.00000000E+00
  -0.44000000E+00           0.00000000E+00
  -0.43000000E+00           0.00000000E+00
  -0.42000000E+00           0.00000000E+00
  -0.41000000E+00           0.00000000E+00
  -0.40000000E+00           0.00000000E+00
  -0.39000000E+00           0.00000000E+00
  -0.38000000E+00           0.00000000E+00
  -0.37000000E+00           0.00000000E+00
  -0.36000000E+00           0.00000000E+00
  -0.35000000E+00           0.00000000E+00
  -0.34000000E+00           0.00000000E+00
  -0.33000000E+00           0.00000000E+00
  -0.32000000E+00           0.00000000E+00
  -0.31000000E+00           0.00000000E+00
  -0.30000000E+00           0.00000000E+00
  -0.29000000E+00           0.00000000E+00
  -0.28000000E+00           0.00000000E+00
  -0.27000000E+00           0.00000000E+00
  -0.26000000E+00           0.00000000E+00
  -0.25000000E+00           0.00000000E+00
  -0.24000000E+00           0.00000000E+00
  -0.23000000E+00           0.00000000E+00
  -0.22000000E+00           0.00000000E+00
  -0.21000000E+00           0.00000000E+00
  -0.20000000E+00           0.00000000E+00
  -0.19000000E+00           0.00000000E+00
  -0.18000000E+00           0.00000000E+00
  -0.17000000E+00           0.00000000E+00
  -0.16000000E+00           0.00000000E+00
  -0.15000000E+00           0.00000000E+00
  -0.14000000E+00           0.00000000E+00
  -0.13000000E+00           0.00000000E+00
  -0.12000000E+00           0.00000000E+00
  -0.11000000E+00           0.00000000E+00
  -0.10000000E+00           0.00000000E+00
  -0.90000000E-01           0.00000000E+00
  -0.80000000E-01           0.00000000E+00
  -0.70000000E-01           0.00000000E+00
  -0.60000000E-01           0.00000000E+00
  -0.50000000E-01           0.00000000E+00
  -0.40000000E-01           0.00000000E+00
  -0.30000000E-01           0.00000000E+00
  -0.20000000E-01           0.00000000E+00
  -0.10000000E-01           0.00000000E+00
   0.00000000E+00           0.14418000E-02
   0.10000000E-01           0.11551500E-01
   0.20000000E-01           0.23034500E-01
   0.30000000E-01           0.34561950E-01
   0.40000000E-01           0.46114500E-01
   0.50000000E-01           0.57471550E-01
   0.60000000E-01           0.69070600E-01
   0.70000000E-01           0.80314100E-01
   0.80000000E-01           0.91982600E-01
   0.90000000E-01           0.10326505E+00
   0.10000000E+00           0.11468990E+00
   0.11000000E+00           0.12615440E+00
   0.12000000E+00           0.13753240E+00
   0.13000000E+00           0.14867405E+00
   0.14000000E+00           0.15993130E+00
   0.15000000E+00           0.17131405E+00
   0.16000000E+00           0.18244425E+00
   0.17000000E+00           0.19332425E+00
   0.18000000E+00           0.20445725E+00
   0.19000000E+00           0.21556895E+00
   0.20000000E+00           0.22663190E+00
   0.21000000E+00           0.23723535E+00
   0.22000000E+00           0.24826170E+00
   0.23000000E+00           0.25903745E+00
   0.24000000E+00           0.26968935E+00
   0.25000000E+00           0.28028155E+00
   0.26000000E+00           0.29100955E+00
   0.27000000E+00           0.30132995E+00
   0.28000000E+00           0.31194045E+00
   0.29000000E+00           0.32216835E+00
   0.30000000E+00           0.33253805E+00
   0.31000000E+00           0.34277775E+00
   0.32000000E+00           0.35274730E+00
   0.33000000E+00           0.36293215E+00
   0.34000000E+00           0.37272830E+00
   0.35000000E+00           0.38254290E+00
   0.36000000E+00           0.39231370E+00
   0.37000000E+00           0.40192995E+00
   0.38000000E+00           0.41115830E+00
   0.39000000E+00           0.42070430E+00
   0.40000000E+00           0.43002630E+00
   0.41000000E+00           0.43910890E+00
   0.42000000E+00           0.44839065E+00
   0.43000000E+00           0.45712625E+00
   0.44000000E+00           0.46571880E+00
   0.45000000E+00           0.47485845E+00
   0.46000000E+00           0.48311080E+00
   0.47000000E+00           0.49170920E+00
   0.48000000E+00           0.49992515E+00
   0.49000000E+00           0.50839365E+00
   0.50000000E+00           0.51647860E+00
   0.51000000E+00           0.52415530E+00
   0.52000000E+00           0.53220030E+00
   0.53000000E+00           0.53991290E+00
   0.54000000E+00           0.54785150E+00
   0.55000000E+00           0.55488210E+00
   0.56000000E+00           0.56192950E+00
   0.57000000E+00           0.56936265E+00
   0.58000000E+00           0.57654325E+00
   0.59000000E+00           0.58300770E+00
   0.60000000E+00           0.59005935E+00
   0.61000000E+00           0.59669695E+00
   0.62000000E+00           0.60313760E+00
   0.63000000E+00           0.60938295E+00
   0.64000000E+00           0.61535870E+00
   0.65000000E+00           0.62110325E+00
   0.66000000E+00           0.62735550E+00
   0.67000000E+00           0.63278720E+00
   0.68000000E+00           0.63845750E+00
   0.69000000E+00           0.64394890E+00
   0.70000000E+00           0.64890095E+00
   0.71000000E+00           0.65382175E+00
   0.72000000E+00           0.65895560E+00
   0.73000000E+00           0.66366640E+00
   0.74000000E+00           0.66830700E+00
   0.75000000E+00           0.67260955E+00
   0.76000000E+00           0.67715360E+00
   0.77000000E+00           0.68078685E+00
   0.78000000E+00           0.68471290E+00
   0.79000000E+00           0.68852900E+00
   0.80000000E+00           0.69250935E+00
   0.81000000E+00           0.69550315E+00
   0.82000000E+00           0.69905330E+00
   0.83000000E+00           0.70243320E+00
   0.84000000E+00           0.70517630E+00
   0.85000000E+00           0.70816645E+00
   0.86000000E+00           0.71062680E+00
   0.87000000E+00           0.71307775E+00
   0.88000000E+00           0.71554360E+00
   0.89000000E+00           0.71714220E+00
   0.90000000E+00           0.71984435E+00
   0.91000000E+00           0.72082165E+00
   0.92000000E+00           0.72279760E+00
   0.93000000E+00           0.72437165E+00
   0.94000000E+00           0.72566350E+00
   0.95000000E+00           0.72651045E+00
   0.96000000E+00           0.72735970E+00
   0.97000000E+00           0.72859965E+00
   0.98000000E+00           0.72900980E+00
   0.99000000E+00           0.72954215E+00
   0.10000000E+01           0.73001510E+00
   0.10100000E+01           0.73037580E+00
   0.10200000E+01           0.73008190E+00
   0.10300000E+01           0.72983660E+00
   0.10400000E+01           0.72949620E+00
   0.10500000E+01           0.72909830E+00
   0.10600000E+01           0.72834740E+00
   0.10700000E+01           0.72743260E+00
   0.10800000E+01           0.72689480E+00
   0.10900000E+01           0.72580130E+00
   0.11000000E+01           0.72460760E+00
   0.11100000E+01           0.72358025E+00
   0.11200000E+01           0.72143215E+00
   0.11300000E+01           0.71982415E+00
   0.11400000E+01           0.71799615E+00
   0.11500000E+01           0.71601120E+00
   0.11600000E+01           0.71403970E+00
   0.11700000E+01           0.71153620E+00
   0.11800000E+01           0.70897980E+00
   0.11900000E+01           0.70658685E+00
   0.12000000E+01           0.70394075E+00
   0.12100000E+01           0.70089845E+00
   0.12200000E+01           0.69805560E+00
   0.12300000E+01           0.69516755E+00
   0.12400000E+01           0.69184775E+00
   0.12500000E+01           0.68845425E+00
   0.12600000E+01           0.68491860E+00
   0.12700000E+01           0.68136175E+00
   0.12800000E+01           0.67734870E+00
   0.12900000E+01           0.67343820E+00
   0.13000000E+01           0.66931810E+00
   0.13100000E+01           0.66564855E+00
   0.13200000E+01           0.66139435E+00
   0.13300000E+01           0.65688560E+00
   0.13400000E+01           0.65219170E+00
   0.13500000E+01           0.64786695E+00
   0.13600000E+01           0.64289010E+00
   0.13700000E+01           0.63805635E+00
   0.13800000E+01           0.63321805E+00
   0.13900000E+01           0.62829150E+00
   0.14000000E+01           0.62315530E+00
   0.14100000E+01           0.61752980E+00
   0.14200000E+01           0.61212355E+00
   0.14300000E+01           0.60730665E+00
   0.14400000E+01           0.60153935E+00
   0.14500000E+01           0.59593240E+00
   0.14600000E+01           0.59056690E+00
   0.14700000E+01           0.58477480E+00
   0.14800000E+01           0.57905595E+00
   0.14900000E+01           0.57297965E+00
   0.15000000E+01           0.56663555E+00
   0.15100000E+01           0.56061530E+00
   0.15200000E+01           0.55438765E+00
   0.15300000E+01           0.54809025E+00
   0.15400000E+01           0.54188610E+00
   0.15500000E+01           0.53519335E+00
   0.15600000E+01           0.52901475E+00
   0.15700000E+01           0.52264530E+00
   0.15800000E+01           0.51594950E+00
   0.15900000E+01           0.50904480E+00
   0.16000000E+01           0.50261615E+00
   0.16100000E+01           0.49582850E+00
   0.16200000E+01           0.48952420E+00
   0.16300000E+01           0.48208220E+00
   0.16400000E+01           0.47507390E+00
   0.16500000E+01           0.46849505E+00
   0.16600000E+01           0.46144410E+00
   0.16700000E+01           0.45481705E+00
   0.16800000E+01           0.44753680E+00
   0.16900000E+01           0.44061015E+00
   0.17000000E+01           0.43339205E+00
   0.17100000E+01           0.42630890E+00
   0.17200000E+01           0.41937340E+00
   0.17300000E+01           0.41167810E+00
   0.17400000E+01           0.40445220E+00
   0.17500000E+01           0.39781275E+00
   0.17600000E+01           0.39010785E+00
   0.17700000E+01           0.38327850E+00
   0.17800000E+01           0.37596300E+00
   0.17900000E+01           0.36845055E+00
   0.18000000E+01           0.36144740E+00
   0.18100000E+01           0.35393410E+00
   0.18200000E+01           0.34664145E+00
   0.18300000E+01           0.33963350E+00
   0.18400000E+01           0.33254885E+00
   0.18500000E+01           0.32523865E+00
   0.18600000E+01           0.31792155E+00
   0.18700000E+01           0.31078485E+00
   0.18800000E+01           0.30340930E+00
   0.18900000E+01           0.29628725E+00
   0.19000000E+01           0.28929965E+00
   0.19100000E+01           0.28227570E+00
   0.19200000E+01           0.27498310E+00
   0.19300000E+01           0.26765765E+00
   0.19400000E+01           0.26072330E+00
   0.19500000E+01           0.25379120E+00
   0.19600000E+01           0.24665135E+00
   0.19700000E+01           0.23988705E+00
   0.19800000E+01           0.23298635E+00
   0.19900000E+01           0.22605960E+00
   0.20000000E+01           0.11036565E+00
 #T=   390.0000
  -0.20000000E+01           0.00000000E+00
  -0.19900000E+01           0.00000000E+00
  -0.19800000E+01           0.00000000E+00
  -0.19700000E+01           0.00000000E+00
  -0.19600000E+01           0.00000000E+00
  -0.19500000E+01           0.00000000E+00
  -0.19400000E+01           0.00000000E+00
  -0.19300000E+01           0.00000000E+00
  -0.19200000E+01           0.00000000E+00
  -0.19100000E+01           0.00000000E+00
  -0.19000000E+01           0.00000000E+00
  -0.18900000E+01           0.00000000E+00
  -0.18800000E+01           0.00000000E+00
  -0.18700000E+01           0.00000000E+00
  -0.18600000E+01           0.00000000E+00
  -0.18500000E+01           0.00000000E+00
  -0.18400000E+01           0.00000000E+00
  -0.18300000E+01           0.00000000E+00
  -0.18200000E+01           0.00000000E+00
  -0.18100000E+01           0.00000000E+00
  -0.18000000E+01           0.00000000E+00
  -0.17900000E+01           0.00000000E+00
  -0.17800000E+01           0.00000000E+00
  -0.17700000E+01           0.00000000E+00
  -0.17600000E+01           0.00000000E+00
  -0.17500000E+01           0.00000000E+00
  -0.17400000E+01           0.00000000E+00
  -0.17300000E+01           0.00000000E+00
  -0.17200000E+01           0.00000000E+00
  -0.17100000E+01           0.00000000E+00
  -0.17000000E+01           0.00000000E+00
  -0.16900000E+01           0.00000000E+00
  -0.16800000E+01           0.00000000E+00
  -0.16700000E+01           0.00000000E+00
  -0.16600000E+01           0.00000000E+00
  -0.16500000E+01           0.00000000E+00
  -0.16400000E+01           0.00000000E+00
  -0.16300000E+01           0.00000000E+00
  -0.16200000E+01           0.00000000E+00
  -0.16100000E+01           0.00000000E+00
  -0.16000000E+01           0.00000000E+00
  -0.15900000E+01           0.00000000E+00
  -0.15800000E+01           0.00000000E+00
  -0.15700000E+01           0.00000000E+00
  -0.15600000E+01           0.00000000E+00
  -0.15500000E+01           0.00000000E+00
  -0.15400000E+01           0.00000000E+00
  -0.15300000E+01           0.00000000E+00
  -0.15200000E+01           0.00000000E+00
  -0.15100000E+01           0.00000000E+00
  -0.15000000E+01           0.00000000E+00
  -0.14900000E+01           0.00000000E+00
  -0.14800000E+01           0.00000000E+00
  -0.14700000E+01           0.00000000E+00
  -0.14600000E+01           0.00000000E+00
  -0.14500000E+01           0.00000000E+00
  -0.14400000E+01           0.00000000E+00
  -0.14300000E+01           0.00000000E+00
  -0.14200000E+01           0.00000000E+00
  -0.14100000E+01           0.00000000E+00
  -0.14000000E+01           0.00000000E+00
  -0.13900000E+01           0.00000000E+00
  -0.13800000E+01           0.00000000E+00
  -0.13700000E+01           0.00000000E+00
  -0.13600000E+01           0.00000000E+00
  -0.13500000E+01           0.00000000E+00
  -0.13400000E+01           0.00000000E+00
  -0.13300000E+01           0.00000000E+00
  -0.13200000E+01           0.00000000E+00
  -0.13100000E+01           0.00000000E+00
  -0.13000000E+01           0.00000000E+00
  -0.12900000E+01           0.00000000E+00
  -0.12800000E+01           0.00000000E+00
  -0.12700000E+01           0.00000000E+00
  -0.12600000E+01           0.00000000E+00
  -0.12500000E+01           0.00000000E+00
  -0.12400000E+01           0.00000000E+00
  -0.12300000E+01           0.00000000E+00
  -0.12200000E+01           0.00000000E+00
  -0.12100000E+01           0.00000000E+00
  -0.12000000E+01           0.00000000E+00
  -0.11900000E+01           0.00000000E+00
  -0.11800000E+01           0.00000000E+00
  -0.11700000E+01           0.00000000E+00
  -0.11600000E+01           0.00000000E+00
  -0.11500000E+01           0.00000000E+00
  -0.11400000E+01           0.00000000E+00
  -0.11300000E+01           0.00000000E+00
  -0.11200000E+01           0.00000000E+00
  -0.11100000E+01           0.00000000E+00
  -0.11000000E+01           0.00000000E+00
  -0.10900000E+01           0.00000000E+00
  -0.10800000E+01           0.00000000E+00
  -0.10700000E+01           0.00000000E+00
  -0.10600000E+01           0.00000000E+00
  -0.10500000E+01           0.00000000E+00
  -0.10400000E+01           0.00000000E+00
  -0.10300000E+01           0.00000000E+00
  -0.10200000E+01           0.00000000E+00
  -0.10100000E+01           0.00000000E+00
  -0.10000000E+01           0.00000000E+00
  -0.99000000E+00           0.00000000E+00
  -0.98000000E+00           0.00000000E+00
  -0.97000000E+00           0.00000000E+00
  -0.96000000E+00           0.00000000E+00
  -0.95000000E+00           0.00000000E+00
  -0.94000000E+00           0.00000000E+00
  -0.93000000E+00           0.00000000E+00
  -0.92000000E+00           0.00000000E+00
  -0.91000000E+00           0.00000000E+00
  -0.90000000E+00           0.00000000E+00
  -0.89000000E+00           0.00000000E+00
  -0.88000000E+00           0.00000000E+00
  -0.87000000E+00           0.00000000E+00
  -0.86000000E+00           0.00000000E+00
  -0.85000000E+00           0.00000000E+00
  -0.84000000E+00           0.00000000E+00
  -0.83000000E+00           0.00000000E+00
  -0.82000000E+00           0.00000000E+00
  -0.81000000E+00           0.00000000E+00
  -0.80000000E+00           0.00000000E+00
  -0.79000000E+00           0.00000000E+00
  -0.78000000E+00           0.00000000E+00
  -0.77000000E+00           0.00000000E+00
  -0.76000000E+00           0.00000000E+00
  -0.75000000E+00           0.00000000E+00
  -0.74000000E+00           0.00000000E+00
  -0.73000000E+00           0.00000000E+00
  -0.72000000E+00           0.00000000E+00
  -0.71000000E+00           0.00000000E+00
  -0.70000000E+00           0.00000000E+00
  -0.69000000E+00           0.00000000E+00
  -0.68000000E+00           0.00000000E+00
  -0.67000000E+00           0.00000000E+00
  -0.66000000E+00           0.00000000E+00
  -0.65000000E+00           0.00000000E+00
  -0.64000000E+00           0.00000000E+00
  -0.63000000E+00           0.00000000E+00
  -0.62000000E+00           0.00000000E+00
  -0.61000000E+00           0.00000000E+00
  -0.60000000E+00           0.00000000E+00
  -0.59000000E+00           0.00000000E+00
  -0.58000000E+00           0.00000000E+00
  -0.57000000E+00           0.00000000E+00
  -0.56000000E+00           0.00000000E+00
  -0.55000000E+00           0.00000000E+00
  -0.54000000E+00           0.00000000E+00
  -0.53000000E+00           0.00000000E+00
  -0.52000000E+00           0.00000000E+00
  -0.51000000E+00           0.00000000E+00
  -0.50000000E+00           0.00000000E+00
  -0.49000000E+00           0.00000000E+00
  -0.48000000E+00           0.00000000E+00
  -0.47000000E+00           0.00000000E+00
  -0.46000000E+00           0.00000000E+00
  -0.45000000E+00           0.00000000E+00
  -0.44000000E+00           0.00000000E+00
  -0.43000000E+00           0.00000000E+00
  -0.42000000E+00           0.00000000E+00
  -0.41000000E+00           0.00000000E+00
  -0.40000000E+00           0.00000000E+00
  -0.39000000E+00           0.00000000E+00
  -0.38000000E+00           0.00000000E+00
  -0.37000000E+00           0.00000000E+00
  -0.36000000E+00           0.00000000E+00
  -0.35000000E+00           0.00000000E+00
  -0.34000000E+00           0.00000000E+00
  -0.33000000E+00           0.00000000E+00
  -0.32000000E+00           0.00000000E+00
  -0.31000000E+00           0.00000000E+00
  -0.30000000E+00           0.00000000E+00
  -0.29000000E+00           0.00000000E+00
  -0.28000000E+00           0.00000000E+00
  -0.27000000E+00           0.00000000E+00
  -0.26000000E+00           0.00000000E+00
  -0.25000000E+00           0.00000000E+00
  -0.24000000E+00           0.00000000E+00
  -0.23000000E+00           0.00000000E+00
  -0.22000000E+00           0.00000000E+00
  -0.21000000E+00           0.00000000E+00
  -0.20000000E+00           0.00000000E+00
  -0.19000000E+00           0.00000000E+00
  -0.18000000E+00           0.00000000E+00
  -0.17000000E+00           0.00000000E+00
  -0.16000000E+00           0.00000000E+00
  -0.15000000E+00           0.00000000E+00
  -0.14000000E+00           0.00000000E+00
  -0.13000000E+00           0.00000000E+00
  -0.12000000E+00           0.00000000E+00
  -0.11000000E+00           0.00000000E+00
  -0.10000000E+00           0.00000000E+00
  -0.90000000E-01           0.00000000E+00
  -0.80000000E-01           0.00000000E+00
  -0.70000000E-01           0.00000000E+00
  -0.60000000E-01           0.00000000E+00
  -0.50000000E-01           0.00000000E+00
  -0.40000000E-01           0.00000000E+00
  -0.30000000E-01           0.00000000E+00
  -0.20000000E-01           0.00000000E+00
  -0.10000000E-01           0.00000000E+00
   0.00000000E+00           0.14433500E-02
   0.10000000E-01           0.11448700E-01
   0.20000000E-01           0.23006450E-01
   0.30000000E-01           0.34382350E-01
   0.40000000E-01           0.45882200E-01
   0.50000000E-01           0.57139500E-01
   0.60000000E-01           0.68729550E-01
   0.70000000E-01           0.80044350E-01
   0.80000000E-01           0.91430100E-01
   0.90000000E-01           0.10261670E+00
   0.10000000E+00           0.11399310E+00
   0.11000000E+00           0.12536610E+00
   0.12000000E+00           0.13658255E+00
   0.13000000E+00           0.14791870E+00
   0.14000000E+00           0.15896710E+00
   0.15000000E+00           0.17024105E+00
   0.16000000E+00           0.18122040E+00
   0.17000000E+00           0.19227395E+00
   0.18000000E+00           0.20354780E+00
   0.19000000E+00           0.21441490E+00
   0.20000000E+00           0.22528050E+00
   0.21000000E+00           0.23591050E+00
   0.22000000E+00           0.24697575E+00
   0.23000000E+00           0.25745740E+00
   0.24000000E+00           0.26838375E+00
   0.25000000E+00           0.27872630E+00
   0.26000000E+00           0.28908445E+00
   0.27000000E+00           0.29964385E+00
   0.28000000E+00           0.31013675E+00
   0.29000000E+00           0.32027505E+00
   0.30000000E+00           0.33069955E+00
   0.31000000E+00           0.34078320E+00
   0.32000000E+00           0.35057315E+00
   0.33000000E+00           0.36049015E+00
   0.34000000E+00           0.37033125E+00
   0.35000000E+00           0.38034770E+00
   0.36000000E+00           0.38997105E+00
   0.37000000E+00           0.39933360E+00
   0.38000000E+00           0.40896650E+00
   0.39000000E+00           0.41809200E+00
   0.40000000E+00           0.42726195E+00
   0.41000000E+00           0.43668695E+00
   0.42000000E+00           0.44584065E+00
   0.43000000E+00           0.45461860E+00
   0.44000000E+00           0.46367590E+00
   0.45000000E+00           0.47210990E+00
   0.46000000E+00           0.48081385E+00
   0.47000000E+00           0.48913245E+00
   0.48000000E+00           0.49745425E+00
   0.49000000E+00           0.50584450E+00
[...]
   0.13800000E+01           0.69093640E+00
   0.13900000E+01           0.69216630E+00
   0.14000000E+01           0.69397685E+00
   0.14100000E+01           0.69528495E+00
   0.14200000E+01           0.69687305E+00
   0.14300000E+01           0.69773950E+00
   0.14400000E+01           0.69938590E+00
   0.14500000E+01           0.70054265E+00
   0.14600000E+01           0.70171495E+00
   0.14700000E+01           0.70280550E+00
   0.14800000E+01           0.70411090E+00
   0.14900000E+01           0.70506940E+00
   0.15000000E+01           0.70574455E+00
   0.15100000E+01           0.70682800E+00
   0.15200000E+01           0.70761170E+00
   0.15300000E+01           0.70820435E+00
   0.15400000E+01           0.70897280E+00
   0.15500000E+01           0.70965820E+00
   0.15600000E+01           0.71003105E+00
   0.15700000E+01           0.71104435E+00
   0.15800000E+01           0.71094290E+00
   0.15900000E+01           0.71156900E+00
   0.16000000E+01           0.71184385E+00
   0.16100000E+01           0.71206285E+00
   0.16200000E+01           0.71233600E+00
   0.16300000E+01           0.71258120E+00
   0.16400000E+01           0.71284540E+00
   0.16500000E+01           0.71248145E+00
   0.16600000E+01           0.71242935E+00
   0.16700000E+01           0.71235510E+00
   0.16800000E+01           0.71196560E+00
   0.16900000E+01           0.71190415E+00
   0.17000000E+01           0.71181405E+00
   0.17100000E+01           0.71187310E+00
   0.17200000E+01           0.71104275E+00
   0.17300000E+01           0.71048020E+00
   0.17400000E+01           0.71022075E+00
   0.17500000E+01           0.70944210E+00
   0.17600000E+01           0.70901545E+00
   0.17700000E+01           0.70849195E+00
   0.17800000E+01           0.70725090E+00
   0.17900000E+01           0.70694610E+00
   0.18000000E+01           0.70641050E+00
   0.18100000E+01           0.70519910E+00
   0.18200000E+01           0.70421465E+00
   0.18300000E+01           0.70347660E+00
   0.18400000E+01           0.70208465E+00
   0.18500000E+01           0.70111115E+00
   0.18600000E+01           0.69978590E+00
   0.18700000E+01           0.69885740E+00
   0.18800000E+01           0.69730325E+00
   0.18900000E+01           0.69618185E+00
   0.19000000E+01           0.69476340E+00
   0.19100000E+01           0.69316820E+00
   0.19200000E+01           0.69180110E+00
   0.19300000E+01           0.69025990E+00
   0.19400000E+01           0.68849790E+00
   0.19500000E+01           0.68713665E+00
   0.19600000E+01           0.68535895E+00
   0.19700000E+01           0.68364930E+00
   0.19800000E+01           0.68191620E+00
   0.19900000E+01           0.68001655E+00
   0.20000000E+01           0.33949595E+00
 #T=   465.0000
  -0.20000000E+01           0.00000000E+00
  -0.19900000E+01           0.00000000E+00
  -0.19800000E+01           0.00000000E+00
  -0.19700000E+01           0.00000000E+00
  -0.19600000E+01           0.00000000E+00
  -0.19500000E+01           0.00000000E+00
  -0.19400000E+01           0.00000000E+00
  -0.19300000E+01           0.00000000E+00
  -0.19200000E+01           0.00000000E+00
  -0.19100000E+01           0.00000000E+00
  -0.19000000E+01           0.00000000E+00
  -0.18900000E+01           0.00000000E+00
  -0.18800000E+01           0.00000000E+00
  -0.18700000E+01           0.00000000E+00
  -0.18600000E+01           0.00000000E+00
  -0.18500000E+01           0.00000000E+00
  -0.18400000E+01           0.00000000E+00
  -0.18300000E+01           0.00000000E+00
  -0.18200000E+01           0.00000000E+00
  -0.18100000E+01           0.00000000E+00
  -0.18000000E+01           0.00000000E+00
  -0.17900000E+01           0.00000000E+00
  -0.17800000E+01           0.00000000E+00
  -0.17700000E+01           0.00000000E+00
  -0.17600000E+01           0.00000000E+00
  -0.17500000E+01           0.00000000E+00
  -0.17400000E+01           0.00000000E+00
  -0.17300000E+01           0.00000000E+00
  -0.17200000E+01           0.00000000E+00
  -0.17100000E+01           0.00000000E+00
  -0.17000000E+01           0.00000000E+00
  -0.16900000E+01           0.00000000E+00
  -0.16800000E+01           0.00000000E+00
  -0.16700000E+01           0.00000000E+00
  -0.16600000E+01           0.00000000E+00
  -0.16500000E+01           0.00000000E+00
  -0.16400000E+01           0.00000000E+00
  -0.16300000E+01           0.00000000E+00
  -0.16200000E+01           0.00000000E+00
  -0.16100000E+01           0.00000000E+00
  -0.16000000E+01           0.00000000E+00
  -0.15900000E+01           0.00000000E+00
  -0.15800000E+01           0.00000000E+00
  -0.15700000E+01           0.00000000E+00
  -0.15600000E+01           0.00000000E+00
  -0.15500000E+01           0.00000000E+00
  -0.15400000E+01           0.00000000E+00
  -0.15300000E+01           0.00000000E+00
  -0.15200000E+01           0.00000000E+00
  -0.15100000E+01           0.00000000E+00
  -0.15000000E+01           0.00000000E+00
  -0.14900000E+01           0.00000000E+00
  -0.14800000E+01           0.00000000E+00
  -0.14700000E+01           0.00000000E+00
  -0.14600000E+01           0.00000000E+00
  -0.14500000E+01           0.00000000E+00
  -0.14400000E+01           0.00000000E+00
  -0.14300000E+01           0.00000000E+00
  -0.14200000E+01           0.00000000E+00
  -0.14100000E+01           0.00000000E+00
  -0.14000000E+01           0.00000000E+00
  -0.13900000E+01           0.00000000E+00
  -0.13800000E+01           0.00000000E+00
  -0.13700000E+01           0.00000000E+00
  -0.13600000E+01           0.00000000E+00
  -0.13500000E+01           0.00000000E+00
  -0.13400000E+01           0.00000000E+00
  -0.13300000E+01           0.00000000E+00
  -0.13200000E+01           0.00000000E+00
  -0.13100000E+01           0.00000000E+00
  -0.13000000E+01           0.00000000E+00
  -0.12900000E+01           0.00000000E+00
  -0.12800000E+01           0.00000000E+00
  -0.12700000E+01           0.00000000E+00
  -0.12600000E+01           0.00000000E+00
  -0.12500000E+01           0.00000000E+00
  -0.12400000E+01           0.00000000E+00
  -0.12300000E+01           0.00000000E+00
  -0.12200000E+01           0.00000000E+00
  -0.12100000E+01           0.00000000E+00
  -0.12000000E+01           0.00000000E+00
  -0.11900000E+01           0.00000000E+00
  -0.11800000E+01           0.00000000E+00
  -0.11700000E+01           0.00000000E+00
  -0.11600000E+01           0.00000000E+00
  -0.11500000E+01           0.00000000E+00
  -0.11400000E+01           0.00000000E+00
  -0.11300000E+01           0.00000000E+00
  -0.11200000E+01           0.00000000E+00
  -0.11100000E+01           0.00000000E+00
  -0.11000000E+01           0.00000000E+00
  -0.10900000E+01           0.00000000E+00
  -0.10800000E+01           0.00000000E+00
  -0.10700000E+01           0.00000000E+00
  -0.10600000E+01           0.00000000E+00
  -0.10500000E+01           0.00000000E+00
  -0.10400000E+01           0.00000000E+00
  -0.10300000E+01           0.00000000E+00
  -0.10200000E+01           0.00000000E+00
  -0.10100000E+01           0.00000000E+00
  -0.10000000E+01           0.00000000E+00
  -0.99000000E+00           0.00000000E+00
  -0.98000000E+00           0.00000000E+00
  -0.97000000E+00           0.00000000E+00
  -0.96000000E+00           0.00000000E+00
  -0.95000000E+00           0.00000000E+00
  -0.94000000E+00           0.00000000E+00
  -0.93000000E+00           0.00000000E+00
  -0.92000000E+00           0.00000000E+00
  -0.91000000E+00           0.00000000E+00
  -0.90000000E+00           0.00000000E+00
  -0.89000000E+00           0.00000000E+00
  -0.88000000E+00           0.00000000E+00
  -0.87000000E+00           0.00000000E+00
  -0.86000000E+00           0.00000000E+00
  -0.85000000E+00           0.00000000E+00
  -0.84000000E+00           0.00000000E+00
  -0.83000000E+00           0.00000000E+00
  -0.82000000E+00           0.00000000E+00
  -0.81000000E+00           0.00000000E+00
  -0.80000000E+00           0.00000000E+00
  -0.79000000E+00           0.00000000E+00
  -0.78000000E+00           0.00000000E+00
  -0.77000000E+00           0.00000000E+00
  -0.76000000E+00           0.00000000E+00
  -0.75000000E+00           0.00000000E+00
  -0.74000000E+00           0.00000000E+00
  -0.73000000E+00           0.00000000E+00
  -0.72000000E+00           0.00000000E+00
  -0.71000000E+00           0.00000000E+00
  -0.70000000E+00           0.00000000E+00
  -0.69000000E+00           0.00000000E+00
  -0.68000000E+00           0.00000000E+00
  -0.67000000E+00           0.00000000E+00
  -0.66000000E+00           0.00000000E+00
  -0.65000000E+00           0.00000000E+00
  -0.64000000E+00           0.00000000E+00
  -0.63000000E+00           0.00000000E+00
  -0.62000000E+00           0.00000000E+00
  -0.61000000E+00           0.00000000E+00
  -0.60000000E+00           0.00000000E+00
  -0.59000000E+00           0.00000000E+00
  -0.58000000E+00           0.00000000E+00
  -0.57000000E+00           0.00000000E+00
  -0.56000000E+00           0.00000000E+00
  -0.55000000E+00           0.00000000E+00
  -0.54000000E+00           0.00000000E+00
  -0.53000000E+00           0.00000000E+00
  -0.52000000E+00           0.00000000E+00
  -0.51000000E+00           0.00000000E+00
  -0.50000000E+00           0.00000000E+00
  -0.49000000E+00           0.00000000E+00
  -0.48000000E+00           0.00000000E+00
  -0.47000000E+00           0.00000000E+00
  -0.46000000E+00           0.00000000E+00
  -0.45000000E+00           0.00000000E+00
  -0.44000000E+00           0.00000000E+00
  -0.43000000E+00           0.00000000E+00
  -0.42000000E+00           0.00000000E+00
  -0.41000000E+00           0.00000000E+00
  -0.40000000E+00           0.00000000E+00
  -0.39000000E+00           0.00000000E+00
  -0.38000000E+00           0.00000000E+00
  -0.37000000E+00           0.00000000E+00
  -0.36000000E+00           0.00000000E+00
  -0.35000000E+00           0.00000000E+00
  -0.34000000E+00           0.00000000E+00
  -0.33000000E+00           0.00000000E+00
  -0.32000000E+00           0.00000000E+00
  -0.31000000E+00           0.00000000E+00
  -0.30000000E+00           0.00000000E+00
  -0.29000000E+00           0.00000000E+00
  -0.28000000E+00           0.00000000E+00
  -0.27000000E+00           0.00000000E+00
  -0.26000000E+00           0.00000000E+00
  -0.25000000E+00           0.00000000E+00
  -0.24000000E+00           0.00000000E+00
  -0.23000000E+00           0.00000000E+00
  -0.22000000E+00           0.00000000E+00
  -0.21000000E+00           0.00000000E+00
  -0.20000000E+00           0.00000000E+00
  -0.19000000E+00           0.00000000E+00
  -0.18000000E+00           0.00000000E+00
  -0.17000000E+00           0.00000000E+00
  -0.16000000E+00           0.00000000E+00
  -0.15000000E+00           0.00000000E+00
  -0.14000000E+00           0.00000000E+00
  -0.13000000E+00           0.00000000E+00
  -0.12000000E+00           0.00000000E+00
  -0.11000000E+00           0.00000000E+00
  -0.10000000E+00           0.00000000E+00
  -0.90000000E-01           0.00000000E+00
  -0.80000000E-01           0.00000000E+00
  -0.70000000E-01           0.00000000E+00
  -0.60000000E-01           0.00000000E+00
  -0.50000000E-01           0.00000000E+00
  -0.40000000E-01           0.00000000E+00
  -0.30000000E-01           0.00000000E+00
  -0.20000000E-01           0.00000000E+00
  -0.10000000E-01           0.00000000E+00
   0.00000000E+00           0.85965000E-03
   0.10000000E-01           0.69031000E-02
   0.20000000E-01           0.13813900E-01
   0.30000000E-01           0.20676200E-01
   0.40000000E-01           0.27623050E-01
   0.50000000E-01           0.34432450E-01
   0.60000000E-01           0.41370950E-01
   0.70000000E-01           0.48200100E-01
   0.80000000E-01           0.55194750E-01
   0.90000000E-01           0.61981850E-01
   0.10000000E+00           0.68736950E-01
   0.11000000E+00           0.75772750E-01
   0.12000000E+00           0.82600250E-01
   0.13000000E+00           0.89398700E-01
   0.14000000E+00           0.96239700E-01
   0.15000000E+00           0.10316600E+00
   0.16000000E+00           0.10997975E+00
   0.17000000E+00           0.11667100E+00
   0.18000000E+00           0.12351705E+00
   0.19000000E+00           0.13029025E+00
   0.20000000E+00           0.13688100E+00
   0.21000000E+00           0.14392925E+00
   0.22000000E+00           0.15064540E+00
   0.23000000E+00           0.15725440E+00
   0.24000000E+00           0.16404905E+00
   0.25000000E+00           0.17078885E+00
   0.26000000E+00           0.17733335E+00
   0.27000000E+00           0.18405035E+00
   0.28000000E+00           0.19083860E+00
   0.29000000E+00           0.19721095E+00
   0.30000000E+00           0.20382765E+00
   0.31000000E+00           0.21052190E+00
   0.32000000E+00           0.21703780E+00
   0.33000000E+00           0.22365500E+00
   0.34000000E+00           0.23018090E+00
   0.35000000E+00           0.23643810E+00
   0.36000000E+00           0.24307640E+00
   0.37000000E+00           0.24948530E+00
   0.38000000E+00           0.25603240E+00
   0.39000000E+00           0.26247540E+00
   0.40000000E+00           0.26890180E+00
   0.41000000E+00           0.27506820E+00
   0.42000000E+00           0.28133385E+00
   0.43000000E+00           0.28781590E+00
   0.44000000E+00           0.29404195E+00
   0.45000000E+00           0.30021365E+00
   0.46000000E+00           0.30663090E+00
   0.47000000E+00           0.31270930E+00
   0.48000000E+00           0.31882880E+00
   0.49000000E+00           0.32521245E+00
   0.50000000E+00           0.33092400E+00
   0.51000000E+00           0.33710015E+00
   0.52000000E+00           0.34317560E+00
   0.53000000E+00           0.34935500E+00
   0.54000000E+00           0.35544490E+00
   0.55000000E+00           0.36111240E+00
   0.56000000E+00           0.36717010E+00
   0.57000000E+00           0.37275565E+00
   0.58000000E+00           0.37883725E+00
   0.59000000E+00           0.38451965E+00
   0.60000000E+00           0.39019090E+00
   0.61000000E+00           0.39592130E+00
   0.62000000E+00           0.40176760E+00
   0.63000000E+00           0.40724870E+00
   0.64000000E+00           0.41290690E+00
   0.65000000E+00           0.41854030E+00
   0.66000000E+00           0.42396530E+00
   0.67000000E+00           0.42941570E+00
   0.68000000E+00           0.43511555E+00
   0.69000000E+00           0.44026470E+00
   0.70000000E+00           0.44574085E+00
   0.71000000E+00           0.45098115E+00
   0.72000000E+00           0.45618095E+00
   0.73000000E+00           0.46167455E+00
   0.74000000E+00           0.46655980E+00
   0.75000000E+00           0.47158040E+00
   0.76000000E+00           0.47683735E+00
   0.77000000E+00           0.48188425E+00
   0.78000000E+00           0.48685410E+00
   0.79000000E+00           0.49161290E+00
   0.80000000E+00           0.49672575E+00
   0.81000000E+00           0.50156635E+00
   0.82000000E+00           0.50674430E+00
   0.83000000E+00           0.51151005E+00
   0.84000000E+00           0.51573035E+00
   0.85000000E+00           0.52064215E+00
   0.86000000E+00           0.52544750E+00
   0.87000000E+00           0.52994840E+00
   0.88000000E+00           0.53430085E+00
   0.89000000E+00           0.53903405E+00
   0.90000000E+00           0.54334090E+00
   0.91000000E+00           0.54757185E+00
   0.92000000E+00           0.55166285E+00
   0.93000000E+00           0.55624770E+00
   0.94000000E+00           0.56046785E+00
   0.95000000E+00           0.56491230E+00
   0.96000000E+00           0.56893205E+00
   0.97000000E+00           0.57282670E+00
   0.98000000E+00           0.57688560E+00
   0.99000000E+00           0.58068380E+00
   0.10000000E+01           0.58446755E+00
   0.10100000E+01           0.58863055E+00
   0.10200000E+01           0.59235135E+00
   0.10300000E+01           0.59591255E+00
   0.10400000E+01           0.60015345E+00
   0.10500000E+01           0.60346015E+00
   0.10600000E+01           0.60720810E+00
   0.10700000E+01           0.61022280E+00
   0.10800000E+01           0.61363335E+00
   0.10900000E+01           0.61755250E+00
   0.11000000E+01           0.62038800E+00
   0.11100000E+01           0.62407120E+00
   0.11200000E+01           0.62705665E+00
   0.11300000E+01           0.63065920E+00
   0.11400000E+01           0.63313920E+00
   0.11500000E+01           0.63658840E+00
   0.11600000E+01           0.63974650E+00
   0.11700000E+01           0.64276785E+00
   0.11800000E+01           0.64551010E+00
   0.11900000E+01           0.64825010E+00
   0.12000000E+01           0.65084350E+00
   0.12100000E+01           0.65376705E+00
   0.12200000E+01           0.65654905E+00
   0.12300000E+01           0.65900625E+00
   0.12400000E+01           0.66144710E+00
   0.12500000E+01           0.66396300E+00
   0.12600000E+01           0.66658590E+00
   0.12700000E+01           0.66878150E+00
   0.12800000E+01           0.67140940E+00
   0.12900000E+01           0.67352205E+00
   0.13000000E+01           0.67550615E+00
   0.13100000E+01           0.67766070E+00
   0.13200000E+01           0.68003425E+00
   0.13300000E+01           0.68143575E+00
   0.13400000E+01           0.68342580E+00
   0.13500000E+01           0.68597040E+00
   0.13600000E+01           0.68744770E+00
   0.13700000E+01           0.68917015E+00
   0.13800000E+01           0.69106480E+00
   0.13900000E+01           0.69222495E+00
   0.14000000E+01           0.69390355E+00
   0.14100000E+01           0.69564025E+00
   0.14200000E+01           0.69723640E+00
   0.14300000E+01           0.69843830E+00
   0.14400000E+01           0.69995745E+00
   0.14500000E+01           0.70069445E+00
   0.14600000E+01           0.70197505E+00
   0.14700000E+01           0.70354935E+00
   0.14800000E+01           0.70449970E+00
   0.14900000E+01           0.70554660E+00
   0.15000000E+01           0.70655000E+00
   0.15100000E+01           0.70733770E+00
   0.15200000E+01           0.70860345E+00
   0.15300000E+01           0.70943885E+00
   0.15400000E+01           0.71004430E+00
   0.15500000E+01           0.71087400E+00
   0.15600000E+01           0.71153355E+00
   0.15700000E+01           0.71185385E+00
   0.15800000E+01           0.71208400E+00
   0.15900000E+01           0.71272645E+00
   0.16000000E+01           0.71324835E+00
   0.16100000E+01           0.71352665E+00
   0.16200000E+01           0.71367750E+00
   0.16300000E+01           0.71435645E+00
   0.16400000E+01           0.71419280E+00
   0.16500000E+01           0.71412940E+00
   0.16600000E+01           0.71415085E+00
   0.16700000E+01           0.71405465E+00
   0.16800000E+01           0.71423005E+00
   0.16900000E+01           0.71385060E+00
   0.17000000E+01           0.71369535E+00
   0.17100000E+01           0.71337180E+00
   0.17200000E+01           0.71311160E+00
   0.17300000E+01           0.71283330E+00
   0.17400000E+01           0.71185650E+00
   0.17500000E+01           0.71180400E+00
   0.17600000E+01           0.71084695E+00
   0.17700000E+01           0.71078435E+00
   0.17800000E+01           0.71021345E+00
   0.17900000E+01           0.70918320E+00
   0.18000000E+01           0.70878955E+00
   0.18100000E+01           0.70785720E+00
   0.18200000E+01           0.70665030E+00
   0.18300000E+01           0.70581405E+00
   0.18400000E+01           0.70470780E+00
   0.18500000E+01           0.70374270E+00
   0.18600000E+01           0.70260535E+00
   0.18700000E+01           0.70160260E+00
   0.18800000E+01           0.70066195E+00
   0.18900000E+01           0.69909935E+00
   0.19000000E+01           0.69786240E+00
   0.19100000E+01           0.69645225E+00
   0.19200000E+01           0.69520690E+00
   0.19300000E+01           0.69342055E+00
   0.19400000E+01           0.69251310E+00
   0.19500000E+01           0.69078735E+00
   0.19600000E+01           0.68875785E+00
   0.19700000E+01           0.68718480E+00
   0.19800000E+01           0.68530800E+00
   0.19900000E+01           0.68401105E+00
   0.20000000E+01           0.34105830E+00
