 #written on 12Sep2024 at 14:06:40 
 #----------------- MONTECARLO -------------------#
 #        M                      P(M)             #
 #------------------------------------------------#
 #T=     1.0000
  -0.60000000E+01           0.00000000E+00
  -0.59900000E+01           0.00000000E+00
  -0.59800000E+01           0.00000000E+00
  -0.59700000E+01           0.00000000E+00
  -0.59600000E+01           0.00000000E+00
  -0.59500000E+01           0.00000000E+00
  -0.59400000E+01           0.00000000E+00
  -0.59300000E+01           0.00000000E+00
  -0.59200000E+01           0.00000000E+00
  -0.59100000E+01           0.00000000E+00
  -0.59000000E+01           0.00000000E+00
  -0.58900000E+01           0.00000000E+00
  -0.58800000E+01           0.00000000E+00
  -0.58700000E+01           0.00000000E+00
  -0.58600000E+01           0.00000000E+00
  -0.58500000E+01           0.00000000E+00
  -0.58400000E+01           0.00000000E+00
  -0.58300000E+01           0.00000000E+00
  -0.58200000E+01           0.00000000E+00
  -0.58100000E+01           0.00000000E+00
  -0.58000000E+01           0.00000000E+00
  -0.57900000E+01           0.00000000E+00
  -0.57800000E+01           0.00000000E+00
  -0.57700000E+01           0.00000000E+00
  -0.57600000E+01           0.00000000E+00
  -0.57500000E+01           0.00000000E+00
  -0.57400000E+01           0.00000000E+00
  -0.57300000E+01           0.00000000E+00
  -0.57200000E+01           0.00000000E+00
  -0.57100000E+01           0.00000000E+00
  -0.57000000E+01           0.00000000E+00
  -0.56900000E+01           0.00000000E+00
  -0.56800000E+01           0.00000000E+00
  -0.56700000E+01           0.00000000E+00
  -0.56600000E+01           0.00000000E+00
  -0.56500000E+01           0.00000000E+00
  -0.56400000E+01           0.00000000E+00
  -0.56300000E+01           0.00000000E+00
  -0.56200000E+01           0.00000000E+00
  -0.56100000E+01           0.00000000E+00
  -0.56000000E+01           0.00000000E+00
  -0.55900000E+01           0.00000000E+00
  -0.55800000E+01           0.00000000E+00
  -0.55700000E+01           0.00000000E+00
  -0.55600000E+01           0.00000000E+00
  -0.55500000E+01           0.00000000E+00
  -0.55400000E+01           0.00000000E+00
  -0.55300000E+01           0.00000000E+00
  -0.55200000E+01           0.00000000E+00
  -0.55100000E+01           0.00000000E+00
  -0.55000000E+01           0.00000000E+00
  -0.54900000E+01           0.00000000E+00
  -0.54800000E+01           0.00000000E+00
  -0.54700000E+01           0.00000000E+00
  -0.54600000E+01           0.00000000E+00
  -0.54500000E+01           0.00000000E+00
  -0.54400000E+01           0.00000000E+00
  -0.54300000E+01           0.00000000E+00
  -0.54200000E+01           0.00000000E+00
  -0.54100000E+01           0.00000000E+00
  -0.54000000E+01           0.00000000E+00
  -0.53900000E+01           0.00000000E+00
  -0.53800000E+01           0.00000000E+00
  -0.53700000E+01           0.00000000E+00
  -0.53600000E+01           0.00000000E+00
  -0.53500000E+01           0.00000000E+00
  -0.53400000E+01           0.00000000E+00
  -0.53300000E+01           0.00000000E+00
  -0.53200000E+01           0.00000000E+00
  -0.53100000E+01           0.00000000E+00
  -0.53000000E+01           0.00000000E+00
  -0.52900000E+01           0.00000000E+00
  -0.52800000E+01           0.00000000E+00
  -0.52700000E+01           0.00000000E+00
  -0.52600000E+01           0.00000000E+00
  -0.52500000E+01           0.00000000E+00
  -0.52400000E+01           0.00000000E+00
  -0.52300000E+01           0.00000000E+00
  -0.52200000E+01           0.00000000E+00
  -0.52100000E+01           0.00000000E+00
  -0.52000000E+01           0.00000000E+00
  -0.51900000E+01           0.00000000E+00
  -0.51800000E+01           0.00000000E+00
  -0.51700000E+01           0.00000000E+00
  -0.51600000E+01           0.00000000E+00
  -0.51500000E+01           0.00000000E+00
  -0.51400000E+01           0.00000000E+00
  -0.51300000E+01           0.00000000E+00
  -0.51200000E+01           0.00000000E+00
  -0.51100000E+01           0.00000000E+00
  -0.51000000E+01           0.00000000E+00
  -0.50900000E+01           0.00000000E+00
  -0.50800000E+01           0.00000000E+00
  -0.50700000E+01           0.00000000E+00
  -0.50600000E+01           0.00000000E+00
  -0.50500000E+01           0.00000000E+00
  -0.50400000E+01           0.00000000E+00
  -0.50300000E+01           0.00000000E+00
  -0.50200000E+01           0.00000000E+00
  -0.50100000E+01           0.00000000E+00
  -0.50000000E+01           0.00000000E+00
  -0.49900000E+01           0.00000000E+00
  -0.49800000E+01           0.00000000E+00
  -0.49700000E+01           0.00000000E+00
  -0.49600000E+01           0.00000000E+00
  -0.49500000E+01           0.00000000E+00
  -0.49400000E+01           0.00000000E+00
  -0.49300000E+01           0.00000000E+00
  -0.49200000E+01           0.00000000E+00
  -0.49100000E+01           0.00000000E+00
  -0.49000000E+01           0.00000000E+00
  -0.48900000E+01           0.00000000E+00
  -0.48800000E+01           0.00000000E+00
  -0.48700000E+01           0.00000000E+00
  -0.48600000E+01           0.00000000E+00
  -0.48500000E+01           0.00000000E+00
  -0.48400000E+01           0.00000000E+00
  -0.48300000E+01           0.00000000E+00
  -0.48200000E+01           0.00000000E+00
  -0.48100000E+01           0.00000000E+00
  -0.48000000E+01           0.00000000E+00
  -0.47900000E+01           0.00000000E+00
  -0.47800000E+01           0.00000000E+00
  -0.47700000E+01           0.00000000E+00
  -0.47600000E+01           0.00000000E+00
  -0.47500000E+01           0.00000000E+00
  -0.47400000E+01           0.00000000E+00
  -0.47300000E+01           0.00000000E+00
  -0.47200000E+01           0.00000000E+00
  -0.47100000E+01           0.00000000E+00
  -0.47000000E+01           0.00000000E+00
  -0.46900000E+01           0.00000000E+00
  -0.46800000E+01           0.00000000E+00
  -0.46700000E+01           0.00000000E+00
  -0.46600000E+01           0.00000000E+00
  -0.46500000E+01           0.00000000E+00
  -0.46400000E+01           0.00000000E+00
  -0.46300000E+01           0.00000000E+00
  -0.46200000E+01           0.00000000E+00
  -0.46100000E+01           0.00000000E+00
  -0.46000000E+01           0.00000000E+00
  -0.45900000E+01           0.00000000E+00
  -0.45800000E+01           0.00000000E+00
  -0.45700000E+01           0.00000000E+00
  -0.45600000E+01           0.00000000E+00
  -0.45500000E+01           0.00000000E+00
  -0.45400000E+01           0.00000000E+00
  -0.45300000E+01           0.00000000E+00
  -0.45200000E+01           0.00000000E+00
  -0.45100000E+01           0.00000000E+00
  -0.45000000E+01           0.00000000E+00
  -0.44900000E+01           0.00000000E+00
  -0.44800000E+01           0.00000000E+00
  -0.44700000E+01           0.00000000E+00
  -0.44600000E+01           0.00000000E+00
  -0.44500000E+01           0.00000000E+00
  -0.44400000E+01           0.00000000E+00
  -0.44300000E+01           0.00000000E+00
  -0.44200000E+01           0.00000000E+00
  -0.44100000E+01           0.00000000E+00
  -0.44000000E+01           0.00000000E+00
  -0.43900000E+01           0.00000000E+00
  -0.43800000E+01           0.00000000E+00
  -0.43700000E+01           0.00000000E+00
  -0.43600000E+01           0.00000000E+00
  -0.43500000E+01           0.00000000E+00
  -0.43400000E+01           0.00000000E+00
  -0.43300000E+01           0.00000000E+00
  -0.43200000E+01           0.00000000E+00
  -0.43100000E+01           0.00000000E+00
  -0.43000000E+01           0.00000000E+00
  -0.42900000E+01           0.00000000E+00
  -0.42800000E+01           0.00000000E+00
  -0.42700000E+01           0.00000000E+00
  -0.42600000E+01           0.00000000E+00
  -0.42500000E+01           0.00000000E+00
  -0.42400000E+01           0.00000000E+00
  -0.42300000E+01           0.00000000E+00
  -0.42200000E+01           0.00000000E+00
  -0.42100000E+01           0.00000000E+00
  -0.42000000E+01           0.00000000E+00
  -0.41900000E+01           0.00000000E+00
  -0.41800000E+01           0.00000000E+00
  -0.41700000E+01           0.00000000E+00
  -0.41600000E+01           0.00000000E+00
  -0.41500000E+01           0.00000000E+00
  -0.41400000E+01           0.00000000E+00
  -0.41300000E+01           0.00000000E+00
  -0.41200000E+01           0.00000000E+00
  -0.41100000E+01           0.00000000E+00
  -0.41000000E+01           0.00000000E+00
  -0.40900000E+01           0.00000000E+00
  -0.40800000E+01           0.00000000E+00
  -0.40700000E+01           0.00000000E+00
  -0.40600000E+01           0.00000000E+00
  -0.40500000E+01           0.00000000E+00
  -0.40400000E+01           0.00000000E+00
  -0.40300000E+01           0.00000000E+00
  -0.40200000E+01           0.00000000E+00
  -0.40100000E+01           0.00000000E+00
  -0.40000000E+01           0.00000000E+00
  -0.39900000E+01           0.00000000E+00
  -0.39800000E+01           0.00000000E+00
  -0.39700000E+01           0.00000000E+00
  -0.39600000E+01           0.00000000E+00
  -0.39500000E+01           0.00000000E+00
  -0.39400000E+01           0.00000000E+00
  -0.39300000E+01           0.00000000E+00
  -0.39200000E+01           0.00000000E+00
  -0.39100000E+01           0.00000000E+00
  -0.39000000E+01           0.00000000E+00
  -0.38900000E+01           0.00000000E+00
  -0.38800000E+01           0.00000000E+00
  -0.38700000E+01           0.00000000E+00
  -0.38600000E+01           0.00000000E+00
  -0.38500000E+01           0.00000000E+00
  -0.38400000E+01           0.00000000E+00
  -0.38300000E+01           0.00000000E+00
  -0.38200000E+01           0.00000000E+00
  -0.38100000E+01           0.00000000E+00
  -0.38000000E+01           0.00000000E+00
  -0.37900000E+01           0.00000000E+00
  -0.37800000E+01           0.00000000E+00
  -0.37700000E+01           0.00000000E+00
  -0.37600000E+01           0.00000000E+00
  -0.37500000E+01           0.00000000E+00
  -0.37400000E+01           0.00000000E+00
  -0.37300000E+01           0.00000000E+00
  -0.37200000E+01           0.00000000E+00
  -0.37100000E+01           0.00000000E+00
  -0.37000000E+01           0.00000000E+00
  -0.36900000E+01           0.00000000E+00
  -0.36800000E+01           0.00000000E+00
  -0.36700000E+01           0.00000000E+00
  -0.36600000E+01           0.00000000E+00
  -0.36500000E+01           0.00000000E+00
  -0.36400000E+01           0.00000000E+00
  -0.36300000E+01           0.00000000E+00
  -0.36200000E+01           0.00000000E+00
  -0.36100000E+01           0.00000000E+00
  -0.36000000E+01           0.00000000E+00
  -0.35900000E+01           0.00000000E+00
  -0.35800000E+01           0.00000000E+00
  -0.35700000E+01           0.00000000E+00
  -0.35600000E+01           0.00000000E+00
  -0.35500000E+01           0.00000000E+00
  -0.35400000E+01           0.00000000E+00
  -0.35300000E+01           0.00000000E+00
  -0.35200000E+01           0.00000000E+00
  -0.35100000E+01           0.00000000E+00
  -0.35000000E+01           0.00000000E+00
  -0.34900000E+01           0.00000000E+00
  -0.34800000E+01           0.00000000E+00
  -0.34700000E+01           0.00000000E+00
  -0.34600000E+01           0.00000000E+00
  -0.34500000E+01           0.00000000E+00
  -0.34400000E+01           0.00000000E+00
  -0.34300000E+01           0.00000000E+00
  -0.34200000E+01           0.00000000E+00
  -0.34100000E+01           0.00000000E+00
  -0.34000000E+01           0.00000000E+00
  -0.33900000E+01           0.00000000E+00
  -0.33800000E+01           0.00000000E+00
  -0.33700000E+01           0.00000000E+00
  -0.33600000E+01           0.00000000E+00
  -0.33500000E+01           0.00000000E+00
  -0.33400000E+01           0.00000000E+00
  -0.33300000E+01           0.00000000E+00
  -0.33200000E+01           0.00000000E+00
  -0.33100000E+01           0.00000000E+00
  -0.33000000E+01           0.00000000E+00
  -0.32900000E+01           0.00000000E+00
  -0.32800000E+01           0.00000000E+00
  -0.32700000E+01           0.00000000E+00
  -0.32600000E+01           0.00000000E+00
  -0.32500000E+01           0.00000000E+00
  -0.32400000E+01           0.00000000E+00
  -0.32300000E+01           0.00000000E+00
  -0.32200000E+01           0.00000000E+00
  -0.32100000E+01           0.00000000E+00
  -0.32000000E+01           0.00000000E+00
  -0.31900000E+01           0.00000000E+00
  -0.31800000E+01           0.00000000E+00
  -0.31700000E+01           0.00000000E+00
  -0.31600000E+01           0.00000000E+00
  -0.31500000E+01           0.00000000E+00
  -0.31400000E+01           0.00000000E+00
  -0.31300000E+01           0.00000000E+00
  -0.31200000E+01           0.00000000E+00
  -0.31100000E+01           0.00000000E+00
  -0.31000000E+01           0.00000000E+00
  -0.30900000E+01           0.00000000E+00
  -0.30800000E+01           0.00000000E+00
  -0.30700000E+01           0.00000000E+00
  -0.30600000E+01           0.00000000E+00
  -0.30500000E+01           0.00000000E+00
  -0.30400000E+01           0.00000000E+00
  -0.30300000E+01           0.00000000E+00
  -0.30200000E+01           0.00000000E+00
  -0.30100000E+01           0.00000000E+00
  -0.30000000E+01           0.00000000E+00
  -0.29900000E+01           0.00000000E+00
  -0.29800000E+01           0.00000000E+00
  -0.29700000E+01           0.00000000E+00
  -0.29600000E+01           0.00000000E+00
  -0.29500000E+01           0.00000000E+00
  -0.29400000E+01           0.00000000E+00
  -0.29300000E+01           0.00000000E+00
  -0.29200000E+01           0.00000000E+00
  -0.29100000E+01           0.00000000E+00
  -0.29000000E+01           0.00000000E+00
  -0.28900000E+01           0.00000000E+00
  -0.28800000E+01           0.00000000E+00
  -0.28700000E+01           0.00000000E+00
  -0.28600000E+01           0.00000000E+00
  -0.28500000E+01           0.00000000E+00
  -0.28400000E+01           0.00000000E+00
  -0.28300000E+01           0.00000000E+00
  -0.28200000E+01           0.00000000E+00
  -0.28100000E+01           0.00000000E+00
  -0.28000000E+01           0.00000000E+00
  -0.27900000E+01           0.00000000E+00
  -0.27800000E+01           0.00000000E+00
  -0.27700000E+01           0.00000000E+00
  -0.27600000E+01           0.00000000E+00
  -0.27500000E+01           0.00000000E+00
  -0.27400000E+01           0.00000000E+00
  -0.27300000E+01           0.00000000E+00
  -0.27200000E+01           0.00000000E+00
  -0.27100000E+01           0.00000000E+00
  -0.27000000E+01           0.00000000E+00
  -0.26900000E+01           0.00000000E+00
  -0.26800000E+01           0.00000000E+00
  -0.26700000E+01           0.00000000E+00
  -0.26600000E+01           0.00000000E+00
  -0.26500000E+01           0.00000000E+00
  -0.26400000E+01           0.00000000E+00
  -0.26300000E+01           0.00000000E+00
  -0.26200000E+01           0.00000000E+00
  -0.26100000E+01           0.00000000E+00
  -0.26000000E+01           0.00000000E+00
  -0.25900000E+01           0.00000000E+00
  -0.25800000E+01           0.00000000E+00
  -0.25700000E+01           0.00000000E+00
  -0.25600000E+01           0.00000000E+00
  -0.25500000E+01           0.00000000E+00
  -0.25400000E+01           0.00000000E+00
  -0.25300000E+01           0.00000000E+00
  -0.25200000E+01           0.00000000E+00
  -0.25100000E+01           0.00000000E+00
  -0.25000000E+01           0.00000000E+00
  -0.24900000E+01           0.00000000E+00
  -0.24800000E+01           0.00000000E+00
  -0.24700000E+01           0.00000000E+00
  -0.24600000E+01           0.00000000E+00
  -0.24500000E+01           0.00000000E+00
  -0.24400000E+01           0.00000000E+00
  -0.24300000E+01           0.00000000E+00
  -0.24200000E+01           0.00000000E+00
  -0.24100000E+01           0.00000000E+00
  -0.24000000E+01           0.00000000E+00
  -0.23900000E+01           0.00000000E+00
  -0.23800000E+01           0.00000000E+00
  -0.23700000E+01           0.00000000E+00
  -0.23600000E+01           0.00000000E+00
  -0.23500000E+01           0.00000000E+00
  -0.23400000E+01           0.00000000E+00
  -0.23300000E+01           0.00000000E+00
  -0.23200000E+01           0.00000000E+00
  -0.23100000E+01           0.00000000E+00
  -0.23000000E+01           0.00000000E+00
  -0.22900000E+01           0.00000000E+00
  -0.22800000E+01           0.00000000E+00
  -0.22700000E+01           0.00000000E+00
  -0.22600000E+01           0.00000000E+00
  -0.22500000E+01           0.00000000E+00
  -0.22400000E+01           0.00000000E+00
  -0.22300000E+01           0.00000000E+00
  -0.22200000E+01           0.00000000E+00
  -0.22100000E+01           0.00000000E+00
  -0.22000000E+01           0.00000000E+00
  -0.21900000E+01           0.00000000E+00
  -0.21800000E+01           0.00000000E+00
  -0.21700000E+01           0.00000000E+00
  -0.21600000E+01           0.00000000E+00
  -0.21500000E+01           0.00000000E+00
  -0.21400000E+01           0.00000000E+00
  -0.21300000E+01           0.00000000E+00
  -0.21200000E+01           0.00000000E+00
  -0.21100000E+01           0.00000000E+00
  -0.21000000E+01           0.00000000E+00
  -0.20900000E+01           0.00000000E+00
  -0.20800000E+01           0.00000000E+00
  -0.20700000E+01           0.00000000E+00
  -0.20600000E+01           0.00000000E+00
  -0.20500000E+01           0.00000000E+00
  -0.20400000E+01           0.00000000E+00
  -0.20300000E+01           0.00000000E+00
  -0.20200000E+01           0.00000000E+00
  -0.20100000E+01           0.00000000E+00
  -0.20000000E+01           0.00000000E+00
  -0.19900000E+01           0.00000000E+00
  -0.19800000E+01           0.00000000E+00
  -0.19700000E+01           0.00000000E+00
  -0.19600000E+01           0.00000000E+00
  -0.19500000E+01           0.00000000E+00
  -0.19400000E+01           0.00000000E+00
  -0.19300000E+01           0.00000000E+00
  -0.19200000E+01           0.00000000E+00
  -0.19100000E+01           0.00000000E+00
  -0.19000000E+01           0.00000000E+00
  -0.18900000E+01           0.00000000E+00
  -0.18800000E+01           0.00000000E+00
  -0.18700000E+01           0.00000000E+00
  -0.18600000E+01           0.00000000E+00
  -0.18500000E+01           0.00000000E+00
  -0.18400000E+01           0.00000000E+00
  -0.18300000E+01           0.00000000E+00
  -0.18200000E+01           0.00000000E+00
  -0.18100000E+01           0.00000000E+00
  -0.18000000E+01           0.00000000E+00
  -0.17900000E+01           0.00000000E+00
  -0.17800000E+01           0.00000000E+00
  -0.17700000E+01           0.00000000E+00
  -0.17600000E+01           0.00000000E+00
  -0.17500000E+01           0.00000000E+00
  -0.17400000E+01           0.00000000E+00
  -0.17300000E+01           0.00000000E+00
  -0.17200000E+01           0.00000000E+00
  -0.17100000E+01           0.00000000E+00
  -0.17000000E+01           0.00000000E+00
  -0.16900000E+01           0.00000000E+00
  -0.16800000E+01           0.00000000E+00
  -0.16700000E+01           0.00000000E+00
  -0.16600000E+01           0.00000000E+00
  -0.16500000E+01           0.00000000E+00
  -0.16400000E+01           0.00000000E+00
  -0.16300000E+01           0.00000000E+00
  -0.16200000E+01           0.00000000E+00
  -0.16100000E+01           0.00000000E+00
  -0.16000000E+01           0.00000000E+00
  -0.15900000E+01           0.00000000E+00
  -0.15800000E+01           0.00000000E+00
  -0.15700000E+01           0.00000000E+00
  -0.15600000E+01           0.00000000E+00
  -0.15500000E+01           0.00000000E+00
  -0.15400000E+01           0.00000000E+00
  -0.15300000E+01           0.00000000E+00
  -0.15200000E+01           0.00000000E+00
  -0.15100000E+01           0.00000000E+00
  -0.15000000E+01           0.00000000E+00
  -0.14900000E+01           0.00000000E+00
  -0.14800000E+01           0.00000000E+00
  -0.14700000E+01           0.00000000E+00
  -0.14600000E+01           0.00000000E+00
  -0.14500000E+01           0.00000000E+00
  -0.14400000E+01           0.00000000E+00
  -0.14300000E+01           0.00000000E+00
  -0.14200000E+01           0.00000000E+00
  -0.14100000E+01           0.00000000E+00
  -0.14000000E+01           0.00000000E+00
  -0.13900000E+01           0.00000000E+00
  -0.13800000E+01           0.00000000E+00
  -0.13700000E+01           0.00000000E+00
  -0.13600000E+01           0.00000000E+00
  -0.13500000E+01           0.00000000E+00
  -0.13400000E+01           0.00000000E+00
  -0.13300000E+01           0.00000000E+00
  -0.13200000E+01           0.00000000E+00
  -0.13100000E+01           0.00000000E+00
  -0.13000000E+01           0.00000000E+00
  -0.12900000E+01           0.00000000E+00
  -0.12800000E+01           0.00000000E+00
  -0.12700000E+01           0.00000000E+00
  -0.12600000E+01           0.00000000E+00
  -0.12500000E+01           0.00000000E+00
  -0.12400000E+01           0.00000000E+00
  -0.12300000E+01           0.00000000E+00
  -0.12200000E+01           0.00000000E+00
  -0.12100000E+01           0.00000000E+00
  -0.12000000E+01           0.00000000E+00
  -0.11900000E+01           0.00000000E+00
  -0.11800000E+01           0.00000000E+00
  -0.11700000E+01           0.00000000E+00
  -0.11600000E+01           0.00000000E+00
  -0.11500000E+01           0.00000000E+00
  -0.11400000E+01           0.00000000E+00
  -0.11300000E+01           0.00000000E+00
  -0.11200000E+01           0.00000000E+00
  -0.11100000E+01           0.00000000E+00
  -0.11000000E+01           0.00000000E+00
  -0.10900000E+01           0.00000000E+00
  -0.10800000E+01           0.00000000E+00
  -0.10700000E+01           0.00000000E+00
  -0.10600000E+01           0.00000000E+00
  -0.10500000E+01           0.00000000E+00
  -0.10400000E+01           0.00000000E+00
  -0.10300000E+01           0.00000000E+00
  -0.10200000E+01           0.00000000E+00
  -0.10100000E+01           0.00000000E+00
  -0.10000000E+01           0.00000000E+00
  -0.99000000E+00           0.00000000E+00
  -0.98000000E+00           0.00000000E+00
  -0.97000000E+00           0.00000000E+00
  -0.96000000E+00           0.00000000E+00
  -0.95000000E+00           0.00000000E+00
  -0.94000000E+00           0.00000000E+00
  -0.93000000E+00           0.00000000E+00
  -0.92000000E+00           0.00000000E+00
  -0.91000000E+00           0.00000000E+00
  -0.90000000E+00           0.00000000E+00
  -0.89000000E+00           0.00000000E+00
  -0.88000000E+00           0.00000000E+00
  -0.87000000E+00           0.00000000E+00
  -0.86000000E+00           0.00000000E+00
  -0.85000000E+00           0.00000000E+00
  -0.84000000E+00           0.00000000E+00
  -0.83000000E+00           0.00000000E+00
  -0.82000000E+00           0.00000000E+00
  -0.81000000E+00           0.00000000E+00
  -0.80000000E+00           0.00000000E+00
  -0.79000000E+00           0.00000000E+00
  -0.78000000E+00           0.00000000E+00
  -0.77000000E+00           0.00000000E+00
  -0.76000000E+00           0.00000000E+00
  -0.75000000E+00           0.00000000E+00
  -0.74000000E+00           0.00000000E+00
  -0.73000000E+00           0.00000000E+00
  -0.72000000E+00           0.00000000E+00
  -0.71000000E+00           0.00000000E+00
  -0.70000000E+00           0.00000000E+00
  -0.69000000E+00           0.00000000E+00
  -0.68000000E+00           0.00000000E+00
  -0.67000000E+00           0.00000000E+00
  -0.66000000E+00           0.00000000E+00
  -0.65000000E+00           0.00000000E+00
  -0.64000000E+00           0.00000000E+00
  -0.63000000E+00           0.00000000E+00
  -0.62000000E+00           0.00000000E+00
  -0.61000000E+00           0.00000000E+00
  -0.60000000E+00           0.00000000E+00
  -0.59000000E+00           0.00000000E+00
  -0.58000000E+00           0.00000000E+00
  -0.57000000E+00           0.00000000E+00
  -0.56000000E+00           0.00000000E+00
  -0.55000000E+00           0.00000000E+00
  -0.54000000E+00           0.00000000E+00
  -0.53000000E+00           0.00000000E+00
  -0.52000000E+00           0.00000000E+00
  -0.51000000E+00           0.00000000E+00
  -0.50000000E+00           0.00000000E+00
  -0.49000000E+00           0.00000000E+00
  -0.48000000E+00           0.00000000E+00
  -0.47000000E+00           0.00000000E+00
  -0.46000000E+00           0.00000000E+00
  -0.45000000E+00           0.00000000E+00
  -0.44000000E+00           0.00000000E+00
  -0.43000000E+00           0.00000000E+00
  -0.42000000E+00           0.00000000E+00
  -0.41000000E+00           0.00000000E+00
  -0.40000000E+00           0.00000000E+00
  -0.39000000E+00           0.00000000E+00
  -0.38000000E+00           0.00000000E+00
  -0.37000000E+00           0.00000000E+00
  -0.36000000E+00           0.00000000E+00
  -0.35000000E+00           0.00000000E+00
  -0.34000000E+00           0.00000000E+00
  -0.33000000E+00           0.00000000E+00
  -0.32000000E+00           0.00000000E+00
  -0.31000000E+00           0.00000000E+00
  -0.30000000E+00           0.00000000E+00
  -0.29000000E+00           0.00000000E+00
  -0.28000000E+00           0.00000000E+00
  -0.27000000E+00           0.00000000E+00
  -0.26000000E+00           0.00000000E+00
  -0.25000000E+00           0.00000000E+00
  -0.24000000E+00           0.00000000E+00
  -0.23000000E+00           0.00000000E+00
  -0.22000000E+00           0.00000000E+00
  -0.21000000E+00           0.00000000E+00
  -0.20000000E+00           0.00000000E+00
  -0.19000000E+00           0.00000000E+00
  -0.18000000E+00           0.00000000E+00
  -0.17000000E+00           0.00000000E+00
  -0.16000000E+00           0.00000000E+00
  -0.15000000E+00           0.00000000E+00
  -0.14000000E+00           0.00000000E+00
  -0.13000000E+00           0.00000000E+00
  -0.12000000E+00           0.00000000E+00
  -0.11000000E+00           0.00000000E+00
  -0.10000000E+00           0.00000000E+00
  -0.90000000E-01           0.00000000E+00
  -0.80000000E-01           0.00000000E+00
  -0.70000000E-01           0.00000000E+00
  -0.60000000E-01           0.00000000E+00
  -0.50000000E-01           0.00000000E+00
  -0.40000000E-01           0.00000000E+00
  -0.30000000E-01           0.00000000E+00
  -0.20000000E-01           0.00000000E+00
  -0.10000000E-01           0.00000000E+00
   0.00000000E+00           0.00000000E+00
   0.10000000E-01           0.00000000E+00
   0.20000000E-01           0.00000000E+00
   0.30000000E-01           0.00000000E+00
   0.40000000E-01           0.00000000E+00
   0.50000000E-01           0.00000000E+00
   0.60000000E-01           0.00000000E+00
   0.70000000E-01           0.00000000E+00
   0.80000000E-01           0.00000000E+00
   0.90000000E-01           0.00000000E+00
   0.10000000E+00           0.00000000E+00
   0.11000000E+00           0.00000000E+00
   0.12000000E+00           0.00000000E+00
   0.13000000E+00           0.00000000E+00
   0.14000000E+00           0.00000000E+00
   0.15000000E+00           0.00000000E+00
   0.16000000E+00           0.00000000E+00
   0.17000000E+00           0.00000000E+00
   0.18000000E+00           0.00000000E+00
   0.19000000E+00           0.00000000E+00
   0.20000000E+00           0.00000000E+00
   0.21000000E+00           0.00000000E+00
   0.22000000E+00           0.00000000E+00
   0.23000000E+00           0.00000000E+00
   0.24000000E+00           0.00000000E+00
   0.25000000E+00           0.00000000E+00
   0.26000000E+00           0.00000000E+00
   0.27000000E+00           0.00000000E+00
   0.28000000E+00           0.00000000E+00
   0.29000000E+00           0.00000000E+00
   0.30000000E+00           0.00000000E+00
   0.31000000E+00           0.00000000E+00
   0.32000000E+00           0.00000000E+00
   0.33000000E+00           0.00000000E+00
   0.34000000E+00           0.00000000E+00
   0.35000000E+00           0.00000000E+00
   0.36000000E+00           0.00000000E+00
   0.37000000E+00           0.00000000E+00
   0.38000000E+00           0.00000000E+00
   0.39000000E+00           0.00000000E+00
   0.40000000E+00           0.00000000E+00
   0.41000000E+00           0.00000000E+00
   0.42000000E+00           0.00000000E+00
   0.43000000E+00           0.00000000E+00
   0.44000000E+00           0.00000000E+00
   0.45000000E+00           0.00000000E+00
   0.46000000E+00           0.00000000E+00
   0.47000000E+00           0.00000000E+00
   0.48000000E+00           0.00000000E+00
   0.49000000E+00           0.00000000E+00
   0.50000000E+00           0.00000000E+00
   0.51000000E+00           0.00000000E+00
   0.52000000E+00           0.00000000E+00
   0.53000000E+00           0.00000000E+00
   0.54000000E+00           0.00000000E+00
   0.55000000E+00           0.00000000E+00
   0.56000000E+00           0.00000000E+00
   0.57000000E+00           0.00000000E+00
   0.58000000E+00           0.00000000E+00
   0.59000000E+00           0.00000000E+00
   0.60000000E+00           0.00000000E+00
   0.61000000E+00           0.00000000E+00
   0.62000000E+00           0.00000000E+00
   0.63000000E+00           0.00000000E+00
   0.64000000E+00           0.00000000E+00
   0.65000000E+00           0.00000000E+00
   0.66000000E+00           0.00000000E+00
   0.67000000E+00           0.00000000E+00
   0.68000000E+00           0.00000000E+00
   0.69000000E+00           0.00000000E+00
   0.70000000E+00           0.00000000E+00
   0.71000000E+00           0.00000000E+00
   0.72000000E+00           0.00000000E+00
   0.73000000E+00           0.00000000E+00
   0.74000000E+00           0.00000000E+00
   0.75000000E+00           0.00000000E+00
   0.76000000E+00           0.00000000E+00
   0.77000000E+00           0.00000000E+00
   0.78000000E+00           0.00000000E+00
   0.79000000E+00           0.00000000E+00
   0.80000000E+00           0.00000000E+00
   0.81000000E+00           0.00000000E+00
   0.82000000E+00           0.00000000E+00
   0.83000000E+00           0.00000000E+00
   0.84000000E+00           0.00000000E+00
   0.85000000E+00           0.00000000E+00
   0.86000000E+00           0.00000000E+00
   0.87000000E+00           0.00000000E+00
   0.88000000E+00           0.00000000E+00
   0.89000000E+00           0.00000000E+00
   0.90000000E+00           0.00000000E+00
   0.91000000E+00           0.00000000E+00
   0.92000000E+00           0.00000000E+00
   0.93000000E+00           0.00000000E+00
   0.94000000E+00           0.00000000E+00
   0.95000000E+00           0.00000000E+00
   0.96000000E+00           0.00000000E+00
   0.97000000E+00           0.00000000E+00
   0.98000000E+00           0.00000000E+00
   0.99000000E+00           0.00000000E+00
   0.10000000E+01           0.00000000E+00
   0.10100000E+01           0.00000000E+00
   0.10200000E+01           0.00000000E+00
   0.10300000E+01           0.00000000E+00
   0.10400000E+01           0.00000000E+00
   0.10500000E+01           0.00000000E+00
   0.10600000E+01           0.00000000E+00
   0.10700000E+01           0.00000000E+00
   0.10800000E+01           0.00000000E+00
   0.10900000E+01           0.00000000E+00
   0.11000000E+01           0.00000000E+00
   0.11100000E+01           0.00000000E+00
   0.11200000E+01           0.00000000E+00
   0.11300000E+01           0.00000000E+00
   0.11400000E+01           0.00000000E+00
   0.11500000E+01           0.00000000E+00
   0.11600000E+01           0.00000000E+00
   0.11700000E+01           0.00000000E+00
   0.11800000E+01           0.00000000E+00
   0.11900000E+01           0.00000000E+00
   0.12000000E+01           0.00000000E+00
   0.12100000E+01           0.00000000E+00
   0.12200000E+01           0.00000000E+00
   0.12300000E+01           0.00000000E+00
   0.12400000E+01           0.00000000E+00
   0.12500000E+01           0.00000000E+00
   0.12600000E+01           0.00000000E+00
   0.12700000E+01           0.00000000E+00
   0.12800000E+01           0.00000000E+00
   0.12900000E+01           0.00000000E+00
   0.13000000E+01           0.00000000E+00
   0.13100000E+01           0.00000000E+00
   0.13200000E+01           0.00000000E+00
   0.13300000E+01           0.00000000E+00
   0.13400000E+01           0.00000000E+00
   0.13500000E+01           0.00000000E+00
   0.13600000E+01           0.00000000E+00
   0.13700000E+01           0.00000000E+00
   0.13800000E+01           0.00000000E+00
   0.13900000E+01           0.00000000E+00
   0.14000000E+01           0.00000000E+00
   0.14100000E+01           0.00000000E+00
   0.14200000E+01           0.00000000E+00
   0.14300000E+01           0.00000000E+00
   0.14400000E+01           0.00000000E+00
   0.14500000E+01           0.00000000E+00
   0.14600000E+01           0.00000000E+00
   0.14700000E+01           0.00000000E+00
   0.14800000E+01           0.00000000E+00
   0.14900000E+01           0.00000000E+00
   0.15000000E+01           0.00000000E+00
   0.15100000E+01           0.00000000E+00
   0.15200000E+01           0.00000000E+00
   0.15300000E+01           0.00000000E+00
   0.15400000E+01           0.00000000E+00
   0.15500000E+01           0.00000000E+00
   0.15600000E+01           0.00000000E+00
   0.15700000E+01           0.00000000E+00
   0.15800000E+01           0.00000000E+00
   0.15900000E+01           0.00000000E+00
   0.16000000E+01           0.00000000E+00
   0.16100000E+01           0.00000000E+00
   0.16200000E+01           0.00000000E+00
   0.16300000E+01           0.00000000E+00
   0.16400000E+01           0.00000000E+00
   0.16500000E+01           0.00000000E+00
   0.16600000E+01           0.00000000E+00
   0.16700000E+01           0.00000000E+00
   0.16800000E+01           0.00000000E+00
   0.16900000E+01           0.00000000E+00
   0.17000000E+01           0.00000000E+00
   0.17100000E+01           0.00000000E+00
   0.17200000E+01           0.00000000E+00
   0.17300000E+01           0.00000000E+00
   0.17400000E+01           0.00000000E+00
   0.17500000E+01           0.00000000E+00
   0.17600000E+01           0.00000000E+00
   0.17700000E+01           0.00000000E+00
   0.17800000E+01           0.00000000E+00
   0.17900000E+01           0.00000000E+00
   0.18000000E+01           0.00000000E+00
   0.18100000E+01           0.00000000E+00
   0.18200000E+01           0.00000000E+00
   0.18300000E+01           0.00000000E+00
   0.18400000E+01           0.00000000E+00
   0.18500000E+01           0.00000000E+00
   0.18600000E+01           0.00000000E+00
   0.18700000E+01           0.00000000E+00
   0.18800000E+01           0.00000000E+00
   0.18900000E+01           0.00000000E+00
   0.19000000E+01           0.00000000E+00
   0.19100000E+01           0.00000000E+00
   0.19200000E+01           0.00000000E+00
   0.19300000E+01           0.00000000E+00
   0.19400000E+01           0.00000000E+00
   0.19500000E+01           0.00000000E+00
   0.19600000E+01           0.00000000E+00
   0.19700000E+01           0.00000000E+00
   0.19800000E+01           0.00000000E+00
   0.19900000E+01           0.00000000E+00
   0.20000000E+01           0.00000000E+00
   0.20100000E+01           0.00000000E+00
   0.20200000E+01           0.00000000E+00
   0.20300000E+01           0.00000000E+00
   0.20400000E+01           0.00000000E+00
   0.20500000E+01           0.00000000E+00
   0.20600000E+01           0.00000000E+00
   0.20700000E+01           0.00000000E+00
   0.20800000E+01           0.00000000E+00
   0.20900000E+01           0.00000000E+00
   0.21000000E+01           0.00000000E+00
   0.21100000E+01           0.00000000E+00
   0.21200000E+01           0.00000000E+00
   0.21300000E+01           0.00000000E+00
   0.21400000E+01           0.00000000E+00
   0.21500000E+01           0.00000000E+00
   0.21600000E+01           0.00000000E+00
   0.21700000E+01           0.00000000E+00
   0.21800000E+01           0.00000000E+00
   0.21900000E+01           0.00000000E+00
   0.22000000E+01           0.00000000E+00
   0.22100000E+01           0.00000000E+00
   0.22200000E+01           0.00000000E+00
   0.22300000E+01           0.00000000E+00
   0.22400000E+01           0.00000000E+00
   0.22500000E+01           0.00000000E+00
   0.22600000E+01           0.00000000E+00
   0.22700000E+01           0.00000000E+00
   0.22800000E+01           0.00000000E+00
   0.22900000E+01           0.00000000E+00
   0.23000000E+01           0.00000000E+00
   0.23100000E+01           0.00000000E+00
   0.23200000E+01           0.00000000E+00
   0.23300000E+01           0.00000000E+00
   0.23400000E+01           0.00000000E+00
   0.23500000E+01           0.00000000E+00
   0.23600000E+01           0.00000000E+00
   0.23700000E+01           0.00000000E+00
   0.23800000E+01           0.00000000E+00
   0.23900000E+01           0.00000000E+00
   0.24000000E+01           0.00000000E+00
   0.24100000E+01           0.00000000E+00
   0.24200000E+01           0.00000000E+00
   0.24300000E+01           0.00000000E+00
   0.24400000E+01           0.00000000E+00
   0.24500000E+01           0.00000000E+00
   0.24600000E+01           0.00000000E+00
   0.24700000E+01           0.00000000E+00
   0.24800000E+01           0.00000000E+00
   0.24900000E+01           0.00000000E+00
   0.25000000E+01           0.00000000E+00
   0.25100000E+01           0.00000000E+00
   0.25200000E+01           0.00000000E+00
   0.25300000E+01           0.00000000E+00
   0.25400000E+01           0.00000000E+00
   0.25500000E+01           0.00000000E+00
   0.25600000E+01           0.00000000E+00
   0.25700000E+01           0.00000000E+00
   0.25800000E+01           0.00000000E+00
   0.25900000E+01           0.00000000E+00
   0.26000000E+01           0.00000000E+00
   0.26100000E+01           0.00000000E+00
   0.26200000E+01           0.00000000E+00
   0.26300000E+01           0.00000000E+00
   0.26400000E+01           0.00000000E+00
   0.26500000E+01           0.00000000E+00
   0.26600000E+01           0.00000000E+00
   0.26700000E+01           0.00000000E+00
   0.26800000E+01           0.00000000E+00
   0.26900000E+01           0.00000000E+00
   0.27000000E+01           0.00000000E+00
   0.27100000E+01           0.00000000E+00
   0.27200000E+01           0.00000000E+00
   0.27300000E+01           0.00000000E+00
   0.27400000E+01           0.00000000E+00
   0.27500000E+01           0.00000000E+00
   0.27600000E+01           0.00000000E+00
   0.27700000E+01           0.00000000E+00
   0.27800000E+01           0.00000000E+00
   0.27900000E+01           0.00000000E+00
   0.28000000E+01           0.00000000E+00
   0.28100000E+01           0.00000000E+00
   0.28200000E+01           0.00000000E+00
   0.28300000E+01           0.00000000E+00
   0.28400000E+01           0.00000000E+00
   0.28500000E+01           0.00000000E+00
   0.28600000E+01           0.00000000E+00
   0.28700000E+01           0.00000000E+00
   0.28800000E+01           0.00000000E+00
   0.28900000E+01           0.00000000E+00
   0.29000000E+01           0.00000000E+00
   0.29100000E+01           0.00000000E+00
   0.29200000E+01           0.00000000E+00
   0.29300000E+01           0.00000000E+00
   0.29400000E+01           0.00000000E+00
   0.29500000E+01           0.00000000E+00
   0.29600000E+01           0.00000000E+00
   0.29700000E+01           0.00000000E+00
   0.29800000E+01           0.00000000E+00
   0.29900000E+01           0.00000000E+00
   0.30000000E+01           0.00000000E+00
   0.30100000E+01           0.00000000E+00
   0.30200000E+01           0.00000000E+00
   0.30300000E+01           0.00000000E+00
   0.30400000E+01           0.00000000E+00
   0.30500000E+01           0.00000000E+00
   0.30600000E+01           0.00000000E+00
   0.30700000E+01           0.00000000E+00
   0.30800000E+01           0.00000000E+00
   0.30900000E+01           0.00000000E+00
   0.31000000E+01           0.00000000E+00
   0.31100000E+01           0.00000000E+00
   0.31200000E+01           0.00000000E+00
   0.31300000E+01           0.00000000E+00
   0.31400000E+01           0.00000000E+00
   0.31500000E+01           0.00000000E+00
   0.31600000E+01           0.00000000E+00
   0.31700000E+01           0.00000000E+00
   0.31800000E+01           0.00000000E+00
   0.31900000E+01           0.00000000E+00
   0.32000000E+01           0.00000000E+00
   0.32100000E+01           0.00000000E+00
   0.32200000E+01           0.00000000E+00
   0.32300000E+01           0.00000000E+00
   0.32400000E+01           0.00000000E+00
   0.32500000E+01           0.00000000E+00
   0.32600000E+01           0.00000000E+00
   0.32700000E+01           0.00000000E+00
   0.32800000E+01           0.00000000E+00
   0.32900000E+01           0.00000000E+00
   0.33000000E+01           0.00000000E+00
   0.33100000E+01           0.00000000E+00
   0.33200000E+01           0.00000000E+00
   0.33300000E+01           0.00000000E+00
   0.33400000E+01           0.00000000E+00
   0.33500000E+01           0.00000000E+00
   0.33600000E+01           0.00000000E+00
   0.33700000E+01           0.00000000E+00
   0.33800000E+01           0.00000000E+00
   0.33900000E+01           0.00000000E+00
   0.34000000E+01           0.00000000E+00
   0.34100000E+01           0.00000000E+00
   0.34200000E+01           0.00000000E+00
   0.34300000E+01           0.00000000E+00
   0.34400000E+01           0.00000000E+00
   0.34500000E+01           0.00000000E+00
   0.34600000E+01           0.00000000E+00
   0.34700000E+01           0.00000000E+00
   0.34800000E+01           0.00000000E+00
   0.34900000E+01           0.00000000E+00
   0.35000000E+01           0.00000000E+00
   0.35100000E+01           0.00000000E+00
   0.35200000E+01           0.00000000E+00
   0.35300000E+01           0.00000000E+00
   0.35400000E+01           0.00000000E+00
   0.35500000E+01           0.00000000E+00
   0.35600000E+01           0.00000000E+00
   0.35700000E+01           0.00000000E+00
   0.35800000E+01           0.00000000E+00
   0.35900000E+01           0.00000000E+00
   0.36000000E+01           0.00000000E+00
   0.36100000E+01           0.00000000E+00
   0.36200000E+01           0.00000000E+00
   0.36300000E+01           0.00000000E+00
   0.36400000E+01           0.00000000E+00
   0.36500000E+01           0.00000000E+00
   0.36600000E+01           0.00000000E+00
   0.36700000E+01           0.00000000E+00
   0.36800000E+01           0.00000000E+00
   0.36900000E+01           0.00000000E+00
   0.37000000E+01           0.00000000E+00
   0.37100000E+01           0.00000000E+00
   0.37200000E+01           0.00000000E+00
   0.37300000E+01           0.00000000E+00
   0.37400000E+01           0.00000000E+00
   0.37500000E+01           0.00000000E+00
   0.37600000E+01           0.00000000E+00
   0.37700000E+01           0.00000000E+00
   0.37800000E+01           0.00000000E+00
   0.37900000E+01           0.00000000E+00
   0.38000000E+01           0.00000000E+00
   0.38100000E+01           0.00000000E+00
   0.38200000E+01           0.00000000E+00
   0.38300000E+01           0.00000000E+00
   0.38400000E+01           0.00000000E+00
   0.38500000E+01           0.00000000E+00
   0.38600000E+01           0.00000000E+00
   0.38700000E+01           0.00000000E+00
   0.38800000E+01           0.00000000E+00
   0.38900000E+01           0.00000000E+00
   0.39000000E+01           0.00000000E+00
   0.39100000E+01           0.00000000E+00
   0.39200000E+01           0.00000000E+00
   0.39300000E+01           0.00000000E+00
   0.39400000E+01           0.00000000E+00
   0.39500000E+01           0.00000000E+00
   0.39600000E+01           0.00000000E+00
   0.39700000E+01           0.00000000E+00
   0.39800000E+01           0.00000000E+00
   0.39900000E+01           0.00000000E+00
   0.40000000E+01           0.00000000E+00
   0.40100000E+01           0.00000000E+00
   0.40200000E+01           0.00000000E+00
   0.40300000E+01           0.00000000E+00
   0.40400000E+01           0.00000000E+00
   0.40500000E+01           0.00000000E+00
   0.40600000E+01           0.00000000E+00
   0.40700000E+01           0.00000000E+00
   0.40800000E+01           0.00000000E+00
   0.40900000E+01           0.00000000E+00
   0.41000000E+01           0.00000000E+00
   0.41100000E+01           0.00000000E+00
   0.41200000E+01           0.00000000E+00
   0.41300000E+01           0.00000000E+00
   0.41400000E+01           0.00000000E+00
   0.41500000E+01           0.00000000E+00
   0.41600000E+01           0.00000000E+00
   0.41700000E+01           0.00000000E+00
   0.41800000E+01           0.00000000E+00
   0.41900000E+01           0.00000000E+00
   0.42000000E+01           0.00000000E+00
   0.42100000E+01           0.00000000E+00
   0.42200000E+01           0.00000000E+00
   0.42300000E+01           0.00000000E+00
   0.42400000E+01           0.00000000E+00
   0.42500000E+01           0.00000000E+00
   0.42600000E+01           0.00000000E+00
   0.42700000E+01           0.00000000E+00
   0.42800000E+01           0.00000000E+00
   0.42900000E+01           0.00000000E+00
   0.43000000E+01           0.00000000E+00
   0.43100000E+01           0.00000000E+00
   0.43200000E+01           0.00000000E+00
   0.43300000E+01           0.00000000E+00
   0.43400000E+01           0.00000000E+00
   0.43500000E+01           0.00000000E+00
   0.43600000E+01           0.00000000E+00
   0.43700000E+01           0.00000000E+00
   0.43800000E+01           0.00000000E+00
   0.43900000E+01           0.00000000E+00
   0.44000000E+01           0.00000000E+00
   0.44100000E+01           0.83333333E-07
   0.44200000E+01           0.00000000E+00
   0.44300000E+01           0.00000000E+00
   0.44400000E+01           0.00000000E+00
   0.44500000E+01           0.00000000E+00
   0.44600000E+01           0.00000000E+00
   0.44700000E+01           0.00000000E+00
   0.44800000E+01           0.00000000E+00
   0.44900000E+01           0.00000000E+00
   0.45000000E+01           0.83333333E-07
   0.45100000E+01           0.00000000E+00
   0.45200000E+01           0.00000000E+00
   0.45300000E+01           0.83333333E-07
   0.45400000E+01           0.00000000E+00
   0.45500000E+01           0.00000000E+00
   0.45600000E+01           0.00000000E+00
   0.45700000E+01           0.00000000E+00
   0.45800000E+01           0.00000000E+00
   0.45900000E+01           0.00000000E+00
   0.46000000E+01           0.00000000E+00
   0.46100000E+01           0.00000000E+00
   0.46200000E+01           0.00000000E+00
   0.46300000E+01           0.00000000E+00
   0.46400000E+01           0.00000000E+00
   0.46500000E+01           0.00000000E+00
   0.46600000E+01           0.00000000E+00
   0.46700000E+01           0.00000000E+00
   0.46800000E+01           0.00000000E+00
   0.46900000E+01           0.00000000E+00
   0.47000000E+01           0.00000000E+00
   0.47100000E+01           0.00000000E+00
   0.47200000E+01           0.00000000E+00
   0.47300000E+01           0.00000000E+00
   0.47400000E+01           0.00000000E+00
   0.47500000E+01           0.00000000E+00
   0.47600000E+01           0.00000000E+00
   0.47700000E+01           0.00000000E+00
   0.47800000E+01           0.00000000E+00
   0.47900000E+01           0.00000000E+00
   0.48000000E+01           0.00000000E+00
   0.48100000E+01           0.00000000E+00
   0.48200000E+01           0.00000000E+00
   0.48300000E+01           0.00000000E+00
   0.48400000E+01           0.00000000E+00
   0.48500000E+01           0.00000000E+00
   0.48600000E+01           0.00000000E+00
   0.48700000E+01           0.00000000E+00
   0.48800000E+01           0.00000000E+00
   0.48900000E+01           0.00000000E+00
   0.49000000E+01           0.00000000E+00
   0.49100000E+01           0.00000000E+00
   0.49200000E+01           0.00000000E+00
   0.49300000E+01           0.00000000E+00
   0.49400000E+01           0.00000000E+00
   0.49500000E+01           0.00000000E+00
   0.49600000E+01           0.00000000E+00
   0.49700000E+01           0.00000000E+00
   0.49800000E+01           0.00000000E+00
   0.49900000E+01           0.00000000E+00
   0.50000000E+01           0.00000000E+00
   0.50100000E+01           0.00000000E+00
   0.50200000E+01           0.00000000E+00
   0.50300000E+01           0.00000000E+00
   0.50400000E+01           0.00000000E+00
   0.50500000E+01           0.00000000E+00
   0.50600000E+01           0.00000000E+00
   0.50700000E+01           0.00000000E+00
   0.50800000E+01           0.00000000E+00
   0.50900000E+01           0.83333333E-07
   0.51000000E+01           0.00000000E+00
   0.51100000E+01           0.00000000E+00
   0.51200000E+01           0.00000000E+00
   0.51300000E+01           0.00000000E+00
   0.51400000E+01           0.00000000E+00
   0.51500000E+01           0.83333333E-07
   0.51600000E+01           0.00000000E+00
   0.51700000E+01           0.00000000E+00
   0.51800000E+01           0.00000000E+00
   0.51900000E+01           0.00000000E+00
   0.52000000E+01           0.00000000E+00
   0.52100000E+01           0.00000000E+00
   0.52200000E+01           0.00000000E+00
   0.52300000E+01           0.83333333E-07
   0.52400000E+01           0.00000000E+00
   0.52500000E+01           0.00000000E+00
   0.52600000E+01           0.00000000E+00
   0.52700000E+01           0.00000000E+00
   0.52800000E+01           0.00000000E+00
   0.52900000E+01           0.16666667E-06
   0.53000000E+01           0.00000000E+00
   0.53100000E+01           0.25000000E-06
   0.53200000E+01           0.00000000E+00
   0.53300000E+01           0.25000000E-06
   0.53400000E+01           0.83333333E-06
   0.53500000E+01           0.66666667E-06
   0.53600000E+01           0.14166667E-05
   0.53700000E+01           0.31666667E-05
   0.53800000E+01           0.36666667E-05
   0.53900000E+01           0.44166667E-05
   0.54000000E+01           0.58333333E-05
   0.54100000E+01           0.90833333E-05
   0.54200000E+01           0.63333333E-05
   0.54300000E+01           0.24666667E-04
   0.54400000E+01           0.15750000E-04
   0.54500000E+01           0.24666667E-04
   0.54600000E+01           0.35250000E-04
   0.54700000E+01           0.51500000E-04
   0.54800000E+01           0.61916667E-04
   0.54900000E+01           0.81250000E-04
   0.55000000E+01           0.12483333E-03
   0.55100000E+01           0.18783333E-03
   0.55200000E+01           0.22608333E-03
   0.55300000E+01           0.31766667E-03
   0.55400000E+01           0.44925000E-03
   0.55500000E+01           0.61300000E-03
   0.55600000E+01           0.76608333E-03
   0.55700000E+01           0.11054167E-02
   0.55800000E+01           0.14083333E-02
   0.55900000E+01           0.19874167E-02
   0.56000000E+01           0.26435000E-02
   0.56100000E+01           0.35840833E-02
   0.56200000E+01           0.47999167E-02
   0.56300000E+01           0.62702500E-02
   0.56400000E+01           0.82756667E-02
   0.56500000E+01           0.11577250E-01
   0.56600000E+01           0.15246500E-01
   0.56700000E+01           0.20233667E-01
   0.56800000E+01           0.26732917E-01
   0.56900000E+01           0.35467500E-01
   0.57000000E+01           0.47128333E-01
   0.57100000E+01           0.62851417E-01
   0.57200000E+01           0.82617333E-01
   0.57300000E+01           0.10924258E+00
   0.57400000E+01           0.14301358E+00
   0.57500000E+01           0.18891083E+00
   0.57600000E+01           0.24685767E+00
   0.57700000E+01           0.32443600E+00
   0.57800000E+01           0.42195467E+00
   0.57900000E+01           0.54983142E+00
   0.58000000E+01           0.71172375E+00
   0.58100000E+01           0.91964575E+00
   0.58200000E+01           0.11823588E+01
   0.58300000E+01           0.15155558E+01
   0.58400000E+01           0.19267322E+01
   0.58500000E+01           0.24406523E+01
   0.58600000E+01           0.30656418E+01
   0.58700000E+01           0.38195353E+01
   0.58800000E+01           0.47049572E+01
   0.58900000E+01           0.57237201E+01
   0.59000000E+01           0.68533747E+01
   0.59100000E+01           0.80362454E+01
   0.59200000E+01           0.91643016E+01
   0.59300000E+01           0.10052791E+02
   0.59400000E+01           0.10450645E+02
   0.59500000E+01           0.99991859E+01
   0.59600000E+01           0.84189630E+01
   0.59700000E+01           0.56959553E+01
   0.59800000E+01           0.25474846E+01
   0.59900000E+01           0.44766333E+00
   0.60000000E+01           0.36755000E-02
 #T=     2.0000
  -0.60000000E+01           0.00000000E+00
  -0.59900000E+01           0.00000000E+00
  -0.59800000E+01           0.00000000E+00
  -0.59700000E+01           0.00000000E+00
  -0.59600000E+01           0.00000000E+00
  -0.59500000E+01           0.00000000E+00
  -0.59400000E+01           0.00000000E+00
  -0.59300000E+01           0.00000000E+00
  -0.59200000E+01           0.00000000E+00
  -0.59100000E+01           0.00000000E+00
  -0.59000000E+01           0.00000000E+00
  -0.58900000E+01           0.00000000E+00
  -0.58800000E+01           0.00000000E+00
  -0.58700000E+01           0.00000000E+00
  -0.58600000E+01           0.00000000E+00
  -0.58500000E+01           0.00000000E+00
  -0.58400000E+01           0.00000000E+00
  -0.58300000E+01           0.00000000E+00
  -0.58200000E+01           0.00000000E+00
  -0.58100000E+01           0.00000000E+00
  -0.58000000E+01           0.00000000E+00
  -0.57900000E+01           0.00000000E+00
  -0.57800000E+01           0.00000000E+00
  -0.57700000E+01           0.00000000E+00
  -0.57600000E+01           0.00000000E+00
  -0.57500000E+01           0.00000000E+00
  -0.57400000E+01           0.00000000E+00
  -0.57300000E+01           0.00000000E+00
  -0.57200000E+01           0.00000000E+00
  -0.57100000E+01           0.00000000E+00
  -0.57000000E+01           0.00000000E+00
  -0.56900000E+01           0.00000000E+00
  -0.56800000E+01           0.00000000E+00
  -0.56700000E+01           0.00000000E+00
  -0.56600000E+01           0.00000000E+00
  -0.56500000E+01           0.00000000E+00
  -0.56400000E+01           0.00000000E+00
  -0.56300000E+01           0.00000000E+00
  -0.56200000E+01           0.00000000E+00
  -0.56100000E+01           0.00000000E+00
  -0.56000000E+01           0.00000000E+00
  -0.55900000E+01           0.00000000E+00
  -0.55800000E+01           0.00000000E+00
  -0.55700000E+01           0.00000000E+00
  -0.55600000E+01           0.00000000E+00
  -0.55500000E+01           0.00000000E+00
  -0.55400000E+01           0.00000000E+00
  -0.55300000E+01           0.00000000E+00
  -0.55200000E+01           0.00000000E+00
  -0.55100000E+01           0.00000000E+00
  -0.55000000E+01           0.00000000E+00
  -0.54900000E+01           0.00000000E+00
  -0.54800000E+01           0.00000000E+00
  -0.54700000E+01           0.00000000E+00
  -0.54600000E+01           0.00000000E+00
  -0.54500000E+01           0.00000000E+00
  -0.54400000E+01           0.00000000E+00
  -0.54300000E+01           0.00000000E+00
  -0.54200000E+01           0.00000000E+00
  -0.54100000E+01           0.00000000E+00
  -0.54000000E+01           0.00000000E+00
  -0.53900000E+01           0.00000000E+00
  -0.53800000E+01           0.00000000E+00
  -0.53700000E+01           0.00000000E+00
  -0.53600000E+01           0.00000000E+00
  -0.53500000E+01           0.00000000E+00
  -0.53400000E+01           0.00000000E+00
  -0.53300000E+01           0.00000000E+00
  -0.53200000E+01           0.00000000E+00
  -0.53100000E+01           0.00000000E+00
  -0.53000000E+01           0.00000000E+00
  -0.52900000E+01           0.00000000E+00
  -0.52800000E+01           0.00000000E+00
  -0.52700000E+01           0.00000000E+00
  -0.52600000E+01           0.00000000E+00
  -0.52500000E+01           0.00000000E+00
  -0.52400000E+01           0.00000000E+00
  -0.52300000E+01           0.00000000E+00
  -0.52200000E+01           0.00000000E+00
  -0.52100000E+01           0.00000000E+00
  -0.52000000E+01           0.00000000E+00
  -0.51900000E+01           0.00000000E+00
  -0.51800000E+01           0.00000000E+00
  -0.51700000E+01           0.00000000E+00
  -0.51600000E+01           0.00000000E+00
  -0.51500000E+01           0.00000000E+00
  -0.51400000E+01           0.00000000E+00
  -0.51300000E+01           0.00000000E+00
  -0.51200000E+01           0.00000000E+00
  -0.51100000E+01           0.00000000E+00
  -0.51000000E+01           0.00000000E+00
  -0.50900000E+01           0.00000000E+00
  -0.50800000E+01           0.00000000E+00
  -0.50700000E+01           0.00000000E+00
  -0.50600000E+01           0.00000000E+00
  -0.50500000E+01           0.00000000E+00
  -0.50400000E+01           0.00000000E+00
  -0.50300000E+01           0.00000000E+00
  -0.50200000E+01           0.00000000E+00
  -0.50100000E+01           0.00000000E+00
  -0.50000000E+01           0.00000000E+00
  -0.49900000E+01           0.00000000E+00
  -0.49800000E+01           0.00000000E+00
  -0.49700000E+01           0.00000000E+00
  -0.49600000E+01           0.00000000E+00
  -0.49500000E+01           0.00000000E+00
  -0.49400000E+01           0.00000000E+00
  -0.49300000E+01           0.00000000E+00
  -0.49200000E+01           0.00000000E+00
  -0.49100000E+01           0.00000000E+00
  -0.49000000E+01           0.00000000E+00
  -0.48900000E+01           0.00000000E+00
  -0.48800000E+01           0.00000000E+00
  -0.48700000E+01           0.00000000E+00
  -0.48600000E+01           0.00000000E+00
  -0.48500000E+01           0.00000000E+00
  -0.48400000E+01           0.00000000E+00
  -0.48300000E+01           0.00000000E+00
  -0.48200000E+01           0.00000000E+00
  -0.48100000E+01           0.00000000E+00
  -0.48000000E+01           0.00000000E+00
  -0.47900000E+01           0.00000000E+00
  -0.47800000E+01           0.00000000E+00
  -0.47700000E+01           0.00000000E+00
  -0.47600000E+01           0.00000000E+00
  -0.47500000E+01           0.00000000E+00
  -0.47400000E+01           0.00000000E+00
  -0.47300000E+01           0.00000000E+00
  -0.47200000E+01           0.00000000E+00
  -0.47100000E+01           0.00000000E+00
  -0.47000000E+01           0.00000000E+00
  -0.46900000E+01           0.00000000E+00
  -0.46800000E+01           0.00000000E+00
  -0.46700000E+01           0.00000000E+00
  -0.46600000E+01           0.00000000E+00
  -0.46500000E+01           0.00000000E+00
  -0.46400000E+01           0.00000000E+00
  -0.46300000E+01           0.00000000E+00
  -0.46200000E+01           0.00000000E+00
  -0.46100000E+01           0.00000000E+00
  -0.46000000E+01           0.00000000E+00
  -0.45900000E+01           0.00000000E+00
  -0.45800000E+01           0.00000000E+00
  -0.45700000E+01           0.00000000E+00
  -0.45600000E+01           0.00000000E+00
  -0.45500000E+01           0.00000000E+00
  -0.45400000E+01           0.00000000E+00
  -0.45300000E+01           0.00000000E+00
  -0.45200000E+01           0.00000000E+00
  -0.45100000E+01           0.00000000E+00
  -0.45000000E+01           0.00000000E+00
  -0.44900000E+01           0.00000000E+00
  -0.44800000E+01           0.00000000E+00
  -0.44700000E+01           0.00000000E+00
  -0.44600000E+01           0.00000000E+00
  -0.44500000E+01           0.00000000E+00
  -0.44400000E+01           0.00000000E+00
  -0.44300000E+01           0.00000000E+00
  -0.44200000E+01           0.00000000E+00
  -0.44100000E+01           0.00000000E+00
  -0.44000000E+01           0.00000000E+00
  -0.43900000E+01           0.00000000E+00
  -0.43800000E+01           0.00000000E+00
  -0.43700000E+01           0.00000000E+00
  -0.43600000E+01           0.00000000E+00
  -0.43500000E+01           0.00000000E+00
  -0.43400000E+01           0.00000000E+00
  -0.43300000E+01           0.00000000E+00
  -0.43200000E+01           0.00000000E+00
  -0.43100000E+01           0.00000000E+00
  -0.43000000E+01           0.00000000E+00
  -0.42900000E+01           0.00000000E+00
  -0.42800000E+01           0.00000000E+00
  -0.42700000E+01           0.00000000E+00
  -0.42600000E+01           0.00000000E+00
  -0.42500000E+01           0.00000000E+00
  -0.42400000E+01           0.00000000E+00
  -0.42300000E+01           0.00000000E+00
  -0.42200000E+01           0.00000000E+00
  -0.42100000E+01           0.00000000E+00
  -0.42000000E+01           0.00000000E+00
  -0.41900000E+01           0.00000000E+00
  -0.41800000E+01           0.00000000E+00
  -0.41700000E+01           0.00000000E+00
  -0.41600000E+01           0.00000000E+00
  -0.41500000E+01           0.00000000E+00
  -0.41400000E+01           0.00000000E+00
  -0.41300000E+01           0.00000000E+00
  -0.41200000E+01           0.00000000E+00
  -0.41100000E+01           0.00000000E+00
  -0.41000000E+01           0.00000000E+00
  -0.40900000E+01           0.00000000E+00
  -0.40800000E+01           0.00000000E+00
  -0.40700000E+01           0.00000000E+00
  -0.40600000E+01           0.00000000E+00
  -0.40500000E+01           0.00000000E+00
  -0.40400000E+01           0.00000000E+00
  -0.40300000E+01           0.00000000E+00
  -0.40200000E+01           0.00000000E+00
  -0.40100000E+01           0.00000000E+00
  -0.40000000E+01           0.00000000E+00
  -0.39900000E+01           0.00000000E+00
  -0.39800000E+01           0.00000000E+00
  -0.39700000E+01           0.00000000E+00
  -0.39600000E+01           0.00000000E+00
  -0.39500000E+01           0.00000000E+00
  -0.39400000E+01           0.00000000E+00
  -0.39300000E+01           0.00000000E+00
  -0.39200000E+01           0.00000000E+00
  -0.39100000E+01           0.00000000E+00
  -0.39000000E+01           0.00000000E+00
  -0.38900000E+01           0.00000000E+00
  -0.38800000E+01           0.00000000E+00
  -0.38700000E+01           0.00000000E+00
  -0.38600000E+01           0.00000000E+00
  -0.38500000E+01           0.00000000E+00
  -0.38400000E+01           0.00000000E+00
  -0.38300000E+01           0.00000000E+00
  -0.38200000E+01           0.00000000E+00
  -0.38100000E+01           0.00000000E+00
  -0.38000000E+01           0.00000000E+00
  -0.37900000E+01           0.00000000E+00
  -0.37800000E+01           0.00000000E+00
  -0.37700000E+01           0.00000000E+00
  -0.37600000E+01           0.00000000E+00
  -0.37500000E+01           0.00000000E+00
  -0.37400000E+01           0.00000000E+00
  -0.37300000E+01           0.00000000E+00
  -0.37200000E+01           0.00000000E+00
  -0.37100000E+01           0.00000000E+00
  -0.37000000E+01           0.00000000E+00
  -0.36900000E+01           0.00000000E+00
  -0.36800000E+01           0.00000000E+00
  -0.36700000E+01           0.00000000E+00
  -0.36600000E+01           0.00000000E+00
  -0.36500000E+01           0.00000000E+00
  -0.36400000E+01           0.00000000E+00
  -0.36300000E+01           0.00000000E+00
  -0.36200000E+01           0.00000000E+00
  -0.36100000E+01           0.00000000E+00
  -0.36000000E+01           0.00000000E+00
  -0.35900000E+01           0.00000000E+00
  -0.35800000E+01           0.00000000E+00
  -0.35700000E+01           0.00000000E+00
  -0.35600000E+01           0.00000000E+00
  -0.35500000E+01           0.00000000E+00
  -0.35400000E+01           0.00000000E+00
  -0.35300000E+01           0.00000000E+00
  -0.35200000E+01           0.00000000E+00
  -0.35100000E+01           0.00000000E+00
  -0.35000000E+01           0.00000000E+00
  -0.34900000E+01           0.00000000E+00
  -0.34800000E+01           0.00000000E+00
  -0.34700000E+01           0.00000000E+00
  -0.34600000E+01           0.00000000E+00
  -0.34500000E+01           0.00000000E+00
  -0.34400000E+01           0.00000000E+00
  -0.34300000E+01           0.00000000E+00
  -0.34200000E+01           0.00000000E+00
  -0.34100000E+01           0.00000000E+00
  -0.34000000E+01           0.00000000E+00
  -0.33900000E+01           0.00000000E+00
  -0.33800000E+01           0.00000000E+00
  -0.33700000E+01           0.00000000E+00
  -0.33600000E+01           0.00000000E+00
  -0.33500000E+01           0.00000000E+00
  -0.33400000E+01           0.00000000E+00
  -0.33300000E+01           0.00000000E+00
  -0.33200000E+01           0.00000000E+00
  -0.33100000E+01           0.00000000E+00
  -0.33000000E+01           0.00000000E+00
  -0.32900000E+01           0.00000000E+00
  -0.32800000E+01           0.00000000E+00
  -0.32700000E+01           0.00000000E+00
  -0.32600000E+01           0.00000000E+00
  -0.32500000E+01           0.00000000E+00
  -0.32400000E+01           0.00000000E+00
  -0.32300000E+01           0.00000000E+00
  -0.32200000E+01           0.00000000E+00
  -0.32100000E+01           0.00000000E+00
  -0.32000000E+01           0.00000000E+00
  -0.31900000E+01           0.00000000E+00
  -0.31800000E+01           0.00000000E+00
  -0.31700000E+01           0.00000000E+00
  -0.31600000E+01           0.00000000E+00
  -0.31500000E+01           0.00000000E+00
  -0.31400000E+01           0.00000000E+00
  -0.31300000E+01           0.00000000E+00
  -0.31200000E+01           0.00000000E+00
  -0.31100000E+01           0.00000000E+00
  -0.31000000E+01           0.00000000E+00
  -0.30900000E+01           0.00000000E+00
  -0.30800000E+01           0.00000000E+00
  -0.30700000E+01           0.00000000E+00
  -0.30600000E+01           0.00000000E+00
  -0.30500000E+01           0.00000000E+00
  -0.30400000E+01           0.00000000E+00
  -0.30300000E+01           0.00000000E+00
  -0.30200000E+01           0.00000000E+00
  -0.30100000E+01           0.00000000E+00
  -0.30000000E+01           0.00000000E+00
  -0.29900000E+01           0.00000000E+00
  -0.29800000E+01           0.00000000E+00
  -0.29700000E+01           0.00000000E+00
  -0.29600000E+01           0.00000000E+00
  -0.29500000E+01           0.00000000E+00
  -0.29400000E+01           0.00000000E+00
  -0.29300000E+01           0.00000000E+00
  -0.29200000E+01           0.00000000E+00
  -0.29100000E+01           0.00000000E+00
  -0.29000000E+01           0.00000000E+00
  -0.28900000E+01           0.00000000E+00
  -0.28800000E+01           0.00000000E+00
  -0.28700000E+01           0.00000000E+00
  -0.28600000E+01           0.00000000E+00
  -0.28500000E+01           0.00000000E+00
  -0.28400000E+01           0.00000000E+00
  -0.28300000E+01           0.00000000E+00
  -0.28200000E+01           0.00000000E+00
  -0.28100000E+01           0.00000000E+00
  -0.28000000E+01           0.00000000E+00
  -0.27900000E+01           0.00000000E+00
  -0.27800000E+01           0.00000000E+00
  -0.27700000E+01           0.00000000E+00
  -0.27600000E+01           0.00000000E+00
  -0.27500000E+01           0.00000000E+00
  -0.27400000E+01           0.00000000E+00
  -0.27300000E+01           0.00000000E+00
  -0.27200000E+01           0.00000000E+00
  -0.27100000E+01           0.00000000E+00
  -0.27000000E+01           0.00000000E+00
  -0.26900000E+01           0.00000000E+00
  -0.26800000E+01           0.00000000E+00
  -0.26700000E+01           0.00000000E+00
  -0.26600000E+01           0.00000000E+00
  -0.26500000E+01           0.00000000E+00
  -0.26400000E+01           0.00000000E+00
  -0.26300000E+01           0.00000000E+00
  -0.26200000E+01           0.00000000E+00
  -0.26100000E+01           0.00000000E+00
  -0.26000000E+01           0.00000000E+00
  -0.25900000E+01           0.00000000E+00
  -0.25800000E+01           0.00000000E+00
  -0.25700000E+01           0.00000000E+00
  -0.25600000E+01           0.00000000E+00
  -0.25500000E+01           0.00000000E+00
  -0.25400000E+01           0.00000000E+00
  -0.25300000E+01           0.00000000E+00
  -0.25200000E+01           0.00000000E+00
  -0.25100000E+01           0.00000000E+00
  -0.25000000E+01           0.00000000E+00
  -0.24900000E+01           0.00000000E+00
  -0.24800000E+01           0.00000000E+00
  -0.24700000E+01           0.00000000E+00
  -0.24600000E+01           0.00000000E+00
  -0.24500000E+01           0.00000000E+00
  -0.24400000E+01           0.00000000E+00
  -0.24300000E+01           0.00000000E+00
  -0.24200000E+01           0.00000000E+00
  -0.24100000E+01           0.00000000E+00
  -0.24000000E+01           0.00000000E+00
  -0.23900000E+01           0.00000000E+00
  -0.23800000E+01           0.00000000E+00
  -0.23700000E+01           0.00000000E+00
  -0.23600000E+01           0.00000000E+00
  -0.23500000E+01           0.00000000E+00
  -0.23400000E+01           0.00000000E+00
  -0.23300000E+01           0.00000000E+00
  -0.23200000E+01           0.00000000E+00
  -0.23100000E+01           0.00000000E+00
  -0.23000000E+01           0.00000000E+00
  -0.22900000E+01           0.00000000E+00
  -0.22800000E+01           0.00000000E+00
  -0.22700000E+01           0.00000000E+00
  -0.22600000E+01           0.00000000E+00
  -0.22500000E+01           0.00000000E+00
  -0.22400000E+01           0.00000000E+00
  -0.22300000E+01           0.00000000E+00
  -0.22200000E+01           0.00000000E+00
  -0.22100000E+01           0.00000000E+00
  -0.22000000E+01           0.00000000E+00
  -0.21900000E+01           0.00000000E+00
  -0.21800000E+01           0.00000000E+00
  -0.21700000E+01           0.00000000E+00
  -0.21600000E+01           0.00000000E+00
  -0.21500000E+01           0.00000000E+00
  -0.21400000E+01           0.00000000E+00
  -0.21300000E+01           0.00000000E+00
  -0.21200000E+01           0.00000000E+00
  -0.21100000E+01           0.00000000E+00
  -0.21000000E+01           0.00000000E+00
  -0.20900000E+01           0.00000000E+00
  -0.20800000E+01           0.00000000E+00
  -0.20700000E+01           0.00000000E+00
  -0.20600000E+01           0.00000000E+00
  -0.20500000E+01           0.00000000E+00
  -0.20400000E+01           0.00000000E+00
  -0.20300000E+01           0.00000000E+00
  -0.20200000E+01           0.00000000E+00
  -0.20100000E+01           0.00000000E+00
  -0.20000000E+01           0.00000000E+00
  -0.19900000E+01           0.00000000E+00
  -0.19800000E+01           0.00000000E+00
  -0.19700000E+01           0.00000000E+00
  -0.19600000E+01           0.00000000E+00
  -0.19500000E+01           0.00000000E+00
  -0.19400000E+01           0.00000000E+00
  -0.19300000E+01           0.00000000E+00
  -0.19200000E+01           0.00000000E+00
  -0.19100000E+01           0.00000000E+00
  -0.19000000E+01           0.00000000E+00
  -0.18900000E+01           0.00000000E+00
  -0.18800000E+01           0.00000000E+00
  -0.18700000E+01           0.00000000E+00
  -0.18600000E+01           0.00000000E+00
  -0.18500000E+01           0.00000000E+00
  -0.18400000E+01           0.00000000E+00
  -0.18300000E+01           0.00000000E+00
  -0.18200000E+01           0.00000000E+00
  -0.18100000E+01           0.00000000E+00
  -0.18000000E+01           0.00000000E+00
  -0.17900000E+01           0.00000000E+00
  -0.17800000E+01           0.00000000E+00
  -0.17700000E+01           0.00000000E+00
  -0.17600000E+01           0.00000000E+00
  -0.17500000E+01           0.00000000E+00
  -0.17400000E+01           0.00000000E+00
  -0.17300000E+01           0.00000000E+00
  -0.17200000E+01           0.00000000E+00
  -0.17100000E+01           0.00000000E+00
  -0.17000000E+01           0.00000000E+00
  -0.16900000E+01           0.00000000E+00
  -0.16800000E+01           0.00000000E+00
  -0.16700000E+01           0.00000000E+00
  -0.16600000E+01           0.00000000E+00
  -0.16500000E+01           0.00000000E+00
  -0.16400000E+01           0.00000000E+00
  -0.16300000E+01           0.00000000E+00
  -0.16200000E+01           0.00000000E+00
  -0.16100000E+01           0.00000000E+00
  -0.16000000E+01           0.00000000E+00
  -0.15900000E+01           0.00000000E+00
  -0.15800000E+01           0.00000000E+00
  -0.15700000E+01           0.00000000E+00
  -0.15600000E+01           0.00000000E+00
  -0.15500000E+01           0.00000000E+00
  -0.15400000E+01           0.00000000E+00
  -0.15300000E+01           0.00000000E+00
  -0.15200000E+01           0.00000000E+00
  -0.15100000E+01           0.00000000E+00
  -0.15000000E+01           0.00000000E+00
  -0.14900000E+01           0.00000000E+00
  -0.14800000E+01           0.00000000E+00
  -0.14700000E+01           0.00000000E+00
  -0.14600000E+01           0.00000000E+00
  -0.14500000E+01           0.00000000E+00
  -0.14400000E+01           0.00000000E+00
  -0.14300000E+01           0.00000000E+00
  -0.14200000E+01           0.00000000E+00
  -0.14100000E+01           0.00000000E+00
  -0.14000000E+01           0.00000000E+00
  -0.13900000E+01           0.00000000E+00
  -0.13800000E+01           0.00000000E+00
  -0.13700000E+01           0.00000000E+00
  -0.13600000E+01           0.00000000E+00
  -0.13500000E+01           0.00000000E+00
  -0.13400000E+01           0.00000000E+00
  -0.13300000E+01           0.00000000E+00
  -0.13200000E+01           0.00000000E+00
  -0.13100000E+01           0.00000000E+00
  -0.13000000E+01           0.00000000E+00
  -0.12900000E+01           0.00000000E+00
  -0.12800000E+01           0.00000000E+00
  -0.12700000E+01           0.00000000E+00
  -0.12600000E+01           0.00000000E+00
  -0.12500000E+01           0.00000000E+00
  -0.12400000E+01           0.00000000E+00
  -0.12300000E+01           0.00000000E+00
  -0.12200000E+01           0.00000000E+00
  -0.12100000E+01           0.00000000E+00
  -0.12000000E+01           0.00000000E+00
  -0.11900000E+01           0.00000000E+00
  -0.11800000E+01           0.00000000E+00
  -0.11700000E+01           0.00000000E+00
  -0.11600000E+01           0.00000000E+00
  -0.11500000E+01           0.00000000E+00
  -0.11400000E+01           0.00000000E+00
  -0.11300000E+01           0.00000000E+00
  -0.11200000E+01           0.00000000E+00
  -0.11100000E+01           0.00000000E+00
  -0.11000000E+01           0.00000000E+00
  -0.10900000E+01           0.00000000E+00
  -0.10800000E+01           0.00000000E+00
  -0.10700000E+01           0.00000000E+00
  -0.10600000E+01           0.00000000E+00
  -0.10500000E+01           0.00000000E+00
  -0.10400000E+01           0.00000000E+00
  -0.10300000E+01           0.00000000E+00
  -0.10200000E+01           0.00000000E+00
  -0.10100000E+01           0.00000000E+00
  -0.10000000E+01           0.00000000E+00
  -0.99000000E+00           0.00000000E+00
  -0.98000000E+00           0.00000000E+00
  -0.97000000E+00           0.00000000E+00
  -0.96000000E+00           0.00000000E+00
  -0.95000000E+00           0.00000000E+00
  -0.94000000E+00           0.00000000E+00
  -0.93000000E+00           0.00000000E+00
  -0.92000000E+00           0.00000000E+00
  -0.91000000E+00           0.00000000E+00
  -0.90000000E+00           0.00000000E+00
  -0.89000000E+00           0.00000000E+00
  -0.88000000E+00           0.00000000E+00
  -0.87000000E+00           0.00000000E+00
  -0.86000000E+00           0.00000000E+00
  -0.85000000E+00           0.00000000E+00
  -0.84000000E+00           0.00000000E+00
  -0.83000000E+00           0.00000000E+00
  -0.82000000E+00           0.00000000E+00
  -0.81000000E+00           0.00000000E+00
  -0.80000000E+00           0.00000000E+00
  -0.79000000E+00           0.00000000E+00
  -0.78000000E+00           0.00000000E+00
  -0.77000000E+00           0.00000000E+00
  -0.76000000E+00           0.00000000E+00
  -0.75000000E+00           0.00000000E+00
  -0.74000000E+00           0.00000000E+00
  -0.73000000E+00           0.00000000E+00
  -0.72000000E+00           0.00000000E+00
  -0.71000000E+00           0.00000000E+00
  -0.70000000E+00           0.00000000E+00
  -0.69000000E+00           0.00000000E+00
  -0.68000000E+00           0.00000000E+00
  -0.67000000E+00           0.00000000E+00
  -0.66000000E+00           0.00000000E+00
  -0.65000000E+00           0.00000000E+00
  -0.64000000E+00           0.00000000E+00
  -0.63000000E+00           0.00000000E+00
  -0.62000000E+00           0.00000000E+00
  -0.61000000E+00           0.00000000E+00
  -0.60000000E+00           0.00000000E+00
  -0.59000000E+00           0.00000000E+00
  -0.58000000E+00           0.00000000E+00
  -0.57000000E+00           0.00000000E+00
  -0.56000000E+00           0.00000000E+00
  -0.55000000E+00           0.00000000E+00
  -0.54000000E+00           0.00000000E+00
  -0.53000000E+00           0.00000000E+00
  -0.52000000E+00           0.00000000E+00
  -0.51000000E+00           0.00000000E+00
  -0.50000000E+00           0.00000000E+00
  -0.49000000E+00           0.00000000E+00
  -0.48000000E+00           0.00000000E+00
  -0.47000000E+00           0.00000000E+00
  -0.46000000E+00           0.00000000E+00
  -0.45000000E+00           0.00000000E+00
  -0.44000000E+00           0.00000000E+00
  -0.43000000E+00           0.00000000E+00
  -0.42000000E+00           0.00000000E+00
  -0.41000000E+00           0.00000000E+00
  -0.40000000E+00           0.00000000E+00
  -0.39000000E+00           0.00000000E+00
  -0.38000000E+00           0.00000000E+00
  -0.37000000E+00           0.00000000E+00
  -0.36000000E+00           0.00000000E+00
  -0.35000000E+00           0.00000000E+00
  -0.34000000E+00           0.00000000E+00
  -0.33000000E+00           0.00000000E+00
  -0.32000000E+00           0.00000000E+00
  -0.31000000E+00           0.00000000E+00
  -0.30000000E+00           0.00000000E+00
  -0.29000000E+00           0.00000000E+00
  -0.28000000E+00           0.00000000E+00
  -0.27000000E+00           0.00000000E+00
  -0.26000000E+00           0.00000000E+00
  -0.25000000E+00           0.00000000E+00
  -0.24000000E+00           0.00000000E+00
  -0.23000000E+00           0.00000000E+00
  -0.22000000E+00           0.00000000E+00
  -0.21000000E+00           0.00000000E+00
  -0.20000000E+00           0.00000000E+00
  -0.19000000E+00           0.00000000E+00
  -0.18000000E+00           0.00000000E+00
  -0.17000000E+00           0.00000000E+00
  -0.16000000E+00           0.00000000E+00
  -0.15000000E+00           0.00000000E+00
  -0.14000000E+00           0.00000000E+00
  -0.13000000E+00           0.00000000E+00
  -0.12000000E+00           0.00000000E+00
  -0.11000000E+00           0.00000000E+00
  -0.10000000E+00           0.00000000E+00
  -0.90000000E-01           0.00000000E+00
  -0.80000000E-01           0.00000000E+00
  -0.70000000E-01           0.00000000E+00
  -0.60000000E-01           0.00000000E+00
  -0.50000000E-01           0.00000000E+00
  -0.40000000E-01           0.00000000E+00
  -0.30000000E-01           0.00000000E+00
  -0.20000000E-01           0.00000000E+00
  -0.10000000E-01           0.00000000E+00
   0.00000000E+00           0.00000000E+00
   0.10000000E-01           0.00000000E+00
   0.20000000E-01           0.00000000E+00
   0.30000000E-01           0.00000000E+00
   0.40000000E-01           0.00000000E+00
   0.50000000E-01           0.00000000E+00
   0.60000000E-01           0.00000000E+00
   0.70000000E-01           0.00000000E+00
   0.80000000E-01           0.00000000E+00
   0.90000000E-01           0.00000000E+00
   0.10000000E+00           0.00000000E+00
   0.11000000E+00           0.00000000E+00
   0.12000000E+00           0.00000000E+00
   0.13000000E+00           0.00000000E+00
   0.14000000E+00           0.00000000E+00
   0.15000000E+00           0.00000000E+00
   0.16000000E+00           0.00000000E+00
   0.17000000E+00           0.00000000E+00
   0.18000000E+00           0.00000000E+00
   0.19000000E+00           0.00000000E+00
   0.20000000E+00           0.00000000E+00
   0.21000000E+00           0.00000000E+00
   0.22000000E+00           0.00000000E+00
   0.23000000E+00           0.00000000E+00
   0.24000000E+00           0.00000000E+00
   0.25000000E+00           0.00000000E+00
   0.26000000E+00           0.00000000E+00
   0.27000000E+00           0.00000000E+00
   0.28000000E+00           0.00000000E+00
   0.29000000E+00           0.00000000E+00
   0.30000000E+00           0.00000000E+00
   0.31000000E+00           0.00000000E+00
   0.32000000E+00           0.00000000E+00
   0.33000000E+00           0.00000000E+00
   0.34000000E+00           0.00000000E+00
   0.35000000E+00           0.00000000E+00
   0.36000000E+00           0.00000000E+00
   0.37000000E+00           0.00000000E+00
   0.38000000E+00           0.00000000E+00
   0.39000000E+00           0.00000000E+00
   0.40000000E+00           0.00000000E+00
   0.41000000E+00           0.00000000E+00
   0.42000000E+00           0.00000000E+00
   0.43000000E+00           0.00000000E+00
   0.44000000E+00           0.00000000E+00
   0.45000000E+00           0.00000000E+00
   0.46000000E+00           0.00000000E+00
   0.47000000E+00           0.00000000E+00
   0.48000000E+00           0.00000000E+00
   0.49000000E+00           0.00000000E+00
   0.50000000E+00           0.00000000E+00
   0.51000000E+00           0.00000000E+00
   0.52000000E+00           0.00000000E+00
   0.53000000E+00           0.00000000E+00
[...]
   0.13600000E+01           0.21444942E+00
   0.13700000E+01           0.21683333E+00
   0.13800000E+01           0.21891567E+00
   0.13900000E+01           0.22133917E+00
   0.14000000E+01           0.22364033E+00
   0.14100000E+01           0.22606225E+00
   0.14200000E+01           0.22833658E+00
   0.14300000E+01           0.23058350E+00
   0.14400000E+01           0.23269508E+00
   0.14500000E+01           0.23541725E+00
   0.14600000E+01           0.23777192E+00
   0.14700000E+01           0.23962358E+00
   0.14800000E+01           0.24217133E+00
   0.14900000E+01           0.24416492E+00
   0.15000000E+01           0.24637742E+00
   0.15100000E+01           0.24850675E+00
   0.15200000E+01           0.25095792E+00
   0.15300000E+01           0.25311608E+00
   0.15400000E+01           0.25509467E+00
   0.15500000E+01           0.25752133E+00
   0.15600000E+01           0.25949767E+00
   0.15700000E+01           0.26190867E+00
   0.15800000E+01           0.26405692E+00
   0.15900000E+01           0.26604592E+00
   0.16000000E+01           0.26800133E+00
   0.16100000E+01           0.27003150E+00
   0.16200000E+01           0.27211325E+00
   0.16300000E+01           0.27422000E+00
   0.16400000E+01           0.27633733E+00
   0.16500000E+01           0.27837917E+00
   0.16600000E+01           0.28008258E+00
   0.16700000E+01           0.28249692E+00
   0.16800000E+01           0.28395425E+00
   0.16900000E+01           0.28609700E+00
   0.17000000E+01           0.28824600E+00
   0.17100000E+01           0.29019325E+00
   0.17200000E+01           0.29176275E+00
   0.17300000E+01           0.29390333E+00
   0.17400000E+01           0.29533100E+00
   0.17500000E+01           0.29776200E+00
   0.17600000E+01           0.29944617E+00
   0.17700000E+01           0.30119425E+00
   0.17800000E+01           0.30276292E+00
   0.17900000E+01           0.30459867E+00
   0.18000000E+01           0.30617558E+00
   0.18100000E+01           0.30796975E+00
   0.18200000E+01           0.30982008E+00
   0.18300000E+01           0.31105367E+00
   0.18400000E+01           0.31293892E+00
   0.18500000E+01           0.31473083E+00
   0.18600000E+01           0.31602292E+00
   0.18700000E+01           0.31745283E+00
   0.18800000E+01           0.31921583E+00
   0.18900000E+01           0.32065067E+00
   0.19000000E+01           0.32225408E+00
   0.19100000E+01           0.32375542E+00
   0.19200000E+01           0.32480883E+00
   0.19300000E+01           0.32632300E+00
   0.19400000E+01           0.32784917E+00
   0.19500000E+01           0.32925117E+00
   0.19600000E+01           0.33040317E+00
   0.19700000E+01           0.33160550E+00
   0.19800000E+01           0.33291442E+00
   0.19900000E+01           0.33450783E+00
   0.20000000E+01           0.33564667E+00
   0.20100000E+01           0.33701575E+00
   0.20200000E+01           0.33795250E+00
   0.20300000E+01           0.33920583E+00
   0.20400000E+01           0.33997842E+00
   0.20500000E+01           0.34137883E+00
   0.20600000E+01           0.34266400E+00
   0.20700000E+01           0.34327042E+00
   0.20800000E+01           0.34437092E+00
   0.20900000E+01           0.34543917E+00
   0.21000000E+01           0.34646800E+00
   0.21100000E+01           0.34706208E+00
   0.21200000E+01           0.34843358E+00
   0.21300000E+01           0.34933167E+00
   0.21400000E+01           0.35008058E+00
   0.21500000E+01           0.35085150E+00
   0.21600000E+01           0.35133600E+00
   0.21700000E+01           0.35205717E+00
   0.21800000E+01           0.35288225E+00
   0.21900000E+01           0.35392575E+00
   0.22000000E+01           0.35427125E+00
   0.22100000E+01           0.35513117E+00
   0.22200000E+01           0.35587925E+00
   0.22300000E+01           0.35639842E+00
   0.22400000E+01           0.35725225E+00
   0.22500000E+01           0.35773817E+00
   0.22600000E+01           0.35804050E+00
   0.22700000E+01           0.35858350E+00
   0.22800000E+01           0.35912208E+00
   0.22900000E+01           0.35981308E+00
   0.23000000E+01           0.36005333E+00
   0.23100000E+01           0.36027625E+00
   0.23200000E+01           0.36091225E+00
   0.23300000E+01           0.36146242E+00
   0.23400000E+01           0.36143408E+00
   0.23500000E+01           0.36175558E+00
   0.23600000E+01           0.36247600E+00
   0.23700000E+01           0.36262683E+00
   0.23800000E+01           0.36291383E+00
   0.23900000E+01           0.36309067E+00
   0.24000000E+01           0.36325817E+00
   0.24100000E+01           0.36337042E+00
   0.24200000E+01           0.36384550E+00
   0.24300000E+01           0.36353042E+00
   0.24400000E+01           0.36368800E+00
   0.24500000E+01           0.36379408E+00
   0.24600000E+01           0.36393350E+00
   0.24700000E+01           0.36411075E+00
   0.24800000E+01           0.36409508E+00
   0.24900000E+01           0.36420008E+00
   0.25000000E+01           0.36401900E+00
   0.25100000E+01           0.36377633E+00
   0.25200000E+01           0.36393525E+00
   0.25300000E+01           0.36374567E+00
   0.25400000E+01           0.36383867E+00
   0.25500000E+01           0.36364792E+00
   0.25600000E+01           0.36355050E+00
   0.25700000E+01           0.36338725E+00
   0.25800000E+01           0.36267100E+00
   0.25900000E+01           0.36288192E+00
   0.26000000E+01           0.36272458E+00
   0.26100000E+01           0.36237275E+00
   0.26200000E+01           0.36216492E+00
   0.26300000E+01           0.36161592E+00
   0.26400000E+01           0.36116658E+00
   0.26500000E+01           0.36094258E+00
   0.26600000E+01           0.36031175E+00
   0.26700000E+01           0.36001767E+00
   0.26800000E+01           0.35973217E+00
   0.26900000E+01           0.35922958E+00
   0.27000000E+01           0.35894150E+00
   0.27100000E+01           0.35820967E+00
   0.27200000E+01           0.35742067E+00
   0.27300000E+01           0.35689408E+00
   0.27400000E+01           0.35667200E+00
   0.27500000E+01           0.35587408E+00
   0.27600000E+01           0.35558800E+00
   0.27700000E+01           0.35503392E+00
   0.27800000E+01           0.35423608E+00
   0.27900000E+01           0.35344708E+00
   0.28000000E+01           0.35254358E+00
   0.28100000E+01           0.35191158E+00
   0.28200000E+01           0.35116158E+00
   0.28300000E+01           0.35040925E+00
   0.28400000E+01           0.34984533E+00
   0.28500000E+01           0.34903600E+00
   0.28600000E+01           0.34807758E+00
   0.28700000E+01           0.34724425E+00
   0.28800000E+01           0.34614108E+00
   0.28900000E+01           0.34550708E+00
   0.29000000E+01           0.34459917E+00
   0.29100000E+01           0.34374567E+00
   0.29200000E+01           0.34259258E+00
   0.29300000E+01           0.34163458E+00
   0.29400000E+01           0.34087508E+00
   0.29500000E+01           0.34017083E+00
   0.29600000E+01           0.33872683E+00
   0.29700000E+01           0.33795825E+00
   0.29800000E+01           0.33672342E+00
   0.29900000E+01           0.33585575E+00
   0.30000000E+01           0.33452842E+00
   0.30100000E+01           0.33366433E+00
   0.30200000E+01           0.33257767E+00
   0.30300000E+01           0.33104242E+00
   0.30400000E+01           0.33014775E+00
   0.30500000E+01           0.32911792E+00
   0.30600000E+01           0.32805975E+00
   0.30700000E+01           0.32662117E+00
   0.30800000E+01           0.32535317E+00
   0.30900000E+01           0.32428792E+00
   0.31000000E+01           0.32294050E+00
   0.31100000E+01           0.32164550E+00
   0.31200000E+01           0.32045600E+00
   0.31300000E+01           0.31930717E+00
   0.31400000E+01           0.31736392E+00
   0.31500000E+01           0.31636567E+00
   0.31600000E+01           0.31492725E+00
   0.31700000E+01           0.31384817E+00
   0.31800000E+01           0.31244350E+00
   0.31900000E+01           0.31093742E+00
   0.32000000E+01           0.30971358E+00
   0.32100000E+01           0.30839067E+00
   0.32200000E+01           0.30660283E+00
   0.32300000E+01           0.30488750E+00
   0.32400000E+01           0.30367200E+00
   0.32500000E+01           0.30251183E+00
   0.32600000E+01           0.30095142E+00
   0.32700000E+01           0.29928392E+00
   0.32800000E+01           0.29766675E+00
   0.32900000E+01           0.29639658E+00
   0.33000000E+01           0.29453958E+00
   0.33100000E+01           0.29339225E+00
   0.33200000E+01           0.29157400E+00
   0.33300000E+01           0.28999342E+00
   0.33400000E+01           0.28840292E+00
   0.33500000E+01           0.28690283E+00
   0.33600000E+01           0.28499283E+00
   0.33700000E+01           0.28336583E+00
   0.33800000E+01           0.28164092E+00
   0.33900000E+01           0.28046608E+00
   0.34000000E+01           0.27836442E+00
   0.34100000E+01           0.27694475E+00
   0.34200000E+01           0.27527750E+00
   0.34300000E+01           0.27366425E+00
   0.34400000E+01           0.27200725E+00
   0.34500000E+01           0.27029292E+00
   0.34600000E+01           0.26863775E+00
   0.34700000E+01           0.26666800E+00
   0.34800000E+01           0.26493492E+00
   0.34900000E+01           0.26331667E+00
   0.35000000E+01           0.26137583E+00
   0.35100000E+01           0.25990500E+00
   0.35200000E+01           0.25828625E+00
   0.35300000E+01           0.25630992E+00
   0.35400000E+01           0.25445450E+00
   0.35500000E+01           0.25267125E+00
   0.35600000E+01           0.25111783E+00
   0.35700000E+01           0.24913200E+00
   0.35800000E+01           0.24724233E+00
   0.35900000E+01           0.24564908E+00
   0.36000000E+01           0.24356950E+00
   0.36100000E+01           0.24190842E+00
   0.36200000E+01           0.24004083E+00
   0.36300000E+01           0.23818967E+00
   0.36400000E+01           0.23652075E+00
   0.36500000E+01           0.23477217E+00
   0.36600000E+01           0.23308008E+00
   0.36700000E+01           0.23099108E+00
   0.36800000E+01           0.22891050E+00
   0.36900000E+01           0.22734067E+00
   0.37000000E+01           0.22556575E+00
   0.37100000E+01           0.22361025E+00
   0.37200000E+01           0.22177475E+00
   0.37300000E+01           0.22011667E+00
   0.37400000E+01           0.21816808E+00
   0.37500000E+01           0.21633600E+00
   0.37600000E+01           0.21453442E+00
   0.37700000E+01           0.21230175E+00
   0.37800000E+01           0.21054142E+00
   0.37900000E+01           0.20901375E+00
   0.38000000E+01           0.20701625E+00
   0.38100000E+01           0.20523208E+00
   0.38200000E+01           0.20328767E+00
   0.38300000E+01           0.20152867E+00
   0.38400000E+01           0.19947600E+00
   0.38500000E+01           0.19778292E+00
   0.38600000E+01           0.19566617E+00
   0.38700000E+01           0.19405683E+00
   0.38800000E+01           0.19220567E+00
   0.38900000E+01           0.19039433E+00
   0.39000000E+01           0.18850767E+00
   0.39100000E+01           0.18665567E+00
   0.39200000E+01           0.18485600E+00
   0.39300000E+01           0.18308458E+00
   0.39400000E+01           0.18092900E+00
   0.39500000E+01           0.17942342E+00
   0.39600000E+01           0.17748200E+00
   0.39700000E+01           0.17566642E+00
   0.39800000E+01           0.17403200E+00
   0.39900000E+01           0.17204983E+00
   0.40000000E+01           0.17041342E+00
   0.40100000E+01           0.16836342E+00
   0.40200000E+01           0.16678350E+00
   0.40300000E+01           0.16475642E+00
   0.40400000E+01           0.16327258E+00
   0.40500000E+01           0.16124850E+00
   0.40600000E+01           0.15963292E+00
   0.40700000E+01           0.15801000E+00
   0.40800000E+01           0.15606158E+00
   0.40900000E+01           0.15421567E+00
   0.41000000E+01           0.15253817E+00
   0.41100000E+01           0.15079808E+00
   0.41200000E+01           0.14916242E+00
   0.41300000E+01           0.14730717E+00
   0.41400000E+01           0.14563592E+00
   0.41500000E+01           0.14380133E+00
   0.41600000E+01           0.14199067E+00
   0.41700000E+01           0.14031933E+00
   0.41800000E+01           0.13877267E+00
   0.41900000E+01           0.13684150E+00
   0.42000000E+01           0.13519400E+00
   0.42100000E+01           0.13387058E+00
   0.42200000E+01           0.13198967E+00
   0.42300000E+01           0.13009725E+00
   0.42400000E+01           0.12857450E+00
   0.42500000E+01           0.12693667E+00
   0.42600000E+01           0.12541375E+00
   0.42700000E+01           0.12381817E+00
   0.42800000E+01           0.12174467E+00
   0.42900000E+01           0.12038175E+00
   0.43000000E+01           0.11872725E+00
   0.43100000E+01           0.11693325E+00
   0.43200000E+01           0.11540025E+00
   0.43300000E+01           0.11401917E+00
   0.43400000E+01           0.11209125E+00
   0.43500000E+01           0.11071558E+00
   0.43600000E+01           0.10928883E+00
   0.43700000E+01           0.10746817E+00
   0.43800000E+01           0.10616208E+00
   0.43900000E+01           0.10447500E+00
   0.44000000E+01           0.10288933E+00
   0.44100000E+01           0.10145458E+00
   0.44200000E+01           0.99771667E-01
   0.44300000E+01           0.98381500E-01
   0.44400000E+01           0.96865500E-01
   0.44500000E+01           0.95470000E-01
   0.44600000E+01           0.93698917E-01
   0.44700000E+01           0.92268583E-01
   0.44800000E+01           0.90914917E-01
   0.44900000E+01           0.89388083E-01
   0.45000000E+01           0.88047917E-01
   0.45100000E+01           0.86314000E-01
   0.45200000E+01           0.85201500E-01
   0.45300000E+01           0.83663500E-01
   0.45400000E+01           0.82353250E-01
   0.45500000E+01           0.80927667E-01
   0.45600000E+01           0.79442750E-01
   0.45700000E+01           0.77947167E-01
   0.45800000E+01           0.76694083E-01
   0.45900000E+01           0.75385917E-01
   0.46000000E+01           0.73979000E-01
   0.46100000E+01           0.72464250E-01
   0.46200000E+01           0.71449583E-01
   0.46300000E+01           0.70003083E-01
   0.46400000E+01           0.68661500E-01
   0.46500000E+01           0.67320833E-01
   0.46600000E+01           0.66014250E-01
   0.46700000E+01           0.64919500E-01
   0.46800000E+01           0.63643667E-01
   0.46900000E+01           0.62358833E-01
   0.47000000E+01           0.61096500E-01
   0.47100000E+01           0.59839167E-01
   0.47200000E+01           0.58528917E-01
   0.47300000E+01           0.57541917E-01
   0.47400000E+01           0.56257917E-01
   0.47500000E+01           0.55089917E-01
   0.47600000E+01           0.53954833E-01
   0.47700000E+01           0.52752083E-01
   0.47800000E+01           0.51589750E-01
   0.47900000E+01           0.50336667E-01
   0.48000000E+01           0.49307417E-01
   0.48100000E+01           0.48270833E-01
   0.48200000E+01           0.47113167E-01
   0.48300000E+01           0.46039667E-01
   0.48400000E+01           0.45047333E-01
   0.48500000E+01           0.44034917E-01
   0.48600000E+01           0.42928167E-01
   0.48700000E+01           0.41843833E-01
   0.48800000E+01           0.40958000E-01
   0.48900000E+01           0.39754167E-01
   0.49000000E+01           0.38882833E-01
   0.49100000E+01           0.37978583E-01
   0.49200000E+01           0.36857333E-01
   0.49300000E+01           0.35900667E-01
   0.49400000E+01           0.35024167E-01
   0.49500000E+01           0.34153833E-01
   0.49600000E+01           0.33128917E-01
   0.49700000E+01           0.32344417E-01
   0.49800000E+01           0.31367917E-01
   0.49900000E+01           0.30506417E-01
   0.50000000E+01           0.29646083E-01
   0.50100000E+01           0.28775500E-01
   0.50200000E+01           0.27929917E-01
   0.50300000E+01           0.27147417E-01
   0.50400000E+01           0.26414083E-01
   0.50500000E+01           0.25578417E-01
   0.50600000E+01           0.24736250E-01
   0.50700000E+01           0.24062167E-01
   0.50800000E+01           0.23150250E-01
   0.50900000E+01           0.22540167E-01
   0.51000000E+01           0.21816250E-01
   0.51100000E+01           0.21120667E-01
   0.51200000E+01           0.20364500E-01
   0.51300000E+01           0.19752500E-01
   0.51400000E+01           0.18994000E-01
   0.51500000E+01           0.18307250E-01
   0.51600000E+01           0.17741667E-01
   0.51700000E+01           0.17154583E-01
   0.51800000E+01           0.16482583E-01
   0.51900000E+01           0.15828500E-01
   0.52000000E+01           0.15284500E-01
   0.52100000E+01           0.14680583E-01
   0.52200000E+01           0.14108167E-01
   0.52300000E+01           0.13624250E-01
   0.52400000E+01           0.13068417E-01
   0.52500000E+01           0.12544750E-01
   0.52600000E+01           0.11985333E-01
   0.52700000E+01           0.11477667E-01
   0.52800000E+01           0.11028583E-01
   0.52900000E+01           0.10566833E-01
   0.53000000E+01           0.10019417E-01
   0.53100000E+01           0.96225000E-02
   0.53200000E+01           0.91917500E-02
   0.53300000E+01           0.87475000E-02
   0.53400000E+01           0.83730833E-02
   0.53500000E+01           0.79560833E-02
   0.53600000E+01           0.75354167E-02
   0.53700000E+01           0.71802500E-02
   0.53800000E+01           0.67952500E-02
   0.53900000E+01           0.64986667E-02
   0.54000000E+01           0.61286667E-02
   0.54100000E+01           0.58282500E-02
   0.54200000E+01           0.55252500E-02
   0.54300000E+01           0.52085000E-02
   0.54400000E+01           0.48725000E-02
   0.54500000E+01           0.46194167E-02
   0.54600000E+01           0.43365833E-02
   0.54700000E+01           0.40314167E-02
   0.54800000E+01           0.38365000E-02
   0.54900000E+01           0.35655000E-02
   0.55000000E+01           0.33315833E-02
   0.55100000E+01           0.31310833E-02
   0.55200000E+01           0.29415000E-02
   0.55300000E+01           0.26945833E-02
   0.55400000E+01           0.25085833E-02
   0.55500000E+01           0.23259167E-02
   0.55600000E+01           0.21603333E-02
   0.55700000E+01           0.19931667E-02
   0.55800000E+01           0.18462500E-02
   0.55900000E+01           0.16928333E-02
   0.56000000E+01           0.15555833E-02
   0.56100000E+01           0.14315000E-02
   0.56200000E+01           0.13024167E-02
   0.56300000E+01           0.11977500E-02
   0.56400000E+01           0.10788333E-02
   0.56500000E+01           0.97466667E-03
   0.56600000E+01           0.89100000E-03
   0.56700000E+01           0.78850000E-03
   0.56800000E+01           0.70233333E-03
   0.56900000E+01           0.64208333E-03
   0.57000000E+01           0.55941667E-03
   0.57100000E+01           0.49050000E-03
   0.57200000E+01           0.43291667E-03
   0.57300000E+01           0.38891667E-03
   0.57400000E+01           0.33666667E-03
   0.57500000E+01           0.29658333E-03
   0.57600000E+01           0.25291667E-03
   0.57700000E+01           0.21475000E-03
   0.57800000E+01           0.18166667E-03
   0.57900000E+01           0.14683333E-03
   0.58000000E+01           0.12841667E-03
   0.58100000E+01           0.10350000E-03
   0.58200000E+01           0.84666667E-04
   0.58300000E+01           0.71583333E-04
   0.58400000E+01           0.52250000E-04
   0.58500000E+01           0.45166667E-04
   0.58600000E+01           0.31916667E-04
   0.58700000E+01           0.25333333E-04
   0.58800000E+01           0.18000000E-04
   0.58900000E+01           0.11500000E-04
   0.59000000E+01           0.10000000E-04
   0.59100000E+01           0.55000000E-05
   0.59200000E+01           0.30000000E-05
   0.59300000E+01           0.31666667E-05
   0.59400000E+01           0.16666667E-05
   0.59500000E+01           0.66666667E-06
   0.59600000E+01           0.25000000E-06
   0.59700000E+01           0.83333333E-07
   0.59800000E+01           0.00000000E+00
   0.59900000E+01           0.00000000E+00
   0.60000000E+01           0.00000000E+00
