 #written on  6Dec2024 at 16:52:30 
 #----------------- MONTECARLO -------------------#
 #        M                      P(M)             #
 #------------------------------------------------#
 #T=    46.0000
  -0.20000000E+01           0.00000000E+00
  -0.19900000E+01           0.00000000E+00
  -0.19800000E+01           0.00000000E+00
  -0.19700000E+01           0.00000000E+00
  -0.19600000E+01           0.00000000E+00
  -0.19500000E+01           0.00000000E+00
  -0.19400000E+01           0.00000000E+00
  -0.19300000E+01           0.00000000E+00
  -0.19200000E+01           0.00000000E+00
  -0.19100000E+01           0.00000000E+00
  -0.19000000E+01           0.00000000E+00
  -0.18900000E+01           0.00000000E+00
  -0.18800000E+01           0.00000000E+00
  -0.18700000E+01           0.00000000E+00
  -0.18600000E+01           0.00000000E+00
  -0.18500000E+01           0.00000000E+00
  -0.18400000E+01           0.00000000E+00
  -0.18300000E+01           0.00000000E+00
  -0.18200000E+01           0.00000000E+00
  -0.18100000E+01           0.00000000E+00
  -0.18000000E+01           0.00000000E+00
  -0.17900000E+01           0.00000000E+00
  -0.17800000E+01           0.00000000E+00
  -0.17700000E+01           0.00000000E+00
  -0.17600000E+01           0.00000000E+00
  -0.17500000E+01           0.00000000E+00
  -0.17400000E+01           0.00000000E+00
  -0.17300000E+01           0.00000000E+00
  -0.17200000E+01           0.00000000E+00
  -0.17100000E+01           0.00000000E+00
  -0.17000000E+01           0.00000000E+00
  -0.16900000E+01           0.00000000E+00
  -0.16800000E+01           0.00000000E+00
  -0.16700000E+01           0.00000000E+00
  -0.16600000E+01           0.00000000E+00
  -0.16500000E+01           0.00000000E+00
  -0.16400000E+01           0.00000000E+00
  -0.16300000E+01           0.00000000E+00
  -0.16200000E+01           0.00000000E+00
  -0.16100000E+01           0.00000000E+00
  -0.16000000E+01           0.00000000E+00
  -0.15900000E+01           0.00000000E+00
  -0.15800000E+01           0.00000000E+00
  -0.15700000E+01           0.00000000E+00
  -0.15600000E+01           0.00000000E+00
  -0.15500000E+01           0.00000000E+00
  -0.15400000E+01           0.00000000E+00
  -0.15300000E+01           0.00000000E+00
  -0.15200000E+01           0.00000000E+00
  -0.15100000E+01           0.00000000E+00
  -0.15000000E+01           0.00000000E+00
  -0.14900000E+01           0.00000000E+00
  -0.14800000E+01           0.00000000E+00
  -0.14700000E+01           0.00000000E+00
  -0.14600000E+01           0.00000000E+00
  -0.14500000E+01           0.00000000E+00
  -0.14400000E+01           0.00000000E+00
  -0.14300000E+01           0.00000000E+00
  -0.14200000E+01           0.00000000E+00
  -0.14100000E+01           0.00000000E+00
  -0.14000000E+01           0.00000000E+00
  -0.13900000E+01           0.00000000E+00
  -0.13800000E+01           0.00000000E+00
  -0.13700000E+01           0.00000000E+00
  -0.13600000E+01           0.00000000E+00
  -0.13500000E+01           0.00000000E+00
  -0.13400000E+01           0.00000000E+00
  -0.13300000E+01           0.00000000E+00
  -0.13200000E+01           0.00000000E+00
  -0.13100000E+01           0.00000000E+00
  -0.13000000E+01           0.00000000E+00
  -0.12900000E+01           0.00000000E+00
  -0.12800000E+01           0.00000000E+00
  -0.12700000E+01           0.00000000E+00
  -0.12600000E+01           0.00000000E+00
  -0.12500000E+01           0.00000000E+00
  -0.12400000E+01           0.00000000E+00
  -0.12300000E+01           0.00000000E+00
  -0.12200000E+01           0.00000000E+00
  -0.12100000E+01           0.00000000E+00
  -0.12000000E+01           0.00000000E+00
  -0.11900000E+01           0.00000000E+00
  -0.11800000E+01           0.00000000E+00
  -0.11700000E+01           0.00000000E+00
  -0.11600000E+01           0.00000000E+00
  -0.11500000E+01           0.00000000E+00
  -0.11400000E+01           0.00000000E+00
  -0.11300000E+01           0.00000000E+00
  -0.11200000E+01           0.00000000E+00
  -0.11100000E+01           0.00000000E+00
  -0.11000000E+01           0.00000000E+00
  -0.10900000E+01           0.00000000E+00
  -0.10800000E+01           0.00000000E+00
  -0.10700000E+01           0.00000000E+00
  -0.10600000E+01           0.00000000E+00
  -0.10500000E+01           0.00000000E+00
  -0.10400000E+01           0.00000000E+00
  -0.10300000E+01           0.00000000E+00
  -0.10200000E+01           0.00000000E+00
  -0.10100000E+01           0.00000000E+00
  -0.10000000E+01           0.00000000E+00
  -0.99000000E+00           0.00000000E+00
  -0.98000000E+00           0.00000000E+00
  -0.97000000E+00           0.00000000E+00
  -0.96000000E+00           0.00000000E+00
  -0.95000000E+00           0.00000000E+00
  -0.94000000E+00           0.00000000E+00
  -0.93000000E+00           0.00000000E+00
  -0.92000000E+00           0.00000000E+00
  -0.91000000E+00           0.00000000E+00
  -0.90000000E+00           0.00000000E+00
  -0.89000000E+00           0.00000000E+00
  -0.88000000E+00           0.00000000E+00
  -0.87000000E+00           0.00000000E+00
  -0.86000000E+00           0.00000000E+00
  -0.85000000E+00           0.00000000E+00
  -0.84000000E+00           0.00000000E+00
  -0.83000000E+00           0.00000000E+00
  -0.82000000E+00           0.00000000E+00
  -0.81000000E+00           0.00000000E+00
  -0.80000000E+00           0.00000000E+00
  -0.79000000E+00           0.00000000E+00
  -0.78000000E+00           0.00000000E+00
  -0.77000000E+00           0.00000000E+00
  -0.76000000E+00           0.00000000E+00
  -0.75000000E+00           0.00000000E+00
  -0.74000000E+00           0.00000000E+00
  -0.73000000E+00           0.00000000E+00
  -0.72000000E+00           0.00000000E+00
  -0.71000000E+00           0.00000000E+00
  -0.70000000E+00           0.00000000E+00
  -0.69000000E+00           0.00000000E+00
  -0.68000000E+00           0.00000000E+00
  -0.67000000E+00           0.00000000E+00
  -0.66000000E+00           0.00000000E+00
  -0.65000000E+00           0.00000000E+00
  -0.64000000E+00           0.00000000E+00
  -0.63000000E+00           0.00000000E+00
  -0.62000000E+00           0.00000000E+00
  -0.61000000E+00           0.00000000E+00
  -0.60000000E+00           0.00000000E+00
  -0.59000000E+00           0.00000000E+00
  -0.58000000E+00           0.00000000E+00
  -0.57000000E+00           0.00000000E+00
  -0.56000000E+00           0.00000000E+00
  -0.55000000E+00           0.00000000E+00
  -0.54000000E+00           0.00000000E+00
  -0.53000000E+00           0.00000000E+00
  -0.52000000E+00           0.00000000E+00
  -0.51000000E+00           0.00000000E+00
  -0.50000000E+00           0.00000000E+00
  -0.49000000E+00           0.00000000E+00
  -0.48000000E+00           0.00000000E+00
  -0.47000000E+00           0.00000000E+00
  -0.46000000E+00           0.00000000E+00
  -0.45000000E+00           0.00000000E+00
  -0.44000000E+00           0.00000000E+00
  -0.43000000E+00           0.00000000E+00
  -0.42000000E+00           0.00000000E+00
  -0.41000000E+00           0.00000000E+00
  -0.40000000E+00           0.00000000E+00
  -0.39000000E+00           0.00000000E+00
  -0.38000000E+00           0.00000000E+00
  -0.37000000E+00           0.00000000E+00
  -0.36000000E+00           0.00000000E+00
  -0.35000000E+00           0.00000000E+00
  -0.34000000E+00           0.00000000E+00
  -0.33000000E+00           0.00000000E+00
  -0.32000000E+00           0.00000000E+00
  -0.31000000E+00           0.00000000E+00
  -0.30000000E+00           0.00000000E+00
  -0.29000000E+00           0.00000000E+00
  -0.28000000E+00           0.00000000E+00
  -0.27000000E+00           0.00000000E+00
  -0.26000000E+00           0.00000000E+00
  -0.25000000E+00           0.00000000E+00
  -0.24000000E+00           0.00000000E+00
  -0.23000000E+00           0.00000000E+00
  -0.22000000E+00           0.00000000E+00
  -0.21000000E+00           0.00000000E+00
  -0.20000000E+00           0.00000000E+00
  -0.19000000E+00           0.00000000E+00
  -0.18000000E+00           0.00000000E+00
  -0.17000000E+00           0.00000000E+00
  -0.16000000E+00           0.00000000E+00
  -0.15000000E+00           0.00000000E+00
  -0.14000000E+00           0.00000000E+00
  -0.13000000E+00           0.00000000E+00
  -0.12000000E+00           0.00000000E+00
  -0.11000000E+00           0.00000000E+00
  -0.10000000E+00           0.00000000E+00
  -0.90000000E-01           0.00000000E+00
  -0.80000000E-01           0.00000000E+00
  -0.70000000E-01           0.00000000E+00
  -0.60000000E-01           0.00000000E+00
  -0.50000000E-01           0.00000000E+00
  -0.40000000E-01           0.00000000E+00
  -0.30000000E-01           0.00000000E+00
  -0.20000000E-01           0.00000000E+00
  -0.10000000E-01           0.00000000E+00
   0.00000000E+00           0.34188000E-02
   0.10000000E-01           0.27498500E-01
   0.20000000E-01           0.54917900E-01
   0.30000000E-01           0.81826800E-01
   0.40000000E-01           0.10955550E+00
   0.50000000E-01           0.13685380E+00
   0.60000000E-01           0.16373070E+00
   0.70000000E-01           0.19049740E+00
   0.80000000E-01           0.21660990E+00
   0.90000000E-01           0.24265840E+00
   0.10000000E+00           0.26687330E+00
   0.11000000E+00           0.29283220E+00
   0.12000000E+00           0.31690870E+00
   0.13000000E+00           0.34215340E+00
   0.14000000E+00           0.36508500E+00
   0.15000000E+00           0.38806610E+00
   0.16000000E+00           0.41020070E+00
   0.17000000E+00           0.43190250E+00
   0.18000000E+00           0.45315130E+00
   0.19000000E+00           0.47420380E+00
   0.20000000E+00           0.49323540E+00
   0.21000000E+00           0.51250840E+00
   0.22000000E+00           0.53130190E+00
   0.23000000E+00           0.54847970E+00
   0.24000000E+00           0.56359390E+00
   0.25000000E+00           0.57942000E+00
   0.26000000E+00           0.59401940E+00
   0.27000000E+00           0.60891010E+00
   0.28000000E+00           0.62192530E+00
   0.29000000E+00           0.63382160E+00
   0.30000000E+00           0.64592750E+00
   0.31000000E+00           0.65501750E+00
   0.32000000E+00           0.66535210E+00
   0.33000000E+00           0.67407350E+00
   0.34000000E+00           0.68306870E+00
   0.35000000E+00           0.68946260E+00
   0.36000000E+00           0.69519390E+00
   0.37000000E+00           0.70123780E+00
   0.38000000E+00           0.70313730E+00
   0.39000000E+00           0.70785120E+00
   0.40000000E+00           0.71125140E+00
   0.41000000E+00           0.71208950E+00
   0.42000000E+00           0.71369970E+00
   0.43000000E+00           0.71324540E+00
   0.44000000E+00           0.71373110E+00
   0.45000000E+00           0.71084070E+00
   0.46000000E+00           0.70900650E+00
   0.47000000E+00           0.70665450E+00
   0.48000000E+00           0.70271180E+00
   0.49000000E+00           0.69865500E+00
   0.50000000E+00           0.69326700E+00
   0.51000000E+00           0.68940470E+00
   0.52000000E+00           0.68204800E+00
   0.53000000E+00           0.67646730E+00
   0.54000000E+00           0.66815360E+00
   0.55000000E+00           0.66150570E+00
   0.56000000E+00           0.65248250E+00
   0.57000000E+00           0.64412080E+00
   0.58000000E+00           0.63515830E+00
   0.59000000E+00           0.62522640E+00
   0.60000000E+00           0.61513270E+00
   0.61000000E+00           0.60541390E+00
   0.62000000E+00           0.59573790E+00
   0.63000000E+00           0.58335460E+00
   0.64000000E+00           0.57222180E+00
   0.65000000E+00           0.56078250E+00
   0.66000000E+00           0.54933520E+00
   0.67000000E+00           0.53767300E+00
   0.68000000E+00           0.52559790E+00
   0.69000000E+00           0.51387690E+00
   0.70000000E+00           0.50090280E+00
   0.71000000E+00           0.48904050E+00
   0.72000000E+00           0.47673190E+00
   0.73000000E+00           0.46479110E+00
   0.74000000E+00           0.45152440E+00
   0.75000000E+00           0.43989300E+00
   0.76000000E+00           0.42691500E+00
   0.77000000E+00           0.41452300E+00
   0.78000000E+00           0.40204530E+00
   0.79000000E+00           0.39013960E+00
   0.80000000E+00           0.37757660E+00
   0.81000000E+00           0.36588030E+00
   0.82000000E+00           0.35442100E+00
   0.83000000E+00           0.34264110E+00
   0.84000000E+00           0.33087050E+00
   0.85000000E+00           0.31853530E+00
   0.86000000E+00           0.30796960E+00
   0.87000000E+00           0.29637580E+00
   0.88000000E+00           0.28582420E+00
   0.89000000E+00           0.27523390E+00
   0.90000000E+00           0.26466350E+00
   0.91000000E+00           0.25447700E+00
   0.92000000E+00           0.24459530E+00
   0.93000000E+00           0.23475520E+00
   0.94000000E+00           0.22512770E+00
   0.95000000E+00           0.21600840E+00
   0.96000000E+00           0.20674890E+00
   0.97000000E+00           0.19782970E+00
   0.98000000E+00           0.18936080E+00
   0.99000000E+00           0.18100700E+00
   0.10000000E+01           0.17283260E+00
   0.10100000E+01           0.16480070E+00
   0.10200000E+01           0.15770440E+00
   0.10300000E+01           0.15009550E+00
   0.10400000E+01           0.14327100E+00
   0.10500000E+01           0.13638050E+00
   0.10600000E+01           0.12974370E+00
   0.10700000E+01           0.12336400E+00
   0.10800000E+01           0.11713460E+00
   0.10900000E+01           0.11158160E+00
   0.11000000E+01           0.10565760E+00
   0.11100000E+01           0.10072040E+00
   0.11200000E+01           0.95532500E-01
   0.11300000E+01           0.90676900E-01
   0.11400000E+01           0.85910300E-01
   0.11500000E+01           0.81246300E-01
   0.11600000E+01           0.77284700E-01
   0.11700000E+01           0.72984800E-01
   0.11800000E+01           0.69210000E-01
   0.11900000E+01           0.65658100E-01
   0.12000000E+01           0.61921400E-01
   0.12100000E+01           0.58634500E-01
   0.12200000E+01           0.55607900E-01
   0.12300000E+01           0.52805400E-01
   0.12400000E+01           0.49863400E-01
   0.12500000E+01           0.47548900E-01
   0.12600000E+01           0.45091800E-01
   0.12700000E+01           0.42950200E-01
   0.12800000E+01           0.40841700E-01
   0.12900000E+01           0.38902700E-01
   0.13000000E+01           0.37173800E-01
   0.13100000E+01           0.35651600E-01
   0.13200000E+01           0.34131800E-01
   0.13300000E+01           0.32961000E-01
   0.13400000E+01           0.31811200E-01
   0.13500000E+01           0.30909200E-01
   0.13600000E+01           0.30186200E-01
   0.13700000E+01           0.29357000E-01
   0.13800000E+01           0.28904000E-01
   0.13900000E+01           0.28675700E-01
   0.14000000E+01           0.28525800E-01
   0.14100000E+01           0.28536500E-01
   0.14200000E+01           0.28768500E-01
   0.14300000E+01           0.29140400E-01
   0.14400000E+01           0.29878500E-01
   0.14500000E+01           0.30655700E-01
   0.14600000E+01           0.31626000E-01
   0.14700000E+01           0.32875600E-01
   0.14800000E+01           0.34505400E-01
   0.14900000E+01           0.36345100E-01
   0.15000000E+01           0.38527800E-01
   0.15100000E+01           0.40903000E-01
   0.15200000E+01           0.43689500E-01
   0.15300000E+01           0.46773700E-01
   0.15400000E+01           0.50317300E-01
   0.15500000E+01           0.54355000E-01
   0.15600000E+01           0.58828100E-01
   0.15700000E+01           0.63934900E-01
   0.15800000E+01           0.69732400E-01
   0.15900000E+01           0.76208200E-01
   0.16000000E+01           0.83139100E-01
   0.16100000E+01           0.91005100E-01
   0.16200000E+01           0.99864200E-01
   0.16300000E+01           0.10969490E+00
   0.16400000E+01           0.12037960E+00
   0.16500000E+01           0.13296730E+00
   0.16600000E+01           0.14610320E+00
   0.16700000E+01           0.16118240E+00
   0.16800000E+01           0.17787820E+00
   0.16900000E+01           0.19650860E+00
   0.17000000E+01           0.21693180E+00
   0.17100000E+01           0.24004130E+00
   0.17200000E+01           0.26591940E+00
   0.17300000E+01           0.29478940E+00
   0.17400000E+01           0.32645420E+00
   0.17500000E+01           0.36187710E+00
   0.17600000E+01           0.40104890E+00
   0.17700000E+01           0.44570970E+00
   0.17800000E+01           0.49469700E+00
   0.17900000E+01           0.54981660E+00
   0.18000000E+01           0.61110230E+00
   0.18100000E+01           0.67989300E+00
   0.18200000E+01           0.75649620E+00
   0.18300000E+01           0.84165480E+00
   0.18400000E+01           0.93720110E+00
   0.18500000E+01           0.10446212E+01
   0.18600000E+01           0.11629570E+01
   0.18700000E+01           0.12981673E+01
   0.18800000E+01           0.14480150E+01
   0.18900000E+01           0.16150601E+01
   0.19000000E+01           0.18024976E+01
   0.19100000E+01           0.20125181E+01
   0.19200000E+01           0.22474228E+01
   0.19300000E+01           0.25121198E+01
   0.19400000E+01           0.28094721E+01
   0.19500000E+01           0.31409165E+01
   0.19600000E+01           0.35137403E+01
   0.19700000E+01           0.39321048E+01
   0.19800000E+01           0.44006522E+01
   0.19900000E+01           0.49324077E+01
   0.20000000E+01           0.26833879E+01
 #T=    47.0000
  -0.20000000E+01           0.00000000E+00
  -0.19900000E+01           0.00000000E+00
  -0.19800000E+01           0.00000000E+00
  -0.19700000E+01           0.00000000E+00
  -0.19600000E+01           0.00000000E+00
  -0.19500000E+01           0.00000000E+00
  -0.19400000E+01           0.00000000E+00
  -0.19300000E+01           0.00000000E+00
  -0.19200000E+01           0.00000000E+00
  -0.19100000E+01           0.00000000E+00
  -0.19000000E+01           0.00000000E+00
  -0.18900000E+01           0.00000000E+00
  -0.18800000E+01           0.00000000E+00
  -0.18700000E+01           0.00000000E+00
  -0.18600000E+01           0.00000000E+00
  -0.18500000E+01           0.00000000E+00
  -0.18400000E+01           0.00000000E+00
  -0.18300000E+01           0.00000000E+00
  -0.18200000E+01           0.00000000E+00
  -0.18100000E+01           0.00000000E+00
  -0.18000000E+01           0.00000000E+00
  -0.17900000E+01           0.00000000E+00
  -0.17800000E+01           0.00000000E+00
  -0.17700000E+01           0.00000000E+00
  -0.17600000E+01           0.00000000E+00
  -0.17500000E+01           0.00000000E+00
  -0.17400000E+01           0.00000000E+00
  -0.17300000E+01           0.00000000E+00
  -0.17200000E+01           0.00000000E+00
  -0.17100000E+01           0.00000000E+00
  -0.17000000E+01           0.00000000E+00
  -0.16900000E+01           0.00000000E+00
  -0.16800000E+01           0.00000000E+00
  -0.16700000E+01           0.00000000E+00
  -0.16600000E+01           0.00000000E+00
  -0.16500000E+01           0.00000000E+00
  -0.16400000E+01           0.00000000E+00
  -0.16300000E+01           0.00000000E+00
  -0.16200000E+01           0.00000000E+00
  -0.16100000E+01           0.00000000E+00
  -0.16000000E+01           0.00000000E+00
  -0.15900000E+01           0.00000000E+00
  -0.15800000E+01           0.00000000E+00
  -0.15700000E+01           0.00000000E+00
  -0.15600000E+01           0.00000000E+00
  -0.15500000E+01           0.00000000E+00
  -0.15400000E+01           0.00000000E+00
  -0.15300000E+01           0.00000000E+00
  -0.15200000E+01           0.00000000E+00
  -0.15100000E+01           0.00000000E+00
  -0.15000000E+01           0.00000000E+00
  -0.14900000E+01           0.00000000E+00
  -0.14800000E+01           0.00000000E+00
  -0.14700000E+01           0.00000000E+00
  -0.14600000E+01           0.00000000E+00
  -0.14500000E+01           0.00000000E+00
  -0.14400000E+01           0.00000000E+00
  -0.14300000E+01           0.00000000E+00
  -0.14200000E+01           0.00000000E+00
  -0.14100000E+01           0.00000000E+00
  -0.14000000E+01           0.00000000E+00
  -0.13900000E+01           0.00000000E+00
  -0.13800000E+01           0.00000000E+00
  -0.13700000E+01           0.00000000E+00
  -0.13600000E+01           0.00000000E+00
  -0.13500000E+01           0.00000000E+00
  -0.13400000E+01           0.00000000E+00
  -0.13300000E+01           0.00000000E+00
  -0.13200000E+01           0.00000000E+00
  -0.13100000E+01           0.00000000E+00
  -0.13000000E+01           0.00000000E+00
  -0.12900000E+01           0.00000000E+00
  -0.12800000E+01           0.00000000E+00
  -0.12700000E+01           0.00000000E+00
  -0.12600000E+01           0.00000000E+00
  -0.12500000E+01           0.00000000E+00
  -0.12400000E+01           0.00000000E+00
  -0.12300000E+01           0.00000000E+00
  -0.12200000E+01           0.00000000E+00
  -0.12100000E+01           0.00000000E+00
  -0.12000000E+01           0.00000000E+00
  -0.11900000E+01           0.00000000E+00
  -0.11800000E+01           0.00000000E+00
  -0.11700000E+01           0.00000000E+00
  -0.11600000E+01           0.00000000E+00
  -0.11500000E+01           0.00000000E+00
  -0.11400000E+01           0.00000000E+00
  -0.11300000E+01           0.00000000E+00
  -0.11200000E+01           0.00000000E+00
  -0.11100000E+01           0.00000000E+00
  -0.11000000E+01           0.00000000E+00
  -0.10900000E+01           0.00000000E+00
  -0.10800000E+01           0.00000000E+00
  -0.10700000E+01           0.00000000E+00
  -0.10600000E+01           0.00000000E+00
  -0.10500000E+01           0.00000000E+00
  -0.10400000E+01           0.00000000E+00
  -0.10300000E+01           0.00000000E+00
  -0.10200000E+01           0.00000000E+00
  -0.10100000E+01           0.00000000E+00
  -0.10000000E+01           0.00000000E+00
  -0.99000000E+00           0.00000000E+00
  -0.98000000E+00           0.00000000E+00
  -0.97000000E+00           0.00000000E+00
  -0.96000000E+00           0.00000000E+00
  -0.95000000E+00           0.00000000E+00
  -0.94000000E+00           0.00000000E+00
  -0.93000000E+00           0.00000000E+00
  -0.92000000E+00           0.00000000E+00
  -0.91000000E+00           0.00000000E+00
  -0.90000000E+00           0.00000000E+00
  -0.89000000E+00           0.00000000E+00
  -0.88000000E+00           0.00000000E+00
  -0.87000000E+00           0.00000000E+00
  -0.86000000E+00           0.00000000E+00
  -0.85000000E+00           0.00000000E+00
  -0.84000000E+00           0.00000000E+00
  -0.83000000E+00           0.00000000E+00
  -0.82000000E+00           0.00000000E+00
  -0.81000000E+00           0.00000000E+00
  -0.80000000E+00           0.00000000E+00
  -0.79000000E+00           0.00000000E+00
  -0.78000000E+00           0.00000000E+00
  -0.77000000E+00           0.00000000E+00
  -0.76000000E+00           0.00000000E+00
  -0.75000000E+00           0.00000000E+00
  -0.74000000E+00           0.00000000E+00
  -0.73000000E+00           0.00000000E+00
  -0.72000000E+00           0.00000000E+00
  -0.71000000E+00           0.00000000E+00
  -0.70000000E+00           0.00000000E+00
  -0.69000000E+00           0.00000000E+00
  -0.68000000E+00           0.00000000E+00
  -0.67000000E+00           0.00000000E+00
  -0.66000000E+00           0.00000000E+00
  -0.65000000E+00           0.00000000E+00
  -0.64000000E+00           0.00000000E+00
  -0.63000000E+00           0.00000000E+00
  -0.62000000E+00           0.00000000E+00
  -0.61000000E+00           0.00000000E+00
  -0.60000000E+00           0.00000000E+00
  -0.59000000E+00           0.00000000E+00
  -0.58000000E+00           0.00000000E+00
  -0.57000000E+00           0.00000000E+00
  -0.56000000E+00           0.00000000E+00
  -0.55000000E+00           0.00000000E+00
  -0.54000000E+00           0.00000000E+00
  -0.53000000E+00           0.00000000E+00
  -0.52000000E+00           0.00000000E+00
  -0.51000000E+00           0.00000000E+00
  -0.50000000E+00           0.00000000E+00
  -0.49000000E+00           0.00000000E+00
  -0.48000000E+00           0.00000000E+00
  -0.47000000E+00           0.00000000E+00
  -0.46000000E+00           0.00000000E+00
  -0.45000000E+00           0.00000000E+00
  -0.44000000E+00           0.00000000E+00
  -0.43000000E+00           0.00000000E+00
  -0.42000000E+00           0.00000000E+00
  -0.41000000E+00           0.00000000E+00
  -0.40000000E+00           0.00000000E+00
  -0.39000000E+00           0.00000000E+00
  -0.38000000E+00           0.00000000E+00
  -0.37000000E+00           0.00000000E+00
  -0.36000000E+00           0.00000000E+00
  -0.35000000E+00           0.00000000E+00
  -0.34000000E+00           0.00000000E+00
  -0.33000000E+00           0.00000000E+00
  -0.32000000E+00           0.00000000E+00
  -0.31000000E+00           0.00000000E+00
  -0.30000000E+00           0.00000000E+00
  -0.29000000E+00           0.00000000E+00
  -0.28000000E+00           0.00000000E+00
  -0.27000000E+00           0.00000000E+00
  -0.26000000E+00           0.00000000E+00
  -0.25000000E+00           0.00000000E+00
  -0.24000000E+00           0.00000000E+00
  -0.23000000E+00           0.00000000E+00
  -0.22000000E+00           0.00000000E+00
  -0.21000000E+00           0.00000000E+00
  -0.20000000E+00           0.00000000E+00
  -0.19000000E+00           0.00000000E+00
  -0.18000000E+00           0.00000000E+00
  -0.17000000E+00           0.00000000E+00
  -0.16000000E+00           0.00000000E+00
  -0.15000000E+00           0.00000000E+00
  -0.14000000E+00           0.00000000E+00
  -0.13000000E+00           0.00000000E+00
  -0.12000000E+00           0.00000000E+00
  -0.11000000E+00           0.00000000E+00
  -0.10000000E+00           0.00000000E+00
  -0.90000000E-01           0.00000000E+00
  -0.80000000E-01           0.00000000E+00
  -0.70000000E-01           0.00000000E+00
  -0.60000000E-01           0.00000000E+00
  -0.50000000E-01           0.00000000E+00
  -0.40000000E-01           0.00000000E+00
  -0.30000000E-01           0.00000000E+00
  -0.20000000E-01           0.00000000E+00
  -0.10000000E-01           0.00000000E+00
   0.00000000E+00           0.33311000E-02
   0.10000000E-01           0.26722800E-01
   0.20000000E-01           0.53464000E-01
   0.30000000E-01           0.80121200E-01
   0.40000000E-01           0.10662280E+00
   0.50000000E-01           0.13280260E+00
   0.60000000E-01           0.15892910E+00
   0.70000000E-01           0.18481080E+00
   0.80000000E-01           0.20992320E+00
   0.90000000E-01           0.23550070E+00
   0.10000000E+00           0.26019070E+00
   0.11000000E+00           0.28368500E+00
   0.12000000E+00           0.30913170E+00
   0.13000000E+00           0.33194550E+00
   0.14000000E+00           0.35432240E+00
   0.15000000E+00           0.37769160E+00
   0.16000000E+00           0.39989640E+00
   0.17000000E+00           0.42022010E+00
   0.18000000E+00           0.44119440E+00
   0.19000000E+00           0.46097440E+00
   0.20000000E+00           0.48096950E+00
   0.21000000E+00           0.49886680E+00
   0.22000000E+00           0.51705870E+00
   0.23000000E+00           0.53431080E+00
   0.24000000E+00           0.55021270E+00
   0.25000000E+00           0.56590010E+00
   0.26000000E+00           0.58100560E+00
   0.27000000E+00           0.59498160E+00
   0.28000000E+00           0.60805780E+00
   0.29000000E+00           0.61916240E+00
   0.30000000E+00           0.63159850E+00
   0.31000000E+00           0.64174410E+00
   0.32000000E+00           0.65144520E+00
   0.33000000E+00           0.66075540E+00
   0.34000000E+00           0.66792970E+00
   0.35000000E+00           0.67543230E+00
   0.36000000E+00           0.68205800E+00
   0.37000000E+00           0.68718780E+00
   0.38000000E+00           0.69185000E+00
   0.39000000E+00           0.69591230E+00
   0.40000000E+00           0.69875390E+00
   0.41000000E+00           0.70021530E+00
   0.42000000E+00           0.70281460E+00
   0.43000000E+00           0.70248820E+00
   0.44000000E+00           0.70321740E+00
   0.45000000E+00           0.70181190E+00
   0.46000000E+00           0.70020000E+00
   0.47000000E+00           0.69884610E+00
   0.48000000E+00           0.69519660E+00
   0.49000000E+00           0.69090420E+00
   0.50000000E+00           0.68704600E+00
   0.51000000E+00           0.68215850E+00
   0.52000000E+00           0.67666020E+00
   0.53000000E+00           0.67069150E+00
   0.54000000E+00           0.66384470E+00
   0.55000000E+00           0.65622650E+00
   0.56000000E+00           0.64976500E+00
   0.57000000E+00           0.64149740E+00
   0.58000000E+00           0.63217380E+00
   0.59000000E+00           0.62389110E+00
   0.60000000E+00           0.61520600E+00
   0.61000000E+00           0.60561160E+00
   0.62000000E+00           0.59457540E+00
   0.63000000E+00           0.58396040E+00
   0.64000000E+00           0.57367660E+00
   0.65000000E+00           0.56331590E+00
   0.66000000E+00           0.55236250E+00
   0.67000000E+00           0.54155870E+00
   0.68000000E+00           0.52895610E+00
   0.69000000E+00           0.51757350E+00
   0.70000000E+00           0.50606150E+00
   0.71000000E+00           0.49364980E+00
   0.72000000E+00           0.48213930E+00
   0.73000000E+00           0.47004000E+00
   0.74000000E+00           0.45799740E+00
   0.75000000E+00           0.44562030E+00
   0.76000000E+00           0.43361500E+00
   0.77000000E+00           0.42179390E+00
   0.78000000E+00           0.40996040E+00
   0.79000000E+00           0.39798780E+00
   0.80000000E+00           0.38603530E+00
   0.81000000E+00           0.37403950E+00
   0.82000000E+00           0.36230810E+00
   0.83000000E+00           0.35094250E+00
   0.84000000E+00           0.33910190E+00
   0.85000000E+00           0.32766140E+00
   0.86000000E+00           0.31673440E+00
   0.87000000E+00           0.30604310E+00
   0.88000000E+00           0.29495720E+00
   0.89000000E+00           0.28452070E+00
   0.90000000E+00           0.27381710E+00
   0.91000000E+00           0.26395720E+00
   0.92000000E+00           0.25383770E+00
   0.93000000E+00           0.24411750E+00
   0.94000000E+00           0.23473980E+00
   0.95000000E+00           0.22514830E+00
   0.96000000E+00           0.21572420E+00
   0.97000000E+00           0.20738850E+00
   0.98000000E+00           0.19852100E+00
   0.99000000E+00           0.19021100E+00
   0.10000000E+01           0.18182770E+00
   0.10100000E+01           0.17415730E+00
   0.10200000E+01           0.16636430E+00
   0.10300000E+01           0.15899890E+00
   0.10400000E+01           0.15135730E+00
   0.10500000E+01           0.14465500E+00
   0.10600000E+01           0.13808650E+00
   0.10700000E+01           0.13152360E+00
   0.10800000E+01           0.12540570E+00
   0.10900000E+01           0.11929400E+00
   0.11000000E+01           0.11371260E+00
   0.11100000E+01           0.10800360E+00
   0.11200000E+01           0.10297020E+00
   0.11300000E+01           0.97664500E-01
   0.11400000E+01           0.92810100E-01
   0.11500000E+01           0.88073400E-01
   0.11600000E+01           0.83663400E-01
   0.11700000E+01           0.79475300E-01
   0.11800000E+01           0.75626400E-01
   0.11900000E+01           0.71637700E-01
   0.12000000E+01           0.68024700E-01
   0.12100000E+01           0.64599200E-01
   0.12200000E+01           0.61447400E-01
   0.12300000E+01           0.58172800E-01
   0.12400000E+01           0.55477000E-01
   0.12500000E+01           0.52545500E-01
   0.12600000E+01           0.50146600E-01
   0.12700000E+01           0.47755300E-01
   0.12800000E+01           0.45752100E-01
   0.12900000E+01           0.43744000E-01
   0.13000000E+01           0.41831600E-01
   0.13100000E+01           0.40202800E-01
   0.13200000E+01           0.38589400E-01
   0.13300000E+01           0.37358300E-01
   0.13400000E+01           0.36263000E-01
   0.13500000E+01           0.35051200E-01
   0.13600000E+01           0.34338100E-01
   0.13700000E+01           0.33662200E-01
   0.13800000E+01           0.33106400E-01
   0.13900000E+01           0.32858800E-01
   0.14000000E+01           0.32722500E-01
   0.14100000E+01           0.32711800E-01
   0.14200000E+01           0.32978500E-01
   0.14300000E+01           0.33450500E-01
   0.14400000E+01           0.34316400E-01
   0.14500000E+01           0.34963100E-01
   0.14600000E+01           0.36259400E-01
   0.14700000E+01           0.37632700E-01
   0.14800000E+01           0.39260900E-01
   0.14900000E+01           0.41266500E-01
   0.15000000E+01           0.43519800E-01
   0.15100000E+01           0.46008400E-01
   0.15200000E+01           0.49211000E-01
   0.15300000E+01           0.52566400E-01
   0.15400000E+01           0.56355500E-01
   0.15500000E+01           0.60680200E-01
   0.15600000E+01           0.65405300E-01
   0.15700000E+01           0.70903000E-01
   0.15800000E+01           0.76808400E-01
   0.15900000E+01           0.83547600E-01
   0.16000000E+01           0.90992700E-01
   0.16100000E+01           0.99393400E-01
   0.16200000E+01           0.10874390E+00
   0.16300000E+01           0.11902180E+00
   0.16400000E+01           0.13037940E+00
   0.16500000E+01           0.14326650E+00
   0.16600000E+01           0.15730620E+00
   0.16700000E+01           0.17284170E+00
   0.16800000E+01           0.19021110E+00
   0.16900000E+01           0.20936460E+00
   0.17000000E+01           0.23063330E+00
   0.17100000E+01           0.25455830E+00
   0.17200000E+01           0.28130260E+00
   0.17300000E+01           0.31028640E+00
   0.17400000E+01           0.34294530E+00
   0.17500000E+01           0.37906860E+00
   0.17600000E+01           0.41939100E+00
   0.17700000E+01           0.46445210E+00
   0.17800000E+01           0.51403780E+00
   0.17900000E+01           0.56925760E+00
   0.18000000E+01           0.63117900E+00
   0.18100000E+01           0.70005080E+00
   0.18200000E+01           0.77613140E+00
   0.18300000E+01           0.86196770E+00
   0.18400000E+01           0.95631280E+00
   0.18500000E+01           0.10619902E+01
   0.18600000E+01           0.11804469E+01
   0.18700000E+01           0.13127683E+01
   0.18800000E+01           0.14594445E+01
   0.18900000E+01           0.16222888E+01
   0.19000000E+01           0.18053125E+01
   0.19100000E+01           0.20107804E+01
   0.19200000E+01           0.22406147E+01
   0.19300000E+01           0.24956079E+01
   0.19400000E+01           0.27815244E+01
   0.19500000E+01           0.31026600E+01
   0.19600000E+01           0.34590205E+01
   0.19700000E+01           0.38587054E+01
   0.19800000E+01           0.43077184E+01
   0.19900000E+01           0.48076341E+01
   0.20000000E+01           0.26117940E+01
 #T=    48.0000
  -0.20000000E+01           0.00000000E+00
  -0.19900000E+01           0.00000000E+00
  -0.19800000E+01           0.00000000E+00
  -0.19700000E+01           0.00000000E+00
  -0.19600000E+01           0.00000000E+00
  -0.19500000E+01           0.00000000E+00
  -0.19400000E+01           0.00000000E+00
  -0.19300000E+01           0.00000000E+00
  -0.19200000E+01           0.00000000E+00
  -0.19100000E+01           0.00000000E+00
  -0.19000000E+01           0.00000000E+00
  -0.18900000E+01           0.00000000E+00
  -0.18800000E+01           0.00000000E+00
  -0.18700000E+01           0.00000000E+00
  -0.18600000E+01           0.00000000E+00
  -0.18500000E+01           0.00000000E+00
  -0.18400000E+01           0.00000000E+00
  -0.18300000E+01           0.00000000E+00
  -0.18200000E+01           0.00000000E+00
  -0.18100000E+01           0.00000000E+00
  -0.18000000E+01           0.00000000E+00
  -0.17900000E+01           0.00000000E+00
  -0.17800000E+01           0.00000000E+00
  -0.17700000E+01           0.00000000E+00
  -0.17600000E+01           0.00000000E+00
  -0.17500000E+01           0.00000000E+00
  -0.17400000E+01           0.00000000E+00
  -0.17300000E+01           0.00000000E+00
  -0.17200000E+01           0.00000000E+00
  -0.17100000E+01           0.00000000E+00
  -0.17000000E+01           0.00000000E+00
  -0.16900000E+01           0.00000000E+00
  -0.16800000E+01           0.00000000E+00
  -0.16700000E+01           0.00000000E+00
  -0.16600000E+01           0.00000000E+00
  -0.16500000E+01           0.00000000E+00
  -0.16400000E+01           0.00000000E+00
  -0.16300000E+01           0.00000000E+00
  -0.16200000E+01           0.00000000E+00
  -0.16100000E+01           0.00000000E+00
  -0.16000000E+01           0.00000000E+00
  -0.15900000E+01           0.00000000E+00
  -0.15800000E+01           0.00000000E+00
  -0.15700000E+01           0.00000000E+00
  -0.15600000E+01           0.00000000E+00
  -0.15500000E+01           0.00000000E+00
  -0.15400000E+01           0.00000000E+00
  -0.15300000E+01           0.00000000E+00
  -0.15200000E+01           0.00000000E+00
  -0.15100000E+01           0.00000000E+00
  -0.15000000E+01           0.00000000E+00
  -0.14900000E+01           0.00000000E+00
  -0.14800000E+01           0.00000000E+00
  -0.14700000E+01           0.00000000E+00
  -0.14600000E+01           0.00000000E+00
  -0.14500000E+01           0.00000000E+00
  -0.14400000E+01           0.00000000E+00
  -0.14300000E+01           0.00000000E+00
  -0.14200000E+01           0.00000000E+00
  -0.14100000E+01           0.00000000E+00
  -0.14000000E+01           0.00000000E+00
  -0.13900000E+01           0.00000000E+00
  -0.13800000E+01           0.00000000E+00
  -0.13700000E+01           0.00000000E+00
  -0.13600000E+01           0.00000000E+00
  -0.13500000E+01           0.00000000E+00
  -0.13400000E+01           0.00000000E+00
  -0.13300000E+01           0.00000000E+00
  -0.13200000E+01           0.00000000E+00
  -0.13100000E+01           0.00000000E+00
  -0.13000000E+01           0.00000000E+00
  -0.12900000E+01           0.00000000E+00
  -0.12800000E+01           0.00000000E+00
  -0.12700000E+01           0.00000000E+00
  -0.12600000E+01           0.00000000E+00
  -0.12500000E+01           0.00000000E+00
  -0.12400000E+01           0.00000000E+00
  -0.12300000E+01           0.00000000E+00
  -0.12200000E+01           0.00000000E+00
  -0.12100000E+01           0.00000000E+00
  -0.12000000E+01           0.00000000E+00
  -0.11900000E+01           0.00000000E+00
  -0.11800000E+01           0.00000000E+00
  -0.11700000E+01           0.00000000E+00
  -0.11600000E+01           0.00000000E+00
  -0.11500000E+01           0.00000000E+00
  -0.11400000E+01           0.00000000E+00
  -0.11300000E+01           0.00000000E+00
  -0.11200000E+01           0.00000000E+00
  -0.11100000E+01           0.00000000E+00
  -0.11000000E+01           0.00000000E+00
  -0.10900000E+01           0.00000000E+00
  -0.10800000E+01           0.00000000E+00
  -0.10700000E+01           0.00000000E+00
  -0.10600000E+01           0.00000000E+00
  -0.10500000E+01           0.00000000E+00
  -0.10400000E+01           0.00000000E+00
  -0.10300000E+01           0.00000000E+00
  -0.10200000E+01           0.00000000E+00
  -0.10100000E+01           0.00000000E+00
  -0.10000000E+01           0.00000000E+00
  -0.99000000E+00           0.00000000E+00
  -0.98000000E+00           0.00000000E+00
  -0.97000000E+00           0.00000000E+00
  -0.96000000E+00           0.00000000E+00
  -0.95000000E+00           0.00000000E+00
  -0.94000000E+00           0.00000000E+00
  -0.93000000E+00           0.00000000E+00
  -0.92000000E+00           0.00000000E+00
  -0.91000000E+00           0.00000000E+00
  -0.90000000E+00           0.00000000E+00
  -0.89000000E+00           0.00000000E+00
  -0.88000000E+00           0.00000000E+00
  -0.87000000E+00           0.00000000E+00
  -0.86000000E+00           0.00000000E+00
  -0.85000000E+00           0.00000000E+00
  -0.84000000E+00           0.00000000E+00
  -0.83000000E+00           0.00000000E+00
  -0.82000000E+00           0.00000000E+00
  -0.81000000E+00           0.00000000E+00
  -0.80000000E+00           0.00000000E+00
  -0.79000000E+00           0.00000000E+00
  -0.78000000E+00           0.00000000E+00
  -0.77000000E+00           0.00000000E+00
  -0.76000000E+00           0.00000000E+00
  -0.75000000E+00           0.00000000E+00
  -0.74000000E+00           0.00000000E+00
  -0.73000000E+00           0.00000000E+00
  -0.72000000E+00           0.00000000E+00
  -0.71000000E+00           0.00000000E+00
  -0.70000000E+00           0.00000000E+00
  -0.69000000E+00           0.00000000E+00
  -0.68000000E+00           0.00000000E+00
  -0.67000000E+00           0.00000000E+00
  -0.66000000E+00           0.00000000E+00
  -0.65000000E+00           0.00000000E+00
  -0.64000000E+00           0.00000000E+00
  -0.63000000E+00           0.00000000E+00
  -0.62000000E+00           0.00000000E+00
  -0.61000000E+00           0.00000000E+00
  -0.60000000E+00           0.00000000E+00
  -0.59000000E+00           0.00000000E+00
  -0.58000000E+00           0.00000000E+00
  -0.57000000E+00           0.00000000E+00
  -0.56000000E+00           0.00000000E+00
  -0.55000000E+00           0.00000000E+00
  -0.54000000E+00           0.00000000E+00
  -0.53000000E+00           0.00000000E+00
  -0.52000000E+00           0.00000000E+00
  -0.51000000E+00           0.00000000E+00
  -0.50000000E+00           0.00000000E+00
  -0.49000000E+00           0.00000000E+00
  -0.48000000E+00           0.00000000E+00
  -0.47000000E+00           0.00000000E+00
  -0.46000000E+00           0.00000000E+00
  -0.45000000E+00           0.00000000E+00
  -0.44000000E+00           0.00000000E+00
  -0.43000000E+00           0.00000000E+00
  -0.42000000E+00           0.00000000E+00
  -0.41000000E+00           0.00000000E+00
  -0.40000000E+00           0.00000000E+00
  -0.39000000E+00           0.00000000E+00
  -0.38000000E+00           0.00000000E+00
  -0.37000000E+00           0.00000000E+00
  -0.36000000E+00           0.00000000E+00
  -0.35000000E+00           0.00000000E+00
  -0.34000000E+00           0.00000000E+00
  -0.33000000E+00           0.00000000E+00
  -0.32000000E+00           0.00000000E+00
  -0.31000000E+00           0.00000000E+00
  -0.30000000E+00           0.00000000E+00
  -0.29000000E+00           0.00000000E+00
  -0.28000000E+00           0.00000000E+00
  -0.27000000E+00           0.00000000E+00
  -0.26000000E+00           0.00000000E+00
  -0.25000000E+00           0.00000000E+00
  -0.24000000E+00           0.00000000E+00
  -0.23000000E+00           0.00000000E+00
  -0.22000000E+00           0.00000000E+00
  -0.21000000E+00           0.00000000E+00
  -0.20000000E+00           0.00000000E+00
  -0.19000000E+00           0.00000000E+00
  -0.18000000E+00           0.00000000E+00
  -0.17000000E+00           0.00000000E+00
  -0.16000000E+00           0.00000000E+00
  -0.15000000E+00           0.00000000E+00
  -0.14000000E+00           0.00000000E+00
  -0.13000000E+00           0.00000000E+00
  -0.12000000E+00           0.00000000E+00
  -0.11000000E+00           0.00000000E+00
  -0.10000000E+00           0.00000000E+00
  -0.90000000E-01           0.00000000E+00
  -0.80000000E-01           0.00000000E+00
  -0.70000000E-01           0.00000000E+00
  -0.60000000E-01           0.00000000E+00
  -0.50000000E-01           0.00000000E+00
  -0.40000000E-01           0.00000000E+00
  -0.30000000E-01           0.00000000E+00
  -0.20000000E-01           0.00000000E+00
  -0.10000000E-01           0.00000000E+00
   0.00000000E+00           0.32619000E-02
   0.10000000E-01           0.25961800E-01
   0.20000000E-01           0.52039000E-01
   0.30000000E-01           0.77688000E-01
   0.40000000E-01           0.10365720E+00
   0.50000000E-01           0.12918780E+00
   0.60000000E-01           0.15488550E+00
   0.70000000E-01           0.17934250E+00
   0.80000000E-01           0.20461230E+00
   0.90000000E-01           0.22968800E+00
   0.10000000E+00           0.25365370E+00
   0.11000000E+00           0.27690740E+00
   0.12000000E+00           0.30111230E+00
   0.13000000E+00           0.32373440E+00
   0.14000000E+00           0.34584430E+00
   0.15000000E+00           0.36821760E+00
   0.16000000E+00           0.39001430E+00
   0.17000000E+00           0.41044000E+00
   0.18000000E+00           0.43045060E+00
   0.19000000E+00           0.45109330E+00
   0.20000000E+00           0.46918370E+00
   0.21000000E+00           0.48780290E+00
   0.22000000E+00           0.50530990E+00
   0.23000000E+00           0.52217930E+00
   0.24000000E+00           0.53849330E+00
   0.25000000E+00           0.55419310E+00
   0.26000000E+00           0.56801250E+00
   0.27000000E+00           0.58186370E+00
   0.28000000E+00           0.59548110E+00
   0.29000000E+00           0.60729030E+00
   0.30000000E+00           0.61864990E+00
   0.31000000E+00           0.62931870E+00
   0.32000000E+00           0.63942400E+00
   0.33000000E+00           0.64752990E+00
   0.34000000E+00           0.65694510E+00
   0.35000000E+00           0.66425260E+00
   0.36000000E+00           0.66987360E+00
   0.37000000E+00           0.67636880E+00
   0.38000000E+00           0.68047630E+00
   0.39000000E+00           0.68527460E+00
   0.40000000E+00           0.68838220E+00
   0.41000000E+00           0.69068980E+00
   0.42000000E+00           0.69282270E+00
   0.43000000E+00           0.69432060E+00
   0.44000000E+00           0.69407080E+00
   0.45000000E+00           0.69363980E+00
   0.46000000E+00           0.69331360E+00
   0.47000000E+00           0.69114500E+00
   0.48000000E+00           0.68897960E+00
   0.49000000E+00           0.68572940E+00
   0.50000000E+00           0.68128700E+00
   0.51000000E+00           0.67713130E+00
   0.52000000E+00           0.67219810E+00
   0.53000000E+00           0.66641310E+00
   0.54000000E+00           0.66115880E+00
   0.55000000E+00           0.65399760E+00
   0.56000000E+00           0.64700270E+00
   0.57000000E+00           0.64000770E+00
   0.58000000E+00           0.63056970E+00
   0.59000000E+00           0.62289190E+00
   0.60000000E+00           0.61453400E+00
   0.61000000E+00           0.60613710E+00
   0.62000000E+00           0.59636100E+00
   0.63000000E+00           0.58559930E+00
   0.64000000E+00           0.57583060E+00
   0.65000000E+00           0.56580640E+00
   0.66000000E+00           0.55527310E+00
   0.67000000E+00           0.54528650E+00
   0.68000000E+00           0.53340800E+00
   0.69000000E+00           0.52157810E+00
   0.70000000E+00           0.51107870E+00
   0.71000000E+00           0.49926440E+00
   0.72000000E+00           0.48714640E+00
   0.73000000E+00           0.47635090E+00
   0.74000000E+00           0.46455400E+00
   0.75000000E+00           0.45239280E+00
   0.76000000E+00           0.44108530E+00
   0.77000000E+00           0.42904340E+00
   0.78000000E+00           0.41741180E+00
   0.79000000E+00           0.40566130E+00
   0.80000000E+00           0.39378880E+00
   0.81000000E+00           0.38265650E+00
   0.82000000E+00           0.37103860E+00
   0.83000000E+00           0.35989550E+00
   0.84000000E+00           0.34838210E+00
   0.85000000E+00           0.33709640E+00
   0.86000000E+00           0.32610450E+00
   0.87000000E+00           0.31481680E+00
   0.88000000E+00           0.30477950E+00
   0.89000000E+00           0.29443140E+00
   0.90000000E+00           0.28392650E+00
   0.91000000E+00           0.27382810E+00
   0.92000000E+00           0.26374540E+00
   0.93000000E+00           0.25358720E+00
   0.94000000E+00           0.24433340E+00
   0.95000000E+00           0.23450920E+00
   0.96000000E+00           0.22561030E+00
   0.97000000E+00           0.21688360E+00
   0.98000000E+00           0.20768080E+00
   0.99000000E+00           0.19914660E+00
   0.10000000E+01           0.19116410E+00
   0.10100000E+01           0.18352580E+00
   0.10200000E+01           0.17536710E+00
   0.10300000E+01           0.16763680E+00
   0.10400000E+01           0.16055340E+00
   0.10500000E+01           0.15327830E+00
   0.10600000E+01           0.14676260E+00
   0.10700000E+01           0.14017830E+00
   0.10800000E+01           0.13353450E+00
   0.10900000E+01           0.12757760E+00
   0.11000000E+01           0.12137150E+00
   0.11100000E+01           0.11587170E+00
   0.11200000E+01           0.11047530E+00
   0.11300000E+01           0.10516450E+00
   0.11400000E+01           0.99856700E-01
   0.11500000E+01           0.95382400E-01
   0.11600000E+01           0.90877000E-01
   0.11700000E+01           0.86220600E-01
   0.11800000E+01           0.82233800E-01
   0.11900000E+01           0.78207600E-01
   0.12000000E+01           0.74395800E-01
   0.12100000E+01           0.70805200E-01
   0.12200000E+01           0.67311100E-01
   0.12300000E+01           0.64049600E-01
   0.12400000E+01           0.61313000E-01
   0.12500000E+01           0.58287600E-01
   0.12600000E+01           0.55654600E-01
   0.12700000E+01           0.53109400E-01
   0.12800000E+01           0.50974500E-01
   0.12900000E+01           0.48826200E-01
   0.13000000E+01           0.46936200E-01
   0.13100000E+01           0.45177800E-01
   0.13200000E+01           0.43634700E-01
   0.13300000E+01           0.41925500E-01
   0.13400000E+01           0.40871400E-01
   0.13500000E+01           0.39648000E-01
   0.13600000E+01           0.38897700E-01
   0.13700000E+01           0.38292800E-01
   0.13800000E+01           0.37808500E-01
   0.13900000E+01           0.37390500E-01
   0.14000000E+01           0.37322400E-01
   0.14100000E+01           0.37491600E-01
   0.14200000E+01           0.37709100E-01
   0.14300000E+01           0.38162200E-01
   0.14400000E+01           0.38931700E-01
   0.14500000E+01           0.39811500E-01
   0.14600000E+01           0.41123200E-01
   0.14700000E+01           0.42717700E-01
   0.14800000E+01           0.44275100E-01
   0.14900000E+01           0.46513900E-01
   0.15000000E+01           0.48911100E-01
   0.15100000E+01           0.51805700E-01
   0.15200000E+01           0.54900800E-01
   0.15300000E+01           0.58572000E-01
   0.15400000E+01           0.62636400E-01
   0.15500000E+01           0.67122100E-01
   0.15600000E+01           0.72310400E-01
   0.15700000E+01           0.78169100E-01
   0.15800000E+01           0.84724300E-01
   0.15900000E+01           0.91379300E-01
   0.16000000E+01           0.99277000E-01
   0.16100000E+01           0.10802520E+00
   0.16200000E+01           0.11785680E+00
   0.16300000E+01           0.12850820E+00
   0.16400000E+01           0.14052290E+00
   0.16500000E+01           0.15372410E+00
   0.16600000E+01           0.16850410E+00
   0.16700000E+01           0.18413350E+00
   0.16800000E+01           0.20246890E+00
   0.16900000E+01           0.22222430E+00
   0.17000000E+01           0.24433790E+00
   0.17100000E+01           0.26811300E+00
   0.17200000E+01           0.29595470E+00
   0.17300000E+01           0.32566490E+00
   0.17400000E+01           0.35835910E+00
   0.17500000E+01           0.39540470E+00
   0.17600000E+01           0.43611710E+00
   0.17700000E+01           0.48103990E+00
   0.17800000E+01           0.53178190E+00
   0.17900000E+01           0.58702940E+00
   0.18000000E+01           0.64892460E+00
   0.18100000E+01           0.71761460E+00
   0.18200000E+01           0.79371730E+00
   0.18300000E+01           0.87757790E+00
   0.18400000E+01           0.97260990E+00
   0.18500000E+01           0.10768659E+01
   0.18600000E+01           0.11918561E+01
   0.18700000E+01           0.13222771E+01
   0.18800000E+01           0.14659384E+01
   0.18900000E+01           0.16256780E+01
   0.19000000E+01           0.18039926E+01
   0.19100000E+01           0.20030023E+01
   0.19200000E+01           0.22251518E+01
   0.19300000E+01           0.24712323E+01
   0.19400000E+01           0.27461417E+01
   0.19500000E+01           0.30552849E+01
   0.19600000E+01           0.33962365E+01
   0.19700000E+01           0.37793599E+01
   0.19800000E+01           0.42066800E+01
   0.19900000E+01           0.46837969E+01
   0.20000000E+01           0.25363635E+01
 #T=    49.0000
  -0.20000000E+01           0.00000000E+00
  -0.19900000E+01           0.00000000E+00
  -0.19800000E+01           0.00000000E+00
  -0.19700000E+01           0.00000000E+00
  -0.19600000E+01           0.00000000E+00
  -0.19500000E+01           0.00000000E+00
  -0.19400000E+01           0.00000000E+00
  -0.19300000E+01           0.00000000E+00
  -0.19200000E+01           0.00000000E+00
  -0.19100000E+01           0.00000000E+00
  -0.19000000E+01           0.00000000E+00
  -0.18900000E+01           0.00000000E+00
  -0.18800000E+01           0.00000000E+00
  -0.18700000E+01           0.00000000E+00
  -0.18600000E+01           0.00000000E+00
  -0.18500000E+01           0.00000000E+00
  -0.18400000E+01           0.00000000E+00
  -0.18300000E+01           0.00000000E+00
  -0.18200000E+01           0.00000000E+00
  -0.18100000E+01           0.00000000E+00
  -0.18000000E+01           0.00000000E+00
  -0.17900000E+01           0.00000000E+00
  -0.17800000E+01           0.00000000E+00
  -0.17700000E+01           0.00000000E+00
  -0.17600000E+01           0.00000000E+00
  -0.17500000E+01           0.00000000E+00
  -0.17400000E+01           0.00000000E+00
  -0.17300000E+01           0.00000000E+00
  -0.17200000E+01           0.00000000E+00
  -0.17100000E+01           0.00000000E+00
  -0.17000000E+01           0.00000000E+00
  -0.16900000E+01           0.00000000E+00
  -0.16800000E+01           0.00000000E+00
  -0.16700000E+01           0.00000000E+00
  -0.16600000E+01           0.00000000E+00
  -0.16500000E+01           0.00000000E+00
  -0.16400000E+01           0.00000000E+00
  -0.16300000E+01           0.00000000E+00
  -0.16200000E+01           0.00000000E+00
  -0.16100000E+01           0.00000000E+00
  -0.16000000E+01           0.00000000E+00
  -0.15900000E+01           0.00000000E+00
  -0.15800000E+01           0.00000000E+00
  -0.15700000E+01           0.00000000E+00
  -0.15600000E+01           0.00000000E+00
  -0.15500000E+01           0.00000000E+00
  -0.15400000E+01           0.00000000E+00
  -0.15300000E+01           0.00000000E+00
  -0.15200000E+01           0.00000000E+00
  -0.15100000E+01           0.00000000E+00
  -0.15000000E+01           0.00000000E+00
  -0.14900000E+01           0.00000000E+00
  -0.14800000E+01           0.00000000E+00
  -0.14700000E+01           0.00000000E+00
  -0.14600000E+01           0.00000000E+00
  -0.14500000E+01           0.00000000E+00
  -0.14400000E+01           0.00000000E+00
  -0.14300000E+01           0.00000000E+00
  -0.14200000E+01           0.00000000E+00
  -0.14100000E+01           0.00000000E+00
  -0.14000000E+01           0.00000000E+00
  -0.13900000E+01           0.00000000E+00
  -0.13800000E+01           0.00000000E+00
  -0.13700000E+01           0.00000000E+00
  -0.13600000E+01           0.00000000E+00
  -0.13500000E+01           0.00000000E+00
  -0.13400000E+01           0.00000000E+00
  -0.13300000E+01           0.00000000E+00
  -0.13200000E+01           0.00000000E+00
  -0.13100000E+01           0.00000000E+00
  -0.13000000E+01           0.00000000E+00
  -0.12900000E+01           0.00000000E+00
  -0.12800000E+01           0.00000000E+00
  -0.12700000E+01           0.00000000E+00
  -0.12600000E+01           0.00000000E+00
  -0.12500000E+01           0.00000000E+00
  -0.12400000E+01           0.00000000E+00
  -0.12300000E+01           0.00000000E+00
  -0.12200000E+01           0.00000000E+00
  -0.12100000E+01           0.00000000E+00
  -0.12000000E+01           0.00000000E+00
  -0.11900000E+01           0.00000000E+00
  -0.11800000E+01           0.00000000E+00
  -0.11700000E+01           0.00000000E+00
  -0.11600000E+01           0.00000000E+00
  -0.11500000E+01           0.00000000E+00
  -0.11400000E+01           0.00000000E+00
  -0.11300000E+01           0.00000000E+00
  -0.11200000E+01           0.00000000E+00
  -0.11100000E+01           0.00000000E+00
  -0.11000000E+01           0.00000000E+00
  -0.10900000E+01           0.00000000E+00
  -0.10800000E+01           0.00000000E+00
  -0.10700000E+01           0.00000000E+00
  -0.10600000E+01           0.00000000E+00
  -0.10500000E+01           0.00000000E+00
  -0.10400000E+01           0.00000000E+00
  -0.10300000E+01           0.00000000E+00
  -0.10200000E+01           0.00000000E+00
  -0.10100000E+01           0.00000000E+00
  -0.10000000E+01           0.00000000E+00
  -0.99000000E+00           0.00000000E+00
  -0.98000000E+00           0.00000000E+00
  -0.97000000E+00           0.00000000E+00
  -0.96000000E+00           0.00000000E+00
  -0.95000000E+00           0.00000000E+00
  -0.94000000E+00           0.00000000E+00
  -0.93000000E+00           0.00000000E+00
  -0.92000000E+00           0.00000000E+00
  -0.91000000E+00           0.00000000E+00
  -0.90000000E+00           0.00000000E+00
  -0.89000000E+00           0.00000000E+00
  -0.88000000E+00           0.00000000E+00
  -0.87000000E+00           0.00000000E+00
  -0.86000000E+00           0.00000000E+00
  -0.85000000E+00           0.00000000E+00
  -0.84000000E+00           0.00000000E+00
  -0.83000000E+00           0.00000000E+00
  -0.82000000E+00           0.00000000E+00
  -0.81000000E+00           0.00000000E+00
  -0.80000000E+00           0.00000000E+00
  -0.79000000E+00           0.00000000E+00
  -0.78000000E+00           0.00000000E+00
  -0.77000000E+00           0.00000000E+00
  -0.76000000E+00           0.00000000E+00
  -0.75000000E+00           0.00000000E+00
  -0.74000000E+00           0.00000000E+00
  -0.73000000E+00           0.00000000E+00
  -0.72000000E+00           0.00000000E+00
  -0.71000000E+00           0.00000000E+00
  -0.70000000E+00           0.00000000E+00
  -0.69000000E+00           0.00000000E+00
  -0.68000000E+00           0.00000000E+00
  -0.67000000E+00           0.00000000E+00
  -0.66000000E+00           0.00000000E+00
  -0.65000000E+00           0.00000000E+00
  -0.64000000E+00           0.00000000E+00
  -0.63000000E+00           0.00000000E+00
  -0.62000000E+00           0.00000000E+00
  -0.61000000E+00           0.00000000E+00
  -0.60000000E+00           0.00000000E+00
  -0.59000000E+00           0.00000000E+00
  -0.58000000E+00           0.00000000E+00
  -0.57000000E+00           0.00000000E+00
  -0.56000000E+00           0.00000000E+00
  -0.55000000E+00           0.00000000E+00
  -0.54000000E+00           0.00000000E+00
  -0.53000000E+00           0.00000000E+00
  -0.52000000E+00           0.00000000E+00
  -0.51000000E+00           0.00000000E+00
  -0.50000000E+00           0.00000000E+00
  -0.49000000E+00           0.00000000E+00
  -0.48000000E+00           0.00000000E+00
  -0.47000000E+00           0.00000000E+00
  -0.46000000E+00           0.00000000E+00
  -0.45000000E+00           0.00000000E+00
  -0.44000000E+00           0.00000000E+00
  -0.43000000E+00           0.00000000E+00
  -0.42000000E+00           0.00000000E+00
  -0.41000000E+00           0.00000000E+00
  -0.40000000E+00           0.00000000E+00
  -0.39000000E+00           0.00000000E+00
  -0.38000000E+00           0.00000000E+00
  -0.37000000E+00           0.00000000E+00
  -0.36000000E+00           0.00000000E+00
  -0.35000000E+00           0.00000000E+00
  -0.34000000E+00           0.00000000E+00
  -0.33000000E+00           0.00000000E+00
  -0.32000000E+00           0.00000000E+00
  -0.31000000E+00           0.00000000E+00
  -0.30000000E+00           0.00000000E+00
  -0.29000000E+00           0.00000000E+00
  -0.28000000E+00           0.00000000E+00
  -0.27000000E+00           0.00000000E+00
  -0.26000000E+00           0.00000000E+00
  -0.25000000E+00           0.00000000E+00
  -0.24000000E+00           0.00000000E+00
  -0.23000000E+00           0.00000000E+00
  -0.22000000E+00           0.00000000E+00
  -0.21000000E+00           0.00000000E+00
  -0.20000000E+00           0.00000000E+00
  -0.19000000E+00           0.00000000E+00
  -0.18000000E+00           0.00000000E+00
  -0.17000000E+00           0.00000000E+00
  -0.16000000E+00           0.00000000E+00
  -0.15000000E+00           0.00000000E+00
  -0.14000000E+00           0.00000000E+00
  -0.13000000E+00           0.00000000E+00
  -0.12000000E+00           0.00000000E+00
  -0.11000000E+00           0.00000000E+00
  -0.10000000E+00           0.00000000E+00
  -0.90000000E-01           0.00000000E+00
  -0.80000000E-01           0.00000000E+00
  -0.70000000E-01           0.00000000E+00
  -0.60000000E-01           0.00000000E+00
  -0.50000000E-01           0.00000000E+00
  -0.40000000E-01           0.00000000E+00
  -0.30000000E-01           0.00000000E+00
  -0.20000000E-01           0.00000000E+00
  -0.10000000E-01           0.00000000E+00
   0.00000000E+00           0.31769000E-02
   0.10000000E-01           0.25381900E-01
   0.20000000E-01           0.50799500E-01
   0.30000000E-01           0.75875900E-01
   0.40000000E-01           0.10100070E+00
   0.50000000E-01           0.12609070E+00
   0.60000000E-01           0.15053700E+00
   0.70000000E-01           0.17523940E+00
   0.80000000E-01           0.19922430E+00
   0.90000000E-01           0.22328800E+00
   0.10000000E+00           0.24713060E+00
   0.11000000E+00           0.27016260E+00
   0.12000000E+00           0.29312390E+00
   0.13000000E+00           0.31565680E+00
   0.14000000E+00           0.33735930E+00
   0.15000000E+00           0.35899790E+00
   0.16000000E+00           0.38025000E+00
   0.17000000E+00           0.40072470E+00
   0.18000000E+00           0.42016960E+00
   0.19000000E+00           0.43906470E+00
   0.20000000E+00           0.45832940E+00
   0.21000000E+00           0.47570120E+00
   0.22000000E+00           0.49400980E+00
   0.23000000E+00           0.50972030E+00
   0.24000000E+00           0.52695040E+00
   0.25000000E+00           0.54212950E+00
   0.26000000E+00           0.55595070E+00
   0.27000000E+00           0.56985600E+00
   0.28000000E+00           0.58284570E+00
   0.29000000E+00           0.59420190E+00
   0.30000000E+00           0.60635400E+00
   0.31000000E+00           0.61701370E+00
   0.32000000E+00           0.62810260E+00
   0.33000000E+00           0.63623530E+00
   0.34000000E+00           0.64503930E+00
   0.35000000E+00           0.65216650E+00
   0.36000000E+00           0.65924380E+00
   0.37000000E+00           0.66567100E+00
   0.38000000E+00           0.66968290E+00
   0.39000000E+00           0.67468420E+00
   0.40000000E+00           0.67836700E+00
   0.41000000E+00           0.68030610E+00
   0.42000000E+00           0.68259060E+00
   0.43000000E+00           0.68445090E+00
   0.44000000E+00           0.68476560E+00
   0.45000000E+00           0.68534690E+00
   0.46000000E+00           0.68479310E+00
   0.47000000E+00           0.68344020E+00
   0.48000000E+00           0.68193380E+00
   0.49000000E+00           0.67910110E+00
   0.50000000E+00           0.67533080E+00
   0.51000000E+00           0.67109920E+00
   0.52000000E+00           0.66742600E+00
   0.53000000E+00           0.66313560E+00
   0.54000000E+00           0.65732900E+00
   0.55000000E+00           0.65158110E+00
   0.56000000E+00           0.64418170E+00
   0.57000000E+00           0.63757870E+00
   0.58000000E+00           0.62985780E+00
   0.59000000E+00           0.62205170E+00
   0.60000000E+00           0.61410110E+00
   0.61000000E+00           0.60524420E+00
   0.62000000E+00           0.59614900E+00
   0.63000000E+00           0.58666080E+00
   0.64000000E+00           0.57817220E+00
   0.65000000E+00           0.56756110E+00
   0.66000000E+00           0.55731460E+00
   0.67000000E+00           0.54701020E+00
   0.68000000E+00           0.53637020E+00
   0.69000000E+00           0.52608440E+00
   0.70000000E+00           0.51455640E+00
   0.71000000E+00           0.50408820E+00
   0.72000000E+00           0.49297210E+00
   0.73000000E+00           0.48178130E+00
   0.74000000E+00           0.47086910E+00
   0.75000000E+00           0.45891230E+00
   0.76000000E+00           0.44805570E+00
   0.77000000E+00           0.43648500E+00
   0.78000000E+00           0.42501800E+00
   0.79000000E+00           0.41321800E+00
   0.80000000E+00           0.40157880E+00
   0.81000000E+00           0.39054090E+00
   0.82000000E+00           0.37915210E+00
   0.83000000E+00           0.36796340E+00
   0.84000000E+00           0.35691130E+00
   0.85000000E+00           0.34520400E+00
   0.86000000E+00           0.33493880E+00
   0.87000000E+00           0.32413690E+00
   0.88000000E+00           0.31393480E+00
   0.89000000E+00           0.30360750E+00
   0.90000000E+00           0.29340500E+00
   0.91000000E+00           0.28291160E+00
   0.92000000E+00           0.27271250E+00
   0.93000000E+00           0.26313680E+00
   0.94000000E+00           0.25398190E+00
   0.95000000E+00           0.24415520E+00
   0.96000000E+00           0.23536930E+00
   0.97000000E+00           0.22590970E+00
   0.98000000E+00           0.21757410E+00
   0.99000000E+00           0.20900080E+00
   0.10000000E+01           0.20063020E+00
   0.10100000E+01           0.19232580E+00
   0.10200000E+01           0.18414200E+00
   0.10300000E+01           0.17700760E+00
   0.10400000E+01           0.16930410E+00
   0.10500000E+01           0.16210570E+00
   0.10600000E+01           0.15546170E+00
   0.10700000E+01           0.14856220E+00
   0.10800000E+01           0.14211340E+00
   0.10900000E+01           0.13573040E+00
   0.11000000E+01           0.12963760E+00
   0.11100000E+01           0.12410410E+00
   0.11200000E+01           0.11849410E+00
   0.11300000E+01           0.11283010E+00
   0.11400000E+01           0.10763790E+00
   0.11500000E+01           0.10292130E+00
   0.11600000E+01           0.97882900E-01
   0.11700000E+01           0.93362800E-01
   0.11800000E+01           0.89244500E-01
   0.11900000E+01           0.84887500E-01
   0.12000000E+01           0.81104100E-01
   0.12100000E+01           0.77162100E-01
   0.12200000E+01           0.73804600E-01
   0.12300000E+01           0.70510100E-01
   0.12400000E+01           0.67263600E-01
   0.12500000E+01           0.64279200E-01
   0.12600000E+01           0.61508100E-01
   0.12700000E+01           0.58916300E-01
   0.12800000E+01           0.56464900E-01
   0.12900000E+01           0.54377800E-01
   0.13000000E+01           0.52351500E-01
   0.13100000E+01           0.50542800E-01
   0.13200000E+01           0.48802700E-01
   0.13300000E+01           0.47341600E-01
   0.13400000E+01           0.45969900E-01
   0.13500000E+01           0.44881300E-01
   0.13600000E+01           0.43940000E-01
   0.13700000E+01           0.43171900E-01
   0.13800000E+01           0.42717300E-01
   0.13900000E+01           0.42317400E-01
   0.14000000E+01           0.42256000E-01
   0.14100000E+01           0.42392700E-01
   0.14200000E+01           0.42671700E-01
   0.14300000E+01           0.43138100E-01
   0.14400000E+01           0.43991900E-01
   0.14500000E+01           0.45062500E-01
   0.14600000E+01           0.46267400E-01
   0.14700000E+01           0.47950100E-01
   0.14800000E+01           0.50072500E-01
   0.14900000E+01           0.52316000E-01
   0.15000000E+01           0.54942100E-01
   0.15100000E+01           0.57850200E-01
   0.15200000E+01           0.61204700E-01
   0.15300000E+01           0.65004700E-01
   0.15400000E+01           0.69131000E-01
   0.15500000E+01           0.74070000E-01
   0.15600000E+01           0.79441600E-01
   0.15700000E+01           0.85512700E-01
   0.15800000E+01           0.92372400E-01
   0.15900000E+01           0.99665700E-01
   0.16000000E+01           0.10799160E+00
   0.16100000E+01           0.11694520E+00
   0.16200000E+01           0.12754240E+00
   0.16300000E+01           0.13853000E+00
   0.16400000E+01           0.15075030E+00
   0.16500000E+01           0.16472680E+00
   0.16600000E+01           0.17964870E+00
   0.16700000E+01           0.19643420E+00
   0.16800000E+01           0.21497160E+00
   0.16900000E+01           0.23527070E+00
   0.17000000E+01           0.25757970E+00
   0.17100000E+01           0.28256920E+00
   0.17200000E+01           0.31002030E+00
   0.17300000E+01           0.34079630E+00
   0.17400000E+01           0.37456970E+00
   0.17500000E+01           0.41062700E+00
   0.17600000E+01           0.45207920E+00
   0.17700000E+01           0.49796040E+00
   0.17800000E+01           0.54792940E+00
   0.17900000E+01           0.60360090E+00
   0.18000000E+01           0.66530350E+00
   0.18100000E+01           0.73363020E+00
   0.18200000E+01           0.80899630E+00
   0.18300000E+01           0.89380000E+00
   0.18400000E+01           0.98610900E+00
   0.18500000E+01           0.10885615E+01
   0.18600000E+01           0.12043903E+01
   0.18700000E+01           0.13316248E+01
   0.18800000E+01           0.14706213E+01
   0.18900000E+01           0.16287754E+01
   0.19000000E+01           0.18031825E+01
   0.19100000E+01           0.19939222E+01
   0.19200000E+01           0.22099403E+01
   0.19300000E+01           0.24480786E+01
   0.19400000E+01           0.27126753E+01
   0.19500000E+01           0.30075727E+01
   0.19600000E+01           0.33346238E+01
   0.19700000E+01           0.37011399E+01
   0.19800000E+01           0.41084096E+01
   0.19900000E+01           0.45613931E+01
   0.20000000E+01           0.24670202E+01
 #T=    50.0000
  -0.20000000E+01           0.00000000E+00
  -0.19900000E+01           0.00000000E+00
  -0.19800000E+01           0.00000000E+00
  -0.19700000E+01           0.00000000E+00
  -0.19600000E+01           0.00000000E+00
  -0.19500000E+01           0.00000000E+00
  -0.19400000E+01           0.00000000E+00
  -0.19300000E+01           0.00000000E+00
  -0.19200000E+01           0.00000000E+00
  -0.19100000E+01           0.00000000E+00
  -0.19000000E+01           0.00000000E+00
  -0.18900000E+01           0.00000000E+00
  -0.18800000E+01           0.00000000E+00
  -0.18700000E+01           0.00000000E+00
  -0.18600000E+01           0.00000000E+00
  -0.18500000E+01           0.00000000E+00
  -0.18400000E+01           0.00000000E+00
  -0.18300000E+01           0.00000000E+00
  -0.18200000E+01           0.00000000E+00
  -0.18100000E+01           0.00000000E+00
  -0.18000000E+01           0.00000000E+00
  -0.17900000E+01           0.00000000E+00
  -0.17800000E+01           0.00000000E+00
  -0.17700000E+01           0.00000000E+00
  -0.17600000E+01           0.00000000E+00
  -0.17500000E+01           0.00000000E+00
  -0.17400000E+01           0.00000000E+00
  -0.17300000E+01           0.00000000E+00
  -0.17200000E+01           0.00000000E+00
  -0.17100000E+01           0.00000000E+00
  -0.17000000E+01           0.00000000E+00
  -0.16900000E+01           0.00000000E+00
  -0.16800000E+01           0.00000000E+00
  -0.16700000E+01           0.00000000E+00
  -0.16600000E+01           0.00000000E+00
  -0.16500000E+01           0.00000000E+00
  -0.16400000E+01           0.00000000E+00
  -0.16300000E+01           0.00000000E+00
  -0.16200000E+01           0.00000000E+00
  -0.16100000E+01           0.00000000E+00
  -0.16000000E+01           0.00000000E+00
  -0.15900000E+01           0.00000000E+00
  -0.15800000E+01           0.00000000E+00
  -0.15700000E+01           0.00000000E+00
  -0.15600000E+01           0.00000000E+00
  -0.15500000E+01           0.00000000E+00
  -0.15400000E+01           0.00000000E+00
  -0.15300000E+01           0.00000000E+00
  -0.15200000E+01           0.00000000E+00
  -0.15100000E+01           0.00000000E+00
  -0.15000000E+01           0.00000000E+00
  -0.14900000E+01           0.00000000E+00
  -0.14800000E+01           0.00000000E+00
  -0.14700000E+01           0.00000000E+00
  -0.14600000E+01           0.00000000E+00
  -0.14500000E+01           0.00000000E+00
  -0.14400000E+01           0.00000000E+00
  -0.14300000E+01           0.00000000E+00
  -0.14200000E+01           0.00000000E+00
  -0.14100000E+01           0.00000000E+00
  -0.14000000E+01           0.00000000E+00
  -0.13900000E+01           0.00000000E+00
  -0.13800000E+01           0.00000000E+00
  -0.13700000E+01           0.00000000E+00
  -0.13600000E+01           0.00000000E+00
  -0.13500000E+01           0.00000000E+00
  -0.13400000E+01           0.00000000E+00
  -0.13300000E+01           0.00000000E+00
  -0.13200000E+01           0.00000000E+00
  -0.13100000E+01           0.00000000E+00
  -0.13000000E+01           0.00000000E+00
  -0.12900000E+01           0.00000000E+00
  -0.12800000E+01           0.00000000E+00
  -0.12700000E+01           0.00000000E+00
  -0.12600000E+01           0.00000000E+00
  -0.12500000E+01           0.00000000E+00
  -0.12400000E+01           0.00000000E+00
  -0.12300000E+01           0.00000000E+00
  -0.12200000E+01           0.00000000E+00
  -0.12100000E+01           0.00000000E+00
  -0.12000000E+01           0.00000000E+00
  -0.11900000E+01           0.00000000E+00
  -0.11800000E+01           0.00000000E+00
  -0.11700000E+01           0.00000000E+00
  -0.11600000E+01           0.00000000E+00
  -0.11500000E+01           0.00000000E+00
  -0.11400000E+01           0.00000000E+00
  -0.11300000E+01           0.00000000E+00
  -0.11200000E+01           0.00000000E+00
  -0.11100000E+01           0.00000000E+00
  -0.11000000E+01           0.00000000E+00
  -0.10900000E+01           0.00000000E+00
  -0.10800000E+01           0.00000000E+00
  -0.10700000E+01           0.00000000E+00
  -0.10600000E+01           0.00000000E+00
  -0.10500000E+01           0.00000000E+00
  -0.10400000E+01           0.00000000E+00
  -0.10300000E+01           0.00000000E+00
  -0.10200000E+01           0.00000000E+00
  -0.10100000E+01           0.00000000E+00
  -0.10000000E+01           0.00000000E+00
  -0.99000000E+00           0.00000000E+00
  -0.98000000E+00           0.00000000E+00
  -0.97000000E+00           0.00000000E+00
  -0.96000000E+00           0.00000000E+00
  -0.95000000E+00           0.00000000E+00
  -0.94000000E+00           0.00000000E+00
  -0.93000000E+00           0.00000000E+00
  -0.92000000E+00           0.00000000E+00
  -0.91000000E+00           0.00000000E+00
  -0.90000000E+00           0.00000000E+00
  -0.89000000E+00           0.00000000E+00
  -0.88000000E+00           0.00000000E+00
  -0.87000000E+00           0.00000000E+00
  -0.86000000E+00           0.00000000E+00
  -0.85000000E+00           0.00000000E+00
  -0.84000000E+00           0.00000000E+00
  -0.83000000E+00           0.00000000E+00
  -0.82000000E+00           0.00000000E+00
  -0.81000000E+00           0.00000000E+00
  -0.80000000E+00           0.00000000E+00
  -0.79000000E+00           0.00000000E+00
  -0.78000000E+00           0.00000000E+00
  -0.77000000E+00           0.00000000E+00
  -0.76000000E+00           0.00000000E+00
  -0.75000000E+00           0.00000000E+00
  -0.74000000E+00           0.00000000E+00
  -0.73000000E+00           0.00000000E+00
  -0.72000000E+00           0.00000000E+00
  -0.71000000E+00           0.00000000E+00
  -0.70000000E+00           0.00000000E+00
  -0.69000000E+00           0.00000000E+00
  -0.68000000E+00           0.00000000E+00
  -0.67000000E+00           0.00000000E+00
  -0.66000000E+00           0.00000000E+00
  -0.65000000E+00           0.00000000E+00
  -0.64000000E+00           0.00000000E+00
  -0.63000000E+00           0.00000000E+00
  -0.62000000E+00           0.00000000E+00
  -0.61000000E+00           0.00000000E+00
  -0.60000000E+00           0.00000000E+00
  -0.59000000E+00           0.00000000E+00
  -0.58000000E+00           0.00000000E+00
  -0.57000000E+00           0.00000000E+00
  -0.56000000E+00           0.00000000E+00
  -0.55000000E+00           0.00000000E+00
  -0.54000000E+00           0.00000000E+00
  -0.53000000E+00           0.00000000E+00
  -0.52000000E+00           0.00000000E+00
  -0.51000000E+00           0.00000000E+00
  -0.50000000E+00           0.00000000E+00
  -0.49000000E+00           0.00000000E+00
  -0.48000000E+00           0.00000000E+00
  -0.47000000E+00           0.00000000E+00
  -0.46000000E+00           0.00000000E+00
  -0.45000000E+00           0.00000000E+00
  -0.44000000E+00           0.00000000E+00
  -0.43000000E+00           0.00000000E+00
  -0.42000000E+00           0.00000000E+00
  -0.41000000E+00           0.00000000E+00
  -0.40000000E+00           0.00000000E+00
  -0.39000000E+00           0.00000000E+00
  -0.38000000E+00           0.00000000E+00
  -0.37000000E+00           0.00000000E+00
  -0.36000000E+00           0.00000000E+00
  -0.35000000E+00           0.00000000E+00
  -0.34000000E+00           0.00000000E+00
  -0.33000000E+00           0.00000000E+00
  -0.32000000E+00           0.00000000E+00
  -0.31000000E+00           0.00000000E+00
  -0.30000000E+00           0.00000000E+00
  -0.29000000E+00           0.00000000E+00
  -0.28000000E+00           0.00000000E+00
  -0.27000000E+00           0.00000000E+00
  -0.26000000E+00           0.00000000E+00
  -0.25000000E+00           0.00000000E+00
  -0.24000000E+00           0.00000000E+00
  -0.23000000E+00           0.00000000E+00
  -0.22000000E+00           0.00000000E+00
  -0.21000000E+00           0.00000000E+00
  -0.20000000E+00           0.00000000E+00
  -0.19000000E+00           0.00000000E+00
  -0.18000000E+00           0.00000000E+00
  -0.17000000E+00           0.00000000E+00
  -0.16000000E+00           0.00000000E+00
  -0.15000000E+00           0.00000000E+00
  -0.14000000E+00           0.00000000E+00
  -0.13000000E+00           0.00000000E+00
  -0.12000000E+00           0.00000000E+00
  -0.11000000E+00           0.00000000E+00
  -0.10000000E+00           0.00000000E+00
  -0.90000000E-01           0.00000000E+00
  -0.80000000E-01           0.00000000E+00
  -0.70000000E-01           0.00000000E+00
  -0.60000000E-01           0.00000000E+00
  -0.50000000E-01           0.00000000E+00
  -0.40000000E-01           0.00000000E+00
  -0.30000000E-01           0.00000000E+00
  -0.20000000E-01           0.00000000E+00
  -0.10000000E-01           0.00000000E+00
   0.00000000E+00           0.30939000E-02
   0.10000000E-01           0.24628900E-01
   0.20000000E-01           0.49159200E-01
   0.30000000E-01           0.73797900E-01
   0.40000000E-01           0.98168100E-01
   0.50000000E-01           0.12227770E+00
   0.60000000E-01           0.14645610E+00
   0.70000000E-01           0.17006500E+00
   0.80000000E-01           0.19396520E+00
   0.90000000E-01           0.21718250E+00
   0.10000000E+00           0.24032240E+00
   0.11000000E+00           0.26249620E+00
   0.12000000E+00           0.28496420E+00
   0.13000000E+00           0.30672920E+00
   0.14000000E+00           0.32843350E+00
   0.15000000E+00           0.34877880E+00
   0.16000000E+00           0.37020000E+00
   0.17000000E+00           0.39014690E+00
   0.18000000E+00           0.40904350E+00
   0.19000000E+00           0.42872600E+00
   0.20000000E+00           0.44647180E+00
   0.21000000E+00           0.46396800E+00
   0.22000000E+00           0.48109060E+00
   0.23000000E+00           0.49740750E+00
   0.24000000E+00           0.51292960E+00
   0.25000000E+00           0.52916690E+00
   0.26000000E+00           0.54316040E+00
   0.27000000E+00           0.55649180E+00
   0.28000000E+00           0.56920810E+00
   0.29000000E+00           0.58025160E+00
   0.30000000E+00           0.59322290E+00
   0.31000000E+00           0.60341030E+00
   0.32000000E+00           0.61341430E+00
   0.33000000E+00           0.62301670E+00
   0.34000000E+00           0.63078290E+00
   0.35000000E+00           0.63859990E+00
   0.36000000E+00           0.64496570E+00
   0.37000000E+00           0.65214010E+00
   0.38000000E+00           0.65750150E+00
   0.39000000E+00           0.66169600E+00
   0.40000000E+00           0.66667400E+00
   0.41000000E+00           0.66954670E+00
   0.42000000E+00           0.67173370E+00
   0.43000000E+00           0.67398900E+00
   0.44000000E+00           0.67473680E+00
   0.45000000E+00           0.67510420E+00
   0.46000000E+00           0.67472030E+00
   0.47000000E+00           0.67420760E+00
   0.48000000E+00           0.67340090E+00
   0.49000000E+00           0.66960170E+00
[...]
   0.13800000E+01           0.64522870E+00
   0.13900000E+01           0.65048590E+00
   0.14000000E+01           0.65463550E+00
   0.14100000E+01           0.65954230E+00
   0.14200000E+01           0.66421740E+00
   0.14300000E+01           0.66873270E+00
   0.14400000E+01           0.67326990E+00
   0.14500000E+01           0.67849100E+00
   0.14600000E+01           0.68319270E+00
   0.14700000E+01           0.68806510E+00
   0.14800000E+01           0.69378960E+00
   0.14900000E+01           0.69822700E+00
   0.15000000E+01           0.70397440E+00
   0.15100000E+01           0.70946320E+00
   0.15200000E+01           0.71408300E+00
   0.15300000E+01           0.71974930E+00
   0.15400000E+01           0.72557610E+00
   0.15500000E+01           0.73042550E+00
   0.15600000E+01           0.73647750E+00
   0.15700000E+01           0.74225380E+00
   0.15800000E+01           0.74794320E+00
   0.15900000E+01           0.75444900E+00
   0.16000000E+01           0.75994970E+00
   0.16100000E+01           0.76670210E+00
   0.16200000E+01           0.77197700E+00
   0.16300000E+01           0.77894330E+00
   0.16400000E+01           0.78546640E+00
   0.16500000E+01           0.79140970E+00
   0.16600000E+01           0.79907740E+00
   0.16700000E+01           0.80568250E+00
   0.16800000E+01           0.81259240E+00
   0.16900000E+01           0.82029730E+00
   0.17000000E+01           0.82667360E+00
   0.17100000E+01           0.83442120E+00
   0.17200000E+01           0.84152560E+00
   0.17300000E+01           0.84970040E+00
   0.17400000E+01           0.85722970E+00
   0.17500000E+01           0.86498700E+00
   0.17600000E+01           0.87326520E+00
   0.17700000E+01           0.88202320E+00
   0.17800000E+01           0.89008230E+00
   0.17900000E+01           0.89962750E+00
   0.18000000E+01           0.90791740E+00
   0.18100000E+01           0.91732040E+00
   0.18200000E+01           0.92601000E+00
   0.18300000E+01           0.93579590E+00
   0.18400000E+01           0.94550200E+00
   0.18500000E+01           0.95522570E+00
   0.18600000E+01           0.96564510E+00
   0.18700000E+01           0.97613650E+00
   0.18800000E+01           0.98665030E+00
   0.18900000E+01           0.99746400E+00
   0.19000000E+01           0.10087104E+01
   0.19100000E+01           0.10199382E+01
   0.19200000E+01           0.10312033E+01
   0.19300000E+01           0.10436235E+01
   0.19400000E+01           0.10550789E+01
   0.19500000E+01           0.10676821E+01
   0.19600000E+01           0.10804864E+01
   0.19700000E+01           0.10928628E+01
   0.19800000E+01           0.11060175E+01
   0.19900000E+01           0.11199379E+01
   0.20000000E+01           0.56525070E+00
 #T=   125.0000
  -0.20000000E+01           0.00000000E+00
  -0.19900000E+01           0.00000000E+00
  -0.19800000E+01           0.00000000E+00
  -0.19700000E+01           0.00000000E+00
  -0.19600000E+01           0.00000000E+00
  -0.19500000E+01           0.00000000E+00
  -0.19400000E+01           0.00000000E+00
  -0.19300000E+01           0.00000000E+00
  -0.19200000E+01           0.00000000E+00
  -0.19100000E+01           0.00000000E+00
  -0.19000000E+01           0.00000000E+00
  -0.18900000E+01           0.00000000E+00
  -0.18800000E+01           0.00000000E+00
  -0.18700000E+01           0.00000000E+00
  -0.18600000E+01           0.00000000E+00
  -0.18500000E+01           0.00000000E+00
  -0.18400000E+01           0.00000000E+00
  -0.18300000E+01           0.00000000E+00
  -0.18200000E+01           0.00000000E+00
  -0.18100000E+01           0.00000000E+00
  -0.18000000E+01           0.00000000E+00
  -0.17900000E+01           0.00000000E+00
  -0.17800000E+01           0.00000000E+00
  -0.17700000E+01           0.00000000E+00
  -0.17600000E+01           0.00000000E+00
  -0.17500000E+01           0.00000000E+00
  -0.17400000E+01           0.00000000E+00
  -0.17300000E+01           0.00000000E+00
  -0.17200000E+01           0.00000000E+00
  -0.17100000E+01           0.00000000E+00
  -0.17000000E+01           0.00000000E+00
  -0.16900000E+01           0.00000000E+00
  -0.16800000E+01           0.00000000E+00
  -0.16700000E+01           0.00000000E+00
  -0.16600000E+01           0.00000000E+00
  -0.16500000E+01           0.00000000E+00
  -0.16400000E+01           0.00000000E+00
  -0.16300000E+01           0.00000000E+00
  -0.16200000E+01           0.00000000E+00
  -0.16100000E+01           0.00000000E+00
  -0.16000000E+01           0.00000000E+00
  -0.15900000E+01           0.00000000E+00
  -0.15800000E+01           0.00000000E+00
  -0.15700000E+01           0.00000000E+00
  -0.15600000E+01           0.00000000E+00
  -0.15500000E+01           0.00000000E+00
  -0.15400000E+01           0.00000000E+00
  -0.15300000E+01           0.00000000E+00
  -0.15200000E+01           0.00000000E+00
  -0.15100000E+01           0.00000000E+00
  -0.15000000E+01           0.00000000E+00
  -0.14900000E+01           0.00000000E+00
  -0.14800000E+01           0.00000000E+00
  -0.14700000E+01           0.00000000E+00
  -0.14600000E+01           0.00000000E+00
  -0.14500000E+01           0.00000000E+00
  -0.14400000E+01           0.00000000E+00
  -0.14300000E+01           0.00000000E+00
  -0.14200000E+01           0.00000000E+00
  -0.14100000E+01           0.00000000E+00
  -0.14000000E+01           0.00000000E+00
  -0.13900000E+01           0.00000000E+00
  -0.13800000E+01           0.00000000E+00
  -0.13700000E+01           0.00000000E+00
  -0.13600000E+01           0.00000000E+00
  -0.13500000E+01           0.00000000E+00
  -0.13400000E+01           0.00000000E+00
  -0.13300000E+01           0.00000000E+00
  -0.13200000E+01           0.00000000E+00
  -0.13100000E+01           0.00000000E+00
  -0.13000000E+01           0.00000000E+00
  -0.12900000E+01           0.00000000E+00
  -0.12800000E+01           0.00000000E+00
  -0.12700000E+01           0.00000000E+00
  -0.12600000E+01           0.00000000E+00
  -0.12500000E+01           0.00000000E+00
  -0.12400000E+01           0.00000000E+00
  -0.12300000E+01           0.00000000E+00
  -0.12200000E+01           0.00000000E+00
  -0.12100000E+01           0.00000000E+00
  -0.12000000E+01           0.00000000E+00
  -0.11900000E+01           0.00000000E+00
  -0.11800000E+01           0.00000000E+00
  -0.11700000E+01           0.00000000E+00
  -0.11600000E+01           0.00000000E+00
  -0.11500000E+01           0.00000000E+00
  -0.11400000E+01           0.00000000E+00
  -0.11300000E+01           0.00000000E+00
  -0.11200000E+01           0.00000000E+00
  -0.11100000E+01           0.00000000E+00
  -0.11000000E+01           0.00000000E+00
  -0.10900000E+01           0.00000000E+00
  -0.10800000E+01           0.00000000E+00
  -0.10700000E+01           0.00000000E+00
  -0.10600000E+01           0.00000000E+00
  -0.10500000E+01           0.00000000E+00
  -0.10400000E+01           0.00000000E+00
  -0.10300000E+01           0.00000000E+00
  -0.10200000E+01           0.00000000E+00
  -0.10100000E+01           0.00000000E+00
  -0.10000000E+01           0.00000000E+00
  -0.99000000E+00           0.00000000E+00
  -0.98000000E+00           0.00000000E+00
  -0.97000000E+00           0.00000000E+00
  -0.96000000E+00           0.00000000E+00
  -0.95000000E+00           0.00000000E+00
  -0.94000000E+00           0.00000000E+00
  -0.93000000E+00           0.00000000E+00
  -0.92000000E+00           0.00000000E+00
  -0.91000000E+00           0.00000000E+00
  -0.90000000E+00           0.00000000E+00
  -0.89000000E+00           0.00000000E+00
  -0.88000000E+00           0.00000000E+00
  -0.87000000E+00           0.00000000E+00
  -0.86000000E+00           0.00000000E+00
  -0.85000000E+00           0.00000000E+00
  -0.84000000E+00           0.00000000E+00
  -0.83000000E+00           0.00000000E+00
  -0.82000000E+00           0.00000000E+00
  -0.81000000E+00           0.00000000E+00
  -0.80000000E+00           0.00000000E+00
  -0.79000000E+00           0.00000000E+00
  -0.78000000E+00           0.00000000E+00
  -0.77000000E+00           0.00000000E+00
  -0.76000000E+00           0.00000000E+00
  -0.75000000E+00           0.00000000E+00
  -0.74000000E+00           0.00000000E+00
  -0.73000000E+00           0.00000000E+00
  -0.72000000E+00           0.00000000E+00
  -0.71000000E+00           0.00000000E+00
  -0.70000000E+00           0.00000000E+00
  -0.69000000E+00           0.00000000E+00
  -0.68000000E+00           0.00000000E+00
  -0.67000000E+00           0.00000000E+00
  -0.66000000E+00           0.00000000E+00
  -0.65000000E+00           0.00000000E+00
  -0.64000000E+00           0.00000000E+00
  -0.63000000E+00           0.00000000E+00
  -0.62000000E+00           0.00000000E+00
  -0.61000000E+00           0.00000000E+00
  -0.60000000E+00           0.00000000E+00
  -0.59000000E+00           0.00000000E+00
  -0.58000000E+00           0.00000000E+00
  -0.57000000E+00           0.00000000E+00
  -0.56000000E+00           0.00000000E+00
  -0.55000000E+00           0.00000000E+00
  -0.54000000E+00           0.00000000E+00
  -0.53000000E+00           0.00000000E+00
  -0.52000000E+00           0.00000000E+00
  -0.51000000E+00           0.00000000E+00
  -0.50000000E+00           0.00000000E+00
  -0.49000000E+00           0.00000000E+00
  -0.48000000E+00           0.00000000E+00
  -0.47000000E+00           0.00000000E+00
  -0.46000000E+00           0.00000000E+00
  -0.45000000E+00           0.00000000E+00
  -0.44000000E+00           0.00000000E+00
  -0.43000000E+00           0.00000000E+00
  -0.42000000E+00           0.00000000E+00
  -0.41000000E+00           0.00000000E+00
  -0.40000000E+00           0.00000000E+00
  -0.39000000E+00           0.00000000E+00
  -0.38000000E+00           0.00000000E+00
  -0.37000000E+00           0.00000000E+00
  -0.36000000E+00           0.00000000E+00
  -0.35000000E+00           0.00000000E+00
  -0.34000000E+00           0.00000000E+00
  -0.33000000E+00           0.00000000E+00
  -0.32000000E+00           0.00000000E+00
  -0.31000000E+00           0.00000000E+00
  -0.30000000E+00           0.00000000E+00
  -0.29000000E+00           0.00000000E+00
  -0.28000000E+00           0.00000000E+00
  -0.27000000E+00           0.00000000E+00
  -0.26000000E+00           0.00000000E+00
  -0.25000000E+00           0.00000000E+00
  -0.24000000E+00           0.00000000E+00
  -0.23000000E+00           0.00000000E+00
  -0.22000000E+00           0.00000000E+00
  -0.21000000E+00           0.00000000E+00
  -0.20000000E+00           0.00000000E+00
  -0.19000000E+00           0.00000000E+00
  -0.18000000E+00           0.00000000E+00
  -0.17000000E+00           0.00000000E+00
  -0.16000000E+00           0.00000000E+00
  -0.15000000E+00           0.00000000E+00
  -0.14000000E+00           0.00000000E+00
  -0.13000000E+00           0.00000000E+00
  -0.12000000E+00           0.00000000E+00
  -0.11000000E+00           0.00000000E+00
  -0.10000000E+00           0.00000000E+00
  -0.90000000E-01           0.00000000E+00
  -0.80000000E-01           0.00000000E+00
  -0.70000000E-01           0.00000000E+00
  -0.60000000E-01           0.00000000E+00
  -0.50000000E-01           0.00000000E+00
  -0.40000000E-01           0.00000000E+00
  -0.30000000E-01           0.00000000E+00
  -0.20000000E-01           0.00000000E+00
  -0.10000000E-01           0.00000000E+00
   0.00000000E+00           0.71320000E-03
   0.10000000E-01           0.56502000E-02
   0.20000000E-01           0.11259800E-01
   0.30000000E-01           0.16978100E-01
   0.40000000E-01           0.22524300E-01
   0.50000000E-01           0.28240500E-01
   0.60000000E-01           0.33868500E-01
   0.70000000E-01           0.39474300E-01
   0.80000000E-01           0.45213700E-01
   0.90000000E-01           0.50863800E-01
   0.10000000E+00           0.56442500E-01
   0.11000000E+00           0.62082400E-01
   0.12000000E+00           0.67607500E-01
   0.13000000E+00           0.73367300E-01
   0.14000000E+00           0.78838200E-01
   0.15000000E+00           0.84450500E-01
   0.16000000E+00           0.90140000E-01
   0.17000000E+00           0.95737200E-01
   0.18000000E+00           0.10131090E+00
   0.19000000E+00           0.10672220E+00
   0.20000000E+00           0.11226600E+00
   0.21000000E+00           0.11783960E+00
   0.22000000E+00           0.12328310E+00
   0.23000000E+00           0.12898800E+00
   0.24000000E+00           0.13459370E+00
   0.25000000E+00           0.13979070E+00
   0.26000000E+00           0.14551900E+00
   0.27000000E+00           0.15079160E+00
   0.28000000E+00           0.15583980E+00
   0.29000000E+00           0.16146140E+00
   0.30000000E+00           0.16682800E+00
   0.31000000E+00           0.17192490E+00
   0.32000000E+00           0.17799140E+00
   0.33000000E+00           0.18297350E+00
   0.34000000E+00           0.18860750E+00
   0.35000000E+00           0.19349950E+00
   0.36000000E+00           0.19880840E+00
   0.37000000E+00           0.20421770E+00
   0.38000000E+00           0.20966060E+00
   0.39000000E+00           0.21475500E+00
   0.40000000E+00           0.21967860E+00
   0.41000000E+00           0.22483680E+00
   0.42000000E+00           0.23030400E+00
   0.43000000E+00           0.23518900E+00
   0.44000000E+00           0.24057310E+00
   0.45000000E+00           0.24596240E+00
   0.46000000E+00           0.25050690E+00
   0.47000000E+00           0.25575580E+00
   0.48000000E+00           0.26111490E+00
   0.49000000E+00           0.26577970E+00
   0.50000000E+00           0.27061510E+00
   0.51000000E+00           0.27592310E+00
   0.52000000E+00           0.28092750E+00
   0.53000000E+00           0.28579760E+00
   0.54000000E+00           0.29094200E+00
   0.55000000E+00           0.29537190E+00
   0.56000000E+00           0.30007940E+00
   0.57000000E+00           0.30499060E+00
   0.58000000E+00           0.30967690E+00
   0.59000000E+00           0.31490670E+00
   0.60000000E+00           0.31932880E+00
   0.61000000E+00           0.32386380E+00
   0.62000000E+00           0.32871690E+00
   0.63000000E+00           0.33377290E+00
   0.64000000E+00           0.33799660E+00
   0.65000000E+00           0.34273560E+00
   0.66000000E+00           0.34754050E+00
   0.67000000E+00           0.35180200E+00
   0.68000000E+00           0.35627420E+00
   0.69000000E+00           0.36107750E+00
   0.70000000E+00           0.36563590E+00
   0.71000000E+00           0.36970480E+00
   0.72000000E+00           0.37458450E+00
   0.73000000E+00           0.37906550E+00
   0.74000000E+00           0.38308370E+00
   0.75000000E+00           0.38778380E+00
   0.76000000E+00           0.39235360E+00
   0.77000000E+00           0.39661780E+00
   0.78000000E+00           0.40113360E+00
   0.79000000E+00           0.40521740E+00
   0.80000000E+00           0.40948380E+00
   0.81000000E+00           0.41342730E+00
   0.82000000E+00           0.41808810E+00
   0.83000000E+00           0.42205890E+00
   0.84000000E+00           0.42644310E+00
   0.85000000E+00           0.43059850E+00
   0.86000000E+00           0.43472590E+00
   0.87000000E+00           0.43868060E+00
   0.88000000E+00           0.44290800E+00
   0.89000000E+00           0.44711680E+00
   0.90000000E+00           0.45143120E+00
   0.91000000E+00           0.45513870E+00
   0.92000000E+00           0.45937230E+00
   0.93000000E+00           0.46336180E+00
   0.94000000E+00           0.46781350E+00
   0.95000000E+00           0.47155600E+00
   0.96000000E+00           0.47578680E+00
   0.97000000E+00           0.47969760E+00
   0.98000000E+00           0.48374450E+00
   0.99000000E+00           0.48792400E+00
   0.10000000E+01           0.49139730E+00
   0.10100000E+01           0.49599160E+00
   0.10200000E+01           0.49948720E+00
   0.10300000E+01           0.50294970E+00
   0.10400000E+01           0.50751260E+00
   0.10500000E+01           0.51171320E+00
   0.10600000E+01           0.51549590E+00
   0.10700000E+01           0.51929320E+00
   0.10800000E+01           0.52367430E+00
   0.10900000E+01           0.52724430E+00
   0.11000000E+01           0.53084360E+00
   0.11100000E+01           0.53499530E+00
   0.11200000E+01           0.53888150E+00
   0.11300000E+01           0.54291850E+00
   0.11400000E+01           0.54667050E+00
   0.11500000E+01           0.55060000E+00
   0.11600000E+01           0.55496650E+00
   0.11700000E+01           0.55845210E+00
   0.11800000E+01           0.56278840E+00
   0.11900000E+01           0.56662070E+00
   0.12000000E+01           0.57101220E+00
   0.12100000E+01           0.57445510E+00
   0.12200000E+01           0.57886540E+00
   0.12300000E+01           0.58289590E+00
   0.12400000E+01           0.58659630E+00
   0.12500000E+01           0.59103720E+00
   0.12600000E+01           0.59543890E+00
   0.12700000E+01           0.59920220E+00
   0.12800000E+01           0.60340660E+00
   0.12900000E+01           0.60753740E+00
   0.13000000E+01           0.61152850E+00
   0.13100000E+01           0.61597290E+00
   0.13200000E+01           0.62012080E+00
   0.13300000E+01           0.62420230E+00
   0.13400000E+01           0.62893110E+00
   0.13500000E+01           0.63318050E+00
   0.13600000E+01           0.63809170E+00
   0.13700000E+01           0.64240310E+00
   0.13800000E+01           0.64653450E+00
   0.13900000E+01           0.65158110E+00
   0.14000000E+01           0.65591140E+00
   0.14100000E+01           0.66076000E+00
   0.14200000E+01           0.66511430E+00
   0.14300000E+01           0.67025190E+00
   0.14400000E+01           0.67445040E+00
   0.14500000E+01           0.67937950E+00
   0.14600000E+01           0.68423730E+00
   0.14700000E+01           0.68946910E+00
   0.14800000E+01           0.69456930E+00
   0.14900000E+01           0.69971770E+00
   0.15000000E+01           0.70515260E+00
   0.15100000E+01           0.71002600E+00
   0.15200000E+01           0.71538460E+00
   0.15300000E+01           0.72031470E+00
   0.15400000E+01           0.72613570E+00
   0.15500000E+01           0.73167990E+00
   0.15600000E+01           0.73775980E+00
   0.15700000E+01           0.74332480E+00
   0.15800000E+01           0.74893930E+00
   0.15900000E+01           0.75472360E+00
   0.16000000E+01           0.76086900E+00
   0.16100000E+01           0.76738010E+00
   0.16200000E+01           0.77338510E+00
   0.16300000E+01           0.77941930E+00
   0.16400000E+01           0.78572350E+00
   0.16500000E+01           0.79221490E+00
   0.16600000E+01           0.79934170E+00
   0.16700000E+01           0.80627050E+00
   0.16800000E+01           0.81310320E+00
   0.16900000E+01           0.82008090E+00
   0.17000000E+01           0.82775590E+00
   0.17100000E+01           0.83495780E+00
   0.17200000E+01           0.84232960E+00
   0.17300000E+01           0.84960020E+00
   0.17400000E+01           0.85798150E+00
   0.17500000E+01           0.86571420E+00
   0.17600000E+01           0.87322920E+00
   0.17700000E+01           0.88197370E+00
   0.17800000E+01           0.89077500E+00
   0.17900000E+01           0.89909970E+00
   0.18000000E+01           0.90841850E+00
   0.18100000E+01           0.91674530E+00
   0.18200000E+01           0.92615020E+00
   0.18300000E+01           0.93536590E+00
   0.18400000E+01           0.94525730E+00
   0.18500000E+01           0.95468760E+00
   0.18600000E+01           0.96475320E+00
   0.18700000E+01           0.97473910E+00
   0.18800000E+01           0.98561870E+00
   0.18900000E+01           0.99594750E+00
   0.19000000E+01           0.10073975E+01
   0.19100000E+01           0.10180783E+01
   0.19200000E+01           0.10304614E+01
   0.19300000E+01           0.10411372E+01
   0.19400000E+01           0.10536213E+01
   0.19500000E+01           0.10657646E+01
   0.19600000E+01           0.10772787E+01
   0.19700000E+01           0.10913351E+01
   0.19800000E+01           0.11038667E+01
   0.19900000E+01           0.11177812E+01
   0.20000000E+01           0.56389440E+00
