 #written on  6Dec2024 at 16:52:30 
 #----------------------------------------------- MONTECARLO ---------------------------------------------------#
 # Temp      Magnetization     Energy_ave          C_M              Sus              U_E              U_M       #
 #--------------------------------------------------------------------------------------------------------------#
  46.0000   0.82949159E-02  -0.24154113E+03   0.13898337E+01   0.67964855E-03   0.66663307E+00   0.37401460E+00
  47.0000   0.84259713E-02  -0.24012754E+03   0.14176963E+01   0.67956109E-03   0.66663047E+00   0.37624909E+00
  48.0000   0.85676047E-02  -0.23869690E+03   0.14404002E+01   0.68388158E-03   0.66662785E+00   0.37793874E+00
  49.0000   0.86907336E-02  -0.23724010E+03   0.14780050E+01   0.68174525E-03   0.66662465E+00   0.38114040E+00
  50.0000   0.88203585E-02  -0.23575613E+03   0.15041008E+01   0.68433596E-03   0.66662158E+00   0.38286548E+00
  51.0000   0.89552941E-02  -0.23424109E+03   0.15337108E+01   0.68529488E-03   0.66661822E+00   0.38480010E+00
  52.0000   0.90925597E-02  -0.23267960E+03   0.15710818E+01   0.68703525E-03   0.66661438E+00   0.38679027E+00
  53.0000   0.92404147E-02  -0.23109083E+03   0.16101037E+01   0.69112692E-03   0.66661023E+00   0.38895214E+00
  54.0000   0.93797905E-02  -0.22946886E+03   0.16510817E+01   0.69226171E-03   0.66660574E+00   0.39170553E+00
  55.0000   0.95269706E-02  -0.22779669E+03   0.16898413E+01   0.69453282E-03   0.66660103E+00   0.39446727E+00
  56.0000   0.96795975E-02  -0.22607516E+03   0.17394783E+01   0.69631136E-03   0.66659555E+00   0.39743101E+00
  57.0000   0.98435905E-02  -0.22430133E+03   0.18011217E+01   0.70186863E-03   0.66658917E+00   0.39992883E+00
  58.0000   0.99956629E-02  -0.22248212E+03   0.18604481E+01   0.70324564E-03   0.66658242E+00   0.40282813E+00
  59.0000   0.10157433E-01  -0.22059614E+03   0.19152659E+01   0.70706971E-03   0.66657539E+00   0.40585794E+00
  60.0000   0.10319855E-01  -0.21864834E+03   0.19783496E+01   0.71161769E-03   0.66656741E+00   0.40831549E+00
  61.0000   0.10495593E-01  -0.21662836E+03   0.20590874E+01   0.71678338E-03   0.66655790E+00   0.41136831E+00
  62.0000   0.10672614E-01  -0.21452792E+03   0.21441044E+01   0.72302588E-03   0.66654737E+00   0.41340404E+00
  63.0000   0.10860122E-01  -0.21234202E+03   0.22274832E+01   0.72853432E-03   0.66653606E+00   0.41696068E+00
  64.0000   0.11044250E-01  -0.21005071E+03   0.23454465E+01   0.73193573E-03   0.66652164E+00   0.42118408E+00
  65.0000   0.11259468E-01  -0.20764784E+03   0.24671379E+01   0.74437117E-03   0.66650566E+00   0.42320908E+00
  66.0000   0.11454066E-01  -0.20512230E+03   0.25996629E+01   0.75156899E-03   0.66648745E+00   0.42566011E+00
  67.0000   0.11685452E-01  -0.20244114E+03   0.27584326E+01   0.76415456E-03   0.66646548E+00   0.42784481E+00
  68.0000   0.11903628E-01  -0.19958305E+03   0.29675017E+01   0.77507603E-03   0.66643737E+00   0.43087017E+00
  69.0000   0.12144253E-01  -0.19648618E+03   0.32099778E+01   0.78776890E-03   0.66640323E+00   0.43368299E+00
  70.0000   0.12408106E-01  -0.19311203E+03   0.35395932E+01   0.80440771E-03   0.66635726E+00   0.43635522E+00
  71.0000   0.12696574E-01  -0.18934752E+03   0.39928598E+01   0.82691580E-03   0.66629335E+00   0.43769923E+00
  72.0000   0.13021266E-01  -0.18504091E+03   0.46256765E+01   0.84926908E-03   0.66620120E+00   0.44027557E+00
  73.0000   0.13385646E-01  -0.18005176E+03   0.54341883E+01   0.88000400E-03   0.66607318E+00   0.44190640E+00
  74.0000   0.13793049E-01  -0.17419554E+03   0.62468821E+01   0.92061484E-03   0.66591726E+00   0.44292768E+00
  75.0000   0.14246394E-01  -0.16763524E+03   0.66281051E+01   0.96601204E-03   0.66578364E+00   0.44340780E+00
  76.0000   0.14688585E-01  -0.16103030E+03   0.63604640E+01   0.10158437E-02   0.66572202E+00   0.44291422E+00
  77.0000   0.15089442E-01  -0.15509057E+03   0.54793263E+01   0.10595905E-02   0.66576427E+00   0.44225139E+00
  78.0000   0.15405267E-01  -0.15012813E+03   0.44461760E+01   0.10930567E-02   0.66586403E+00   0.44141648E+00
  79.0000   0.15671512E-01  -0.14615497E+03   0.35814847E+01   0.11181000E-02   0.66596676E+00   0.44128326E+00
  80.0000   0.15890899E-01  -0.14293502E+03   0.29242418E+01   0.11348515E-02   0.66605418E+00   0.44158220E+00
  81.0000   0.16060538E-01  -0.14023405E+03   0.24698962E+01   0.11467978E-02   0.66611600E+00   0.44066253E+00
  82.0000   0.16214372E-01  -0.13794403E+03   0.21579995E+01   0.11544808E-02   0.66615723E+00   0.44073384E+00
  83.0000   0.16344398E-01  -0.13591948E+03   0.19090146E+01   0.11633697E-02   0.66619132E+00   0.43971845E+00
  84.0000   0.16470578E-01  -0.13410594E+03   0.17344067E+01   0.11673934E-02   0.66621244E+00   0.43946818E+00
  85.0000   0.16581150E-01  -0.13244530E+03   0.15926756E+01   0.11674621E-02   0.66622893E+00   0.43998075E+00
  86.0000   0.16684606E-01  -0.13091392E+03   0.14803128E+01   0.11690052E-02   0.66624043E+00   0.43984738E+00
  87.0000   0.16771196E-01  -0.12948146E+03   0.13790310E+01   0.11689756E-02   0.66625131E+00   0.43942080E+00
  88.0000   0.16867387E-01  -0.12814481E+03   0.13006020E+01   0.11701261E-02   0.66625753E+00   0.43880981E+00
  89.0000   0.16959030E-01  -0.12687431E+03   0.12305765E+01   0.11678816E-02   0.66626277E+00   0.43930773E+00
  90.0000   0.17030357E-01  -0.12567260E+03   0.11665946E+01   0.11628787E-02   0.66626763E+00   0.43962597E+00
  91.0000   0.17094742E-01  -0.12452720E+03   0.11173745E+01   0.11634448E-02   0.66626871E+00   0.43844188E+00
  92.0000   0.17195582E-01  -0.12343812E+03   0.10682635E+01   0.11597544E-02   0.66627093E+00   0.43980309E+00
  93.0000   0.17250457E-01  -0.12239271E+03   0.10210655E+01   0.11596083E-02   0.66627356E+00   0.43863406E+00
  94.0000   0.17323063E-01  -0.12139157E+03   0.97922498E+00   0.11580720E-02   0.66627512E+00   0.43826144E+00
  95.0000   0.17379726E-01  -0.12043114E+03   0.94453621E+00   0.11501830E-02   0.66627476E+00   0.43923988E+00
  96.0000   0.17449510E-01  -0.11950129E+03   0.91036221E+00   0.11480710E-02   0.66627494E+00   0.43871488E+00
  97.0000   0.17506981E-01  -0.11861609E+03   0.87578607E+00   0.11421291E-02   0.66627617E+00   0.43931184E+00
  98.0000   0.17560544E-01  -0.11774544E+03   0.84967371E+00   0.11375317E-02   0.66627420E+00   0.43931006E+00
  99.0000   0.17615190E-01  -0.11691786E+03   0.81942951E+00   0.11357571E-02   0.66627495E+00   0.43873864E+00
 100.0000   0.17673972E-01  -0.11610775E+03   0.79500892E+00   0.11297877E-02   0.66627352E+00   0.43888913E+00
 101.0000   0.17732788E-01  -0.11532114E+03   0.77006396E+00   0.11272223E-02   0.66627288E+00   0.43887474E+00
 102.0000   0.17779057E-01  -0.11456649E+03   0.74566039E+00   0.11190394E-02   0.66627265E+00   0.43939182E+00
 103.0000   0.17833444E-01  -0.11383692E+03   0.72489719E+00   0.11158924E-02   0.66627106E+00   0.43919419E+00
 104.0000   0.17882308E-01  -0.11312188E+03   0.70396366E+00   0.11105824E-02   0.66626999E+00   0.43965858E+00
 105.0000   0.17915523E-01  -0.11242823E+03   0.68407450E+00   0.11035014E-02   0.66626889E+00   0.43969045E+00
 106.0000   0.17952081E-01  -0.11174806E+03   0.66421280E+00   0.11037344E-02   0.66626824E+00   0.43786696E+00
 107.0000   0.18002306E-01  -0.11109383E+03   0.64709043E+00   0.10975138E-02   0.66626649E+00   0.43856914E+00
 108.0000   0.18039313E-01  -0.11045596E+03   0.62903769E+00   0.10905730E-02   0.66626576E+00   0.43898715E+00
 109.0000   0.18097281E-01  -0.10983141E+03   0.61505110E+00   0.10871686E-02   0.66626282E+00   0.43898341E+00
 110.0000   0.18128026E-01  -0.10922625E+03   0.59894032E+00   0.10808897E-02   0.66626172E+00   0.43878716E+00
 111.0000   0.18163561E-01  -0.10863263E+03   0.58449237E+00   0.10729102E-02   0.66625988E+00   0.43956551E+00
 112.0000   0.18200782E-01  -0.10805437E+03   0.57179335E+00   0.10705416E-02   0.66625717E+00   0.43896645E+00
 113.0000   0.18245453E-01  -0.10749393E+03   0.55601069E+00   0.10650489E-02   0.66625707E+00   0.43947369E+00
 114.0000   0.18267730E-01  -0.10694027E+03   0.54495458E+00   0.10559328E-02   0.66625385E+00   0.43958914E+00
 115.0000   0.18308163E-01  -0.10640245E+03   0.53116795E+00   0.10529418E-02   0.66625307E+00   0.43944448E+00
 116.0000   0.18342286E-01  -0.10588269E+03   0.51951303E+00   0.10463110E-02   0.66625101E+00   0.43995073E+00
 117.0000   0.18365393E-01  -0.10536714E+03   0.50963942E+00   0.10408395E-02   0.66624780E+00   0.43974627E+00
 118.0000   0.18392781E-01  -0.10485957E+03   0.49687289E+00   0.10360605E-02   0.66624725E+00   0.43933429E+00
 119.0000   0.18439863E-01  -0.10437021E+03   0.48638708E+00   0.10305484E-02   0.66624520E+00   0.44012057E+00
 120.0000   0.18478708E-01  -0.10389146E+03   0.47582062E+00   0.10265375E-02   0.66624352E+00   0.43983096E+00
 121.0000   0.18503837E-01  -0.10341785E+03   0.46543026E+00   0.10206002E-02   0.66624197E+00   0.43982385E+00
 122.0000   0.18518058E-01  -0.10295954E+03   0.45625602E+00   0.10140790E-02   0.66623966E+00   0.43986602E+00
 123.0000   0.18555784E-01  -0.10250343E+03   0.44606830E+00   0.10090815E-02   0.66623856E+00   0.44038284E+00
 124.0000   0.18583242E-01  -0.10206560E+03   0.43764240E+00   0.10034256E-02   0.66623611E+00   0.44018351E+00
 125.0000   0.18590902E-01  -0.10163299E+03   0.42884276E+00   0.99747967E-03   0.66623428E+00   0.43988285E+00
