 #written on 26Nov2024 at 13:48:34 
 #----------------- MONTECARLO -------------------#
 #        M                      P(M)             #
 #------------------------------------------------#
 #T=     0.5000
  -0.20000000E+01           0.00000000E+00
  -0.19900000E+01           0.00000000E+00
  -0.19800000E+01           0.00000000E+00
  -0.19700000E+01           0.00000000E+00
  -0.19600000E+01           0.00000000E+00
  -0.19500000E+01           0.00000000E+00
  -0.19400000E+01           0.00000000E+00
  -0.19300000E+01           0.00000000E+00
  -0.19200000E+01           0.00000000E+00
  -0.19100000E+01           0.00000000E+00
  -0.19000000E+01           0.00000000E+00
  -0.18900000E+01           0.00000000E+00
  -0.18800000E+01           0.00000000E+00
  -0.18700000E+01           0.00000000E+00
  -0.18600000E+01           0.00000000E+00
  -0.18500000E+01           0.00000000E+00
  -0.18400000E+01           0.00000000E+00
  -0.18300000E+01           0.00000000E+00
  -0.18200000E+01           0.00000000E+00
  -0.18100000E+01           0.00000000E+00
  -0.18000000E+01           0.00000000E+00
  -0.17900000E+01           0.00000000E+00
  -0.17800000E+01           0.00000000E+00
  -0.17700000E+01           0.00000000E+00
  -0.17600000E+01           0.00000000E+00
  -0.17500000E+01           0.00000000E+00
  -0.17400000E+01           0.00000000E+00
  -0.17300000E+01           0.00000000E+00
  -0.17200000E+01           0.00000000E+00
  -0.17100000E+01           0.00000000E+00
  -0.17000000E+01           0.00000000E+00
  -0.16900000E+01           0.00000000E+00
  -0.16800000E+01           0.00000000E+00
  -0.16700000E+01           0.00000000E+00
  -0.16600000E+01           0.00000000E+00
  -0.16500000E+01           0.00000000E+00
  -0.16400000E+01           0.00000000E+00
  -0.16300000E+01           0.00000000E+00
  -0.16200000E+01           0.00000000E+00
  -0.16100000E+01           0.00000000E+00
  -0.16000000E+01           0.00000000E+00
  -0.15900000E+01           0.00000000E+00
  -0.15800000E+01           0.00000000E+00
  -0.15700000E+01           0.00000000E+00
  -0.15600000E+01           0.00000000E+00
  -0.15500000E+01           0.00000000E+00
  -0.15400000E+01           0.00000000E+00
  -0.15300000E+01           0.00000000E+00
  -0.15200000E+01           0.00000000E+00
  -0.15100000E+01           0.00000000E+00
  -0.15000000E+01           0.00000000E+00
  -0.14900000E+01           0.00000000E+00
  -0.14800000E+01           0.00000000E+00
  -0.14700000E+01           0.00000000E+00
  -0.14600000E+01           0.00000000E+00
  -0.14500000E+01           0.00000000E+00
  -0.14400000E+01           0.00000000E+00
  -0.14300000E+01           0.00000000E+00
  -0.14200000E+01           0.00000000E+00
  -0.14100000E+01           0.00000000E+00
  -0.14000000E+01           0.00000000E+00
  -0.13900000E+01           0.00000000E+00
  -0.13800000E+01           0.00000000E+00
  -0.13700000E+01           0.00000000E+00
  -0.13600000E+01           0.00000000E+00
  -0.13500000E+01           0.00000000E+00
  -0.13400000E+01           0.00000000E+00
  -0.13300000E+01           0.00000000E+00
  -0.13200000E+01           0.00000000E+00
  -0.13100000E+01           0.00000000E+00
  -0.13000000E+01           0.00000000E+00
  -0.12900000E+01           0.00000000E+00
  -0.12800000E+01           0.00000000E+00
  -0.12700000E+01           0.00000000E+00
  -0.12600000E+01           0.00000000E+00
  -0.12500000E+01           0.00000000E+00
  -0.12400000E+01           0.00000000E+00
  -0.12300000E+01           0.00000000E+00
  -0.12200000E+01           0.00000000E+00
  -0.12100000E+01           0.00000000E+00
  -0.12000000E+01           0.00000000E+00
  -0.11900000E+01           0.00000000E+00
  -0.11800000E+01           0.00000000E+00
  -0.11700000E+01           0.00000000E+00
  -0.11600000E+01           0.00000000E+00
  -0.11500000E+01           0.00000000E+00
  -0.11400000E+01           0.00000000E+00
  -0.11300000E+01           0.00000000E+00
  -0.11200000E+01           0.00000000E+00
  -0.11100000E+01           0.00000000E+00
  -0.11000000E+01           0.00000000E+00
  -0.10900000E+01           0.00000000E+00
  -0.10800000E+01           0.00000000E+00
  -0.10700000E+01           0.00000000E+00
  -0.10600000E+01           0.00000000E+00
  -0.10500000E+01           0.00000000E+00
  -0.10400000E+01           0.00000000E+00
  -0.10300000E+01           0.00000000E+00
  -0.10200000E+01           0.00000000E+00
  -0.10100000E+01           0.00000000E+00
  -0.10000000E+01           0.00000000E+00
  -0.99000000E+00           0.00000000E+00
  -0.98000000E+00           0.00000000E+00
  -0.97000000E+00           0.00000000E+00
  -0.96000000E+00           0.00000000E+00
  -0.95000000E+00           0.00000000E+00
  -0.94000000E+00           0.00000000E+00
  -0.93000000E+00           0.00000000E+00
  -0.92000000E+00           0.00000000E+00
  -0.91000000E+00           0.00000000E+00
  -0.90000000E+00           0.00000000E+00
  -0.89000000E+00           0.00000000E+00
  -0.88000000E+00           0.00000000E+00
  -0.87000000E+00           0.00000000E+00
  -0.86000000E+00           0.00000000E+00
  -0.85000000E+00           0.00000000E+00
  -0.84000000E+00           0.00000000E+00
  -0.83000000E+00           0.00000000E+00
  -0.82000000E+00           0.00000000E+00
  -0.81000000E+00           0.00000000E+00
  -0.80000000E+00           0.00000000E+00
  -0.79000000E+00           0.00000000E+00
  -0.78000000E+00           0.00000000E+00
  -0.77000000E+00           0.00000000E+00
  -0.76000000E+00           0.00000000E+00
  -0.75000000E+00           0.00000000E+00
  -0.74000000E+00           0.00000000E+00
  -0.73000000E+00           0.00000000E+00
  -0.72000000E+00           0.00000000E+00
  -0.71000000E+00           0.00000000E+00
  -0.70000000E+00           0.00000000E+00
  -0.69000000E+00           0.00000000E+00
  -0.68000000E+00           0.00000000E+00
  -0.67000000E+00           0.00000000E+00
  -0.66000000E+00           0.00000000E+00
  -0.65000000E+00           0.00000000E+00
  -0.64000000E+00           0.00000000E+00
  -0.63000000E+00           0.00000000E+00
  -0.62000000E+00           0.00000000E+00
  -0.61000000E+00           0.00000000E+00
  -0.60000000E+00           0.00000000E+00
  -0.59000000E+00           0.00000000E+00
  -0.58000000E+00           0.00000000E+00
  -0.57000000E+00           0.00000000E+00
  -0.56000000E+00           0.00000000E+00
  -0.55000000E+00           0.00000000E+00
  -0.54000000E+00           0.00000000E+00
  -0.53000000E+00           0.00000000E+00
  -0.52000000E+00           0.00000000E+00
  -0.51000000E+00           0.00000000E+00
  -0.50000000E+00           0.00000000E+00
  -0.49000000E+00           0.00000000E+00
  -0.48000000E+00           0.00000000E+00
  -0.47000000E+00           0.00000000E+00
  -0.46000000E+00           0.00000000E+00
  -0.45000000E+00           0.00000000E+00
  -0.44000000E+00           0.00000000E+00
  -0.43000000E+00           0.00000000E+00
  -0.42000000E+00           0.00000000E+00
  -0.41000000E+00           0.00000000E+00
  -0.40000000E+00           0.00000000E+00
  -0.39000000E+00           0.00000000E+00
  -0.38000000E+00           0.00000000E+00
  -0.37000000E+00           0.00000000E+00
  -0.36000000E+00           0.00000000E+00
  -0.35000000E+00           0.00000000E+00
  -0.34000000E+00           0.00000000E+00
  -0.33000000E+00           0.00000000E+00
  -0.32000000E+00           0.00000000E+00
  -0.31000000E+00           0.00000000E+00
  -0.30000000E+00           0.00000000E+00
  -0.29000000E+00           0.00000000E+00
  -0.28000000E+00           0.00000000E+00
  -0.27000000E+00           0.00000000E+00
  -0.26000000E+00           0.00000000E+00
  -0.25000000E+00           0.00000000E+00
  -0.24000000E+00           0.00000000E+00
  -0.23000000E+00           0.00000000E+00
  -0.22000000E+00           0.00000000E+00
  -0.21000000E+00           0.00000000E+00
  -0.20000000E+00           0.00000000E+00
  -0.19000000E+00           0.00000000E+00
  -0.18000000E+00           0.00000000E+00
  -0.17000000E+00           0.00000000E+00
  -0.16000000E+00           0.00000000E+00
  -0.15000000E+00           0.00000000E+00
  -0.14000000E+00           0.00000000E+00
  -0.13000000E+00           0.00000000E+00
  -0.12000000E+00           0.00000000E+00
  -0.11000000E+00           0.00000000E+00
  -0.10000000E+00           0.00000000E+00
  -0.90000000E-01           0.00000000E+00
  -0.80000000E-01           0.00000000E+00
  -0.70000000E-01           0.00000000E+00
  -0.60000000E-01           0.00000000E+00
  -0.50000000E-01           0.00000000E+00
  -0.40000000E-01           0.00000000E+00
  -0.30000000E-01           0.00000000E+00
  -0.20000000E-01           0.00000000E+00
  -0.10000000E-01           0.00000000E+00
   0.00000000E+00           0.00000000E+00
   0.10000000E-01           0.00000000E+00
   0.20000000E-01           0.00000000E+00
   0.30000000E-01           0.00000000E+00
   0.40000000E-01           0.00000000E+00
   0.50000000E-01           0.00000000E+00
   0.60000000E-01           0.00000000E+00
   0.70000000E-01           0.00000000E+00
   0.80000000E-01           0.00000000E+00
   0.90000000E-01           0.00000000E+00
   0.10000000E+00           0.00000000E+00
   0.11000000E+00           0.00000000E+00
   0.12000000E+00           0.00000000E+00
   0.13000000E+00           0.00000000E+00
   0.14000000E+00           0.00000000E+00
   0.15000000E+00           0.00000000E+00
   0.16000000E+00           0.56689342E-07
   0.17000000E+00           0.00000000E+00
   0.18000000E+00           0.00000000E+00
   0.19000000E+00           0.00000000E+00
   0.20000000E+00           0.56689342E-07
   0.21000000E+00           0.15589569E-06
   0.22000000E+00           0.28344671E-07
   0.23000000E+00           0.42517007E-06
   0.24000000E+00           0.31179138E-06
   0.25000000E+00           0.15589569E-06
   0.26000000E+00           0.60941043E-06
   0.27000000E+00           0.32596372E-06
   0.28000000E+00           0.12188209E-05
   0.29000000E+00           0.16156463E-05
   0.30000000E+00           0.21116780E-05
   0.31000000E+00           0.22534014E-05
   0.32000000E+00           0.41241497E-05
   0.33000000E+00           0.58106576E-05
   0.34000000E+00           0.84892290E-05
   0.35000000E+00           0.10770975E-04
   0.36000000E+00           0.13010204E-04
   0.37000000E+00           0.17942177E-04
   0.38000000E+00           0.27125850E-04
   0.39000000E+00           0.39781746E-04
   0.40000000E+00           0.48511905E-04
   0.41000000E+00           0.65561224E-04
   0.42000000E+00           0.87939342E-04
   0.43000000E+00           0.12339853E-03
   0.44000000E+00           0.16157880E-03
   0.45000000E+00           0.20062358E-03
   0.46000000E+00           0.27179705E-03
   0.47000000E+00           0.34922052E-03
   0.48000000E+00           0.45562642E-03
   0.49000000E+00           0.58649376E-03
   0.50000000E+00           0.76374717E-03
   0.51000000E+00           0.96238662E-03
   0.52000000E+00           0.12579649E-02
   0.53000000E+00           0.16236536E-02
   0.54000000E+00           0.20441327E-02
   0.55000000E+00           0.25638180E-02
   0.56000000E+00           0.31517999E-02
   0.57000000E+00           0.39688776E-02
   0.58000000E+00           0.50282171E-02
   0.59000000E+00           0.62314201E-02
   0.60000000E+00           0.76298328E-02
   0.61000000E+00           0.94142290E-02
   0.62000000E+00           0.11479464E-01
   0.63000000E+00           0.14116610E-01
   0.64000000E+00           0.17126786E-01
   0.65000000E+00           0.20709368E-01
   0.66000000E+00           0.24983886E-01
   0.67000000E+00           0.29925779E-01
   0.68000000E+00           0.35726786E-01
   0.69000000E+00           0.42591227E-01
   0.70000000E+00           0.50299022E-01
   0.71000000E+00           0.59375439E-01
   0.72000000E+00           0.69769473E-01
   0.73000000E+00           0.81405074E-01
   0.74000000E+00           0.94942701E-01
   0.75000000E+00           0.11035283E+00
   0.76000000E+00           0.12720699E+00
   0.77000000E+00           0.14590906E+00
   0.78000000E+00           0.16719315E+00
   0.79000000E+00           0.19032436E+00
   0.80000000E+00           0.21636793E+00
   0.81000000E+00           0.24508502E+00
   0.82000000E+00           0.27532035E+00
   0.83000000E+00           0.30835082E+00
   0.84000000E+00           0.34473126E+00
   0.85000000E+00           0.38310126E+00
   0.86000000E+00           0.42378800E+00
   0.87000000E+00           0.46670068E+00
   0.88000000E+00           0.51333990E+00
   0.89000000E+00           0.56063505E+00
   0.90000000E+00           0.60984776E+00
   0.91000000E+00           0.66126392E+00
   0.92000000E+00           0.71494829E+00
   0.93000000E+00           0.76799274E+00
   0.94000000E+00           0.82303614E+00
   0.95000000E+00           0.87912275E+00
   0.96000000E+00           0.93420383E+00
   0.97000000E+00           0.98910646E+00
   0.98000000E+00           0.10438007E+01
   0.99000000E+00           0.10956469E+01
   0.10000000E+01           0.11479772E+01
   0.10100000E+01           0.11982841E+01
   0.10200000E+01           0.12450933E+01
   0.10300000E+01           0.12906560E+01
   0.10400000E+01           0.13327141E+01
   0.10500000E+01           0.13710662E+01
   0.10600000E+01           0.14067349E+01
   0.10700000E+01           0.14398086E+01
   0.10800000E+01           0.14690634E+01
   0.10900000E+01           0.14959795E+01
   0.11000000E+01           0.15178963E+01
   0.11100000E+01           0.15378243E+01
   0.11200000E+01           0.15535450E+01
   0.11300000E+01           0.15661832E+01
   0.11400000E+01           0.15768850E+01
   0.11500000E+01           0.15855382E+01
   0.11600000E+01           0.15915015E+01
   0.11700000E+01           0.15958103E+01
   0.11800000E+01           0.15981202E+01
   0.11900000E+01           0.15985917E+01
   0.12000000E+01           0.16012172E+01
   0.12100000E+01           0.16006629E+01
   0.12200000E+01           0.16008894E+01
   0.12300000E+01           0.15997198E+01
   0.12400000E+01           0.16002160E+01
   0.12500000E+01           0.16009782E+01
   0.12600000E+01           0.16011912E+01
   0.12700000E+01           0.16015154E+01
   0.12800000E+01           0.16029077E+01
   0.12900000E+01           0.16039847E+01
   0.13000000E+01           0.16053011E+01
   0.13100000E+01           0.16062599E+01
   0.13200000E+01           0.16053575E+01
   0.13300000E+01           0.16055575E+01
   0.13400000E+01           0.16037124E+01
   0.13500000E+01           0.16016500E+01
   0.13600000E+01           0.15966486E+01
   0.13700000E+01           0.15881142E+01
   0.13800000E+01           0.15774922E+01
   0.13900000E+01           0.15622789E+01
   0.14000000E+01           0.15471209E+01
   0.14100000E+01           0.15252596E+01
   0.14200000E+01           0.14995546E+01
   0.14300000E+01           0.14690742E+01
   0.14400000E+01           0.14345424E+01
   0.14500000E+01           0.13948860E+01
   0.14600000E+01           0.13516905E+01
   0.14700000E+01           0.13030634E+01
   0.14800000E+01           0.12499003E+01
   0.14900000E+01           0.11927153E+01
   0.15000000E+01           0.11335348E+01
   0.15100000E+01           0.10713208E+01
   0.15200000E+01           0.10051243E+01
   0.15300000E+01           0.93753452E+00
   0.15400000E+01           0.86841081E+00
   0.15500000E+01           0.80110866E+00
   0.15600000E+01           0.73162163E+00
   0.15700000E+01           0.66421960E+00
   0.15800000E+01           0.59884612E+00
   0.15900000E+01           0.53499534E+00
   0.16000000E+01           0.47464432E+00
   0.16100000E+01           0.41731997E+00
   0.16200000E+01           0.36376694E+00
   0.16300000E+01           0.31435204E+00
   0.16400000E+01           0.26870483E+00
   0.16500000E+01           0.22790224E+00
   0.16600000E+01           0.19090242E+00
   0.16700000E+01           0.15856973E+00
   0.16800000E+01           0.13019063E+00
   0.16900000E+01           0.10553686E+00
   0.17000000E+01           0.84433603E-01
   0.17100000E+01           0.66947406E-01
   0.17200000E+01           0.52186026E-01
   0.17300000E+01           0.40113350E-01
   0.17400000E+01           0.30496259E-01
   0.17500000E+01           0.22769147E-01
   0.17600000E+01           0.16748852E-01
   0.17700000E+01           0.12111607E-01
   0.17800000E+01           0.85126842E-02
   0.17900000E+01           0.60272959E-02
   0.18000000E+01           0.41051304E-02
   0.18100000E+01           0.27304563E-02
   0.18200000E+01           0.17737387E-02
   0.18300000E+01           0.11266723E-02
   0.18400000E+01           0.68348923E-03
   0.18500000E+01           0.42049320E-03
   0.18600000E+01           0.24124150E-03
   0.18700000E+01           0.13517574E-03
   0.18800000E+01           0.71726190E-04
   0.18900000E+01           0.36026077E-04
   0.19000000E+01           0.17134354E-04
   0.19100000E+01           0.87726757E-05
   0.19200000E+01           0.46626984E-05
   0.19300000E+01           0.13605442E-05
   0.19400000E+01           0.60941043E-06
   0.19500000E+01           0.42517007E-06
   0.19600000E+01           0.31179138E-06
   0.19700000E+01           0.00000000E+00
   0.19800000E+01           0.00000000E+00
   0.19900000E+01           0.00000000E+00
   0.20000000E+01           0.00000000E+00
 #T=     1.0000
  -0.20000000E+01           0.00000000E+00
  -0.19900000E+01           0.00000000E+00
  -0.19800000E+01           0.00000000E+00
  -0.19700000E+01           0.00000000E+00
  -0.19600000E+01           0.00000000E+00
  -0.19500000E+01           0.00000000E+00
  -0.19400000E+01           0.00000000E+00
  -0.19300000E+01           0.00000000E+00
  -0.19200000E+01           0.00000000E+00
  -0.19100000E+01           0.00000000E+00
  -0.19000000E+01           0.00000000E+00
  -0.18900000E+01           0.00000000E+00
  -0.18800000E+01           0.00000000E+00
  -0.18700000E+01           0.00000000E+00
  -0.18600000E+01           0.00000000E+00
  -0.18500000E+01           0.00000000E+00
  -0.18400000E+01           0.00000000E+00
  -0.18300000E+01           0.00000000E+00
  -0.18200000E+01           0.00000000E+00
  -0.18100000E+01           0.00000000E+00
  -0.18000000E+01           0.00000000E+00
  -0.17900000E+01           0.00000000E+00
  -0.17800000E+01           0.00000000E+00
  -0.17700000E+01           0.00000000E+00
  -0.17600000E+01           0.00000000E+00
  -0.17500000E+01           0.00000000E+00
  -0.17400000E+01           0.00000000E+00
  -0.17300000E+01           0.00000000E+00
  -0.17200000E+01           0.00000000E+00
  -0.17100000E+01           0.00000000E+00
  -0.17000000E+01           0.00000000E+00
  -0.16900000E+01           0.00000000E+00
  -0.16800000E+01           0.00000000E+00
  -0.16700000E+01           0.00000000E+00
  -0.16600000E+01           0.00000000E+00
  -0.16500000E+01           0.00000000E+00
  -0.16400000E+01           0.00000000E+00
  -0.16300000E+01           0.00000000E+00
  -0.16200000E+01           0.00000000E+00
  -0.16100000E+01           0.00000000E+00
  -0.16000000E+01           0.00000000E+00
  -0.15900000E+01           0.00000000E+00
  -0.15800000E+01           0.00000000E+00
  -0.15700000E+01           0.00000000E+00
  -0.15600000E+01           0.00000000E+00
  -0.15500000E+01           0.00000000E+00
  -0.15400000E+01           0.00000000E+00
  -0.15300000E+01           0.00000000E+00
  -0.15200000E+01           0.00000000E+00
  -0.15100000E+01           0.00000000E+00
  -0.15000000E+01           0.00000000E+00
  -0.14900000E+01           0.00000000E+00
  -0.14800000E+01           0.00000000E+00
  -0.14700000E+01           0.00000000E+00
  -0.14600000E+01           0.00000000E+00
  -0.14500000E+01           0.00000000E+00
  -0.14400000E+01           0.00000000E+00
  -0.14300000E+01           0.00000000E+00
  -0.14200000E+01           0.00000000E+00
  -0.14100000E+01           0.00000000E+00
  -0.14000000E+01           0.00000000E+00
  -0.13900000E+01           0.00000000E+00
  -0.13800000E+01           0.00000000E+00
  -0.13700000E+01           0.00000000E+00
  -0.13600000E+01           0.00000000E+00
  -0.13500000E+01           0.00000000E+00
  -0.13400000E+01           0.00000000E+00
  -0.13300000E+01           0.00000000E+00
  -0.13200000E+01           0.00000000E+00
  -0.13100000E+01           0.00000000E+00
  -0.13000000E+01           0.00000000E+00
  -0.12900000E+01           0.00000000E+00
  -0.12800000E+01           0.00000000E+00
  -0.12700000E+01           0.00000000E+00
  -0.12600000E+01           0.00000000E+00
  -0.12500000E+01           0.00000000E+00
  -0.12400000E+01           0.00000000E+00
  -0.12300000E+01           0.00000000E+00
  -0.12200000E+01           0.00000000E+00
  -0.12100000E+01           0.00000000E+00
  -0.12000000E+01           0.00000000E+00
  -0.11900000E+01           0.00000000E+00
  -0.11800000E+01           0.00000000E+00
  -0.11700000E+01           0.00000000E+00
  -0.11600000E+01           0.00000000E+00
  -0.11500000E+01           0.00000000E+00
  -0.11400000E+01           0.00000000E+00
  -0.11300000E+01           0.00000000E+00
  -0.11200000E+01           0.00000000E+00
  -0.11100000E+01           0.00000000E+00
  -0.11000000E+01           0.00000000E+00
  -0.10900000E+01           0.00000000E+00
  -0.10800000E+01           0.00000000E+00
  -0.10700000E+01           0.00000000E+00
  -0.10600000E+01           0.00000000E+00
  -0.10500000E+01           0.00000000E+00
  -0.10400000E+01           0.00000000E+00
  -0.10300000E+01           0.00000000E+00
  -0.10200000E+01           0.00000000E+00
  -0.10100000E+01           0.00000000E+00
  -0.10000000E+01           0.00000000E+00
  -0.99000000E+00           0.00000000E+00
  -0.98000000E+00           0.00000000E+00
  -0.97000000E+00           0.00000000E+00
  -0.96000000E+00           0.00000000E+00
  -0.95000000E+00           0.00000000E+00
  -0.94000000E+00           0.00000000E+00
  -0.93000000E+00           0.00000000E+00
  -0.92000000E+00           0.00000000E+00
  -0.91000000E+00           0.00000000E+00
  -0.90000000E+00           0.00000000E+00
  -0.89000000E+00           0.00000000E+00
  -0.88000000E+00           0.00000000E+00
  -0.87000000E+00           0.00000000E+00
  -0.86000000E+00           0.00000000E+00
  -0.85000000E+00           0.00000000E+00
  -0.84000000E+00           0.00000000E+00
  -0.83000000E+00           0.00000000E+00
  -0.82000000E+00           0.00000000E+00
  -0.81000000E+00           0.00000000E+00
  -0.80000000E+00           0.00000000E+00
  -0.79000000E+00           0.00000000E+00
  -0.78000000E+00           0.00000000E+00
  -0.77000000E+00           0.00000000E+00
  -0.76000000E+00           0.00000000E+00
  -0.75000000E+00           0.00000000E+00
  -0.74000000E+00           0.00000000E+00
  -0.73000000E+00           0.00000000E+00
  -0.72000000E+00           0.00000000E+00
  -0.71000000E+00           0.00000000E+00
  -0.70000000E+00           0.00000000E+00
  -0.69000000E+00           0.00000000E+00
  -0.68000000E+00           0.00000000E+00
  -0.67000000E+00           0.00000000E+00
  -0.66000000E+00           0.00000000E+00
  -0.65000000E+00           0.00000000E+00
  -0.64000000E+00           0.00000000E+00
  -0.63000000E+00           0.00000000E+00
  -0.62000000E+00           0.00000000E+00
  -0.61000000E+00           0.00000000E+00
  -0.60000000E+00           0.00000000E+00
  -0.59000000E+00           0.00000000E+00
  -0.58000000E+00           0.00000000E+00
  -0.57000000E+00           0.00000000E+00
  -0.56000000E+00           0.00000000E+00
  -0.55000000E+00           0.00000000E+00
  -0.54000000E+00           0.00000000E+00
  -0.53000000E+00           0.00000000E+00
  -0.52000000E+00           0.00000000E+00
  -0.51000000E+00           0.00000000E+00
  -0.50000000E+00           0.00000000E+00
  -0.49000000E+00           0.00000000E+00
  -0.48000000E+00           0.00000000E+00
  -0.47000000E+00           0.00000000E+00
  -0.46000000E+00           0.00000000E+00
  -0.45000000E+00           0.00000000E+00
  -0.44000000E+00           0.00000000E+00
  -0.43000000E+00           0.00000000E+00
  -0.42000000E+00           0.00000000E+00
  -0.41000000E+00           0.00000000E+00
  -0.40000000E+00           0.00000000E+00
  -0.39000000E+00           0.00000000E+00
  -0.38000000E+00           0.00000000E+00
  -0.37000000E+00           0.00000000E+00
  -0.36000000E+00           0.00000000E+00
  -0.35000000E+00           0.00000000E+00
  -0.34000000E+00           0.00000000E+00
  -0.33000000E+00           0.00000000E+00
  -0.32000000E+00           0.00000000E+00
  -0.31000000E+00           0.00000000E+00
  -0.30000000E+00           0.00000000E+00
  -0.29000000E+00           0.00000000E+00
  -0.28000000E+00           0.00000000E+00
  -0.27000000E+00           0.00000000E+00
  -0.26000000E+00           0.00000000E+00
  -0.25000000E+00           0.00000000E+00
  -0.24000000E+00           0.00000000E+00
  -0.23000000E+00           0.00000000E+00
  -0.22000000E+00           0.00000000E+00
  -0.21000000E+00           0.00000000E+00
  -0.20000000E+00           0.00000000E+00
  -0.19000000E+00           0.00000000E+00
  -0.18000000E+00           0.00000000E+00
  -0.17000000E+00           0.00000000E+00
  -0.16000000E+00           0.00000000E+00
  -0.15000000E+00           0.00000000E+00
  -0.14000000E+00           0.00000000E+00
  -0.13000000E+00           0.00000000E+00
  -0.12000000E+00           0.00000000E+00
  -0.11000000E+00           0.00000000E+00
  -0.10000000E+00           0.00000000E+00
  -0.90000000E-01           0.00000000E+00
  -0.80000000E-01           0.00000000E+00
  -0.70000000E-01           0.00000000E+00
  -0.60000000E-01           0.00000000E+00
  -0.50000000E-01           0.00000000E+00
  -0.40000000E-01           0.00000000E+00
  -0.30000000E-01           0.00000000E+00
  -0.20000000E-01           0.00000000E+00
  -0.10000000E-01           0.00000000E+00
   0.00000000E+00           0.32302296E-02
   0.10000000E-01           0.26106151E-01
   0.20000000E-01           0.52153288E-01
   0.30000000E-01           0.78032752E-01
   0.40000000E-01           0.10356495E+00
   0.50000000E-01           0.12949392E+00
   0.60000000E-01           0.15454942E+00
   0.70000000E-01           0.17880872E+00
   0.80000000E-01           0.20357350E+00
   0.90000000E-01           0.22746365E+00
   0.10000000E+00           0.25111063E+00
   0.11000000E+00           0.27379466E+00
   0.12000000E+00           0.29612173E+00
   0.13000000E+00           0.31738916E+00
   0.14000000E+00           0.33862119E+00
   0.15000000E+00           0.35914748E+00
   0.16000000E+00           0.37810774E+00
   0.17000000E+00           0.39718973E+00
   0.18000000E+00           0.41452670E+00
   0.19000000E+00           0.43205991E+00
   0.20000000E+00           0.44731735E+00
   0.21000000E+00           0.46204741E+00
   0.22000000E+00           0.47568656E+00
   0.23000000E+00           0.48923838E+00
   0.24000000E+00           0.50079933E+00
   0.25000000E+00           0.51198330E+00
   0.26000000E+00           0.52182167E+00
   0.27000000E+00           0.53057526E+00
   0.28000000E+00           0.53828999E+00
   0.29000000E+00           0.54554568E+00
   0.30000000E+00           0.55128199E+00
   0.31000000E+00           0.55650159E+00
   0.32000000E+00           0.56033814E+00
   0.33000000E+00           0.56287894E+00
   0.34000000E+00           0.56487279E+00
   0.35000000E+00           0.56572304E+00
   0.36000000E+00           0.56603777E+00
   0.37000000E+00           0.56569657E+00
   0.38000000E+00           0.56363868E+00
   0.39000000E+00           0.56107022E+00
   0.40000000E+00           0.55867406E+00
   0.41000000E+00           0.55524019E+00
   0.42000000E+00           0.55059510E+00
   0.43000000E+00           0.54553863E+00
   0.44000000E+00           0.54100721E+00
   0.45000000E+00           0.53478002E+00
   0.46000000E+00           0.52879009E+00
   0.47000000E+00           0.52110240E+00
   0.48000000E+00           0.51406922E+00
   0.49000000E+00           0.50668203E+00
   0.50000000E+00           0.49938849E+00
   0.51000000E+00           0.49122834E+00
   0.52000000E+00           0.48314508E+00
   0.53000000E+00           0.47491135E+00
   0.54000000E+00           0.46651830E+00
   0.55000000E+00           0.45783855E+00
   0.56000000E+00           0.44915078E+00
   0.57000000E+00           0.44100455E+00
   0.58000000E+00           0.43287168E+00
   0.59000000E+00           0.42424770E+00
   0.60000000E+00           0.41629612E+00
   0.61000000E+00           0.40879426E+00
   0.62000000E+00           0.40061611E+00
   0.63000000E+00           0.39301033E+00
   0.64000000E+00           0.38539640E+00
   0.65000000E+00           0.37842728E+00
   0.66000000E+00           0.37145060E+00
   0.67000000E+00           0.36501117E+00
   0.68000000E+00           0.35827517E+00
   0.69000000E+00           0.35278811E+00
   0.70000000E+00           0.34678659E+00
   0.71000000E+00           0.34151328E+00
   0.72000000E+00           0.33674332E+00
   0.73000000E+00           0.33177238E+00
   0.74000000E+00           0.32723988E+00
   0.75000000E+00           0.32341953E+00
   0.76000000E+00           0.31905699E+00
   0.77000000E+00           0.31612966E+00
   0.78000000E+00           0.31284739E+00
   0.79000000E+00           0.31041772E+00
   0.80000000E+00           0.30798289E+00
   0.81000000E+00           0.30570727E+00
   0.82000000E+00           0.30408454E+00
   0.83000000E+00           0.30310108E+00
   0.84000000E+00           0.30179366E+00
   0.85000000E+00           0.30140218E+00
   0.86000000E+00           0.30107611E+00
   0.87000000E+00           0.30112541E+00
   0.88000000E+00           0.30172076E+00
   0.89000000E+00           0.30218889E+00
   0.90000000E+00           0.30320557E+00
   0.91000000E+00           0.30437123E+00
   0.92000000E+00           0.30595707E+00
   0.93000000E+00           0.30797082E+00
   0.94000000E+00           0.31020636E+00
   0.95000000E+00           0.31285398E+00
   0.96000000E+00           0.31551908E+00
   0.97000000E+00           0.31882037E+00
   0.98000000E+00           0.32230568E+00
   0.99000000E+00           0.32545493E+00
   0.10000000E+01           0.32967963E+00
   0.10100000E+01           0.33345517E+00
   0.10200000E+01           0.33775836E+00
   0.10300000E+01           0.34191657E+00
   0.10400000E+01           0.34659911E+00
   0.10500000E+01           0.35194117E+00
   0.10600000E+01           0.35638102E+00
   0.10700000E+01           0.36155245E+00
   0.10800000E+01           0.36691223E+00
   0.10900000E+01           0.37179413E+00
   0.11000000E+01           0.37668566E+00
   0.11100000E+01           0.38271966E+00
   0.11200000E+01           0.38796361E+00
   0.11300000E+01           0.39249855E+00
   0.11400000E+01           0.39752445E+00
   0.11500000E+01           0.40264332E+00
   0.11600000E+01           0.40751824E+00
   0.11700000E+01           0.41204247E+00
   0.11800000E+01           0.41689897E+00
   0.11900000E+01           0.42099141E+00
   0.12000000E+01           0.42499990E+00
   0.12100000E+01           0.42880488E+00
   0.12200000E+01           0.43275998E+00
   0.12300000E+01           0.43533883E+00
   0.12400000E+01           0.43740635E+00
   0.12500000E+01           0.43992010E+00
   0.12600000E+01           0.44204860E+00
   0.12700000E+01           0.44384335E+00
   0.12800000E+01           0.44447191E+00
   0.12900000E+01           0.44522035E+00
   0.13000000E+01           0.44494928E+00
   0.13100000E+01           0.44440322E+00
   0.13200000E+01           0.44387443E+00
   0.13300000E+01           0.44249891E+00
   0.13400000E+01           0.44054575E+00
   0.13500000E+01           0.43892507E+00
   0.13600000E+01           0.43612805E+00
   0.13700000E+01           0.43309070E+00
   0.13800000E+01           0.42960190E+00
   0.13900000E+01           0.42540546E+00
   0.14000000E+01           0.42093933E+00
   0.14100000E+01           0.41712691E+00
   0.14200000E+01           0.41226023E+00
   0.14300000E+01           0.40688022E+00
   0.14400000E+01           0.40214457E+00
   0.14500000E+01           0.39658516E+00
   0.14600000E+01           0.39112041E+00
   0.14700000E+01           0.38547843E+00
   0.14800000E+01           0.38033014E+00
   0.14900000E+01           0.37485371E+00
   0.15000000E+01           0.36954266E+00
   0.15100000E+01           0.36421410E+00
   0.15200000E+01           0.35931832E+00
   0.15300000E+01           0.35454922E+00
   0.15400000E+01           0.35024249E+00
   0.15500000E+01           0.34596946E+00
   0.15600000E+01           0.34253088E+00
   0.15700000E+01           0.33947428E+00
   0.15800000E+01           0.33689328E+00
   0.15900000E+01           0.33528943E+00
   0.16000000E+01           0.33335964E+00
   0.16100000E+01           0.33319488E+00
   0.16200000E+01           0.33369854E+00
   0.16300000E+01           0.33444177E+00
   0.16400000E+01           0.33590478E+00
   0.16500000E+01           0.33896616E+00
   0.16600000E+01           0.34274052E+00
   0.16700000E+01           0.34793071E+00
   0.16800000E+01           0.35377126E+00
   0.16900000E+01           0.36147338E+00
   0.17000000E+01           0.36975425E+00
   0.17100000E+01           0.38004415E+00
   0.17200000E+01           0.39219715E+00
   0.17300000E+01           0.40532370E+00
   0.17400000E+01           0.42019729E+00
   0.17500000E+01           0.43819824E+00
   0.17600000E+01           0.45803530E+00
   0.17700000E+01           0.48015410E+00
   0.17800000E+01           0.50532700E+00
   0.17900000E+01           0.53367740E+00
   0.18000000E+01           0.56624596E+00
   0.18100000E+01           0.60254219E+00
   0.18200000E+01           0.64360925E+00
   0.18300000E+01           0.68976823E+00
   0.18400000E+01           0.74178760E+00
   0.18500000E+01           0.80124145E+00
   0.18600000E+01           0.86845377E+00
   0.18700000E+01           0.94419429E+00
   0.18800000E+01           0.10299669E+01
   0.18900000E+01           0.11281920E+01
   0.19000000E+01           0.12386215E+01
   0.19100000E+01           0.13632010E+01
   0.19200000E+01           0.15052201E+01
   0.19300000E+01           0.16639877E+01
   0.19400000E+01           0.18429711E+01
   0.19500000E+01           0.20428355E+01
   0.19600000E+01           0.22671943E+01
   0.19700000E+01           0.25136902E+01
   0.19800000E+01           0.27861601E+01
   0.19900000E+01           0.30812799E+01
   0.20000000E+01           0.16589764E+01
 #T=     1.5000
  -0.20000000E+01           0.00000000E+00
  -0.19900000E+01           0.00000000E+00
  -0.19800000E+01           0.00000000E+00
  -0.19700000E+01           0.00000000E+00
  -0.19600000E+01           0.00000000E+00
  -0.19500000E+01           0.00000000E+00
  -0.19400000E+01           0.00000000E+00
  -0.19300000E+01           0.00000000E+00
  -0.19200000E+01           0.00000000E+00
  -0.19100000E+01           0.00000000E+00
  -0.19000000E+01           0.00000000E+00
  -0.18900000E+01           0.00000000E+00
  -0.18800000E+01           0.00000000E+00
  -0.18700000E+01           0.00000000E+00
  -0.18600000E+01           0.00000000E+00
  -0.18500000E+01           0.00000000E+00
  -0.18400000E+01           0.00000000E+00
  -0.18300000E+01           0.00000000E+00
  -0.18200000E+01           0.00000000E+00
  -0.18100000E+01           0.00000000E+00
  -0.18000000E+01           0.00000000E+00
  -0.17900000E+01           0.00000000E+00
  -0.17800000E+01           0.00000000E+00
  -0.17700000E+01           0.00000000E+00
  -0.17600000E+01           0.00000000E+00
  -0.17500000E+01           0.00000000E+00
  -0.17400000E+01           0.00000000E+00
  -0.17300000E+01           0.00000000E+00
  -0.17200000E+01           0.00000000E+00
  -0.17100000E+01           0.00000000E+00
  -0.17000000E+01           0.00000000E+00
  -0.16900000E+01           0.00000000E+00
  -0.16800000E+01           0.00000000E+00
  -0.16700000E+01           0.00000000E+00
  -0.16600000E+01           0.00000000E+00
  -0.16500000E+01           0.00000000E+00
  -0.16400000E+01           0.00000000E+00
  -0.16300000E+01           0.00000000E+00
  -0.16200000E+01           0.00000000E+00
  -0.16100000E+01           0.00000000E+00
  -0.16000000E+01           0.00000000E+00
  -0.15900000E+01           0.00000000E+00
  -0.15800000E+01           0.00000000E+00
  -0.15700000E+01           0.00000000E+00
  -0.15600000E+01           0.00000000E+00
  -0.15500000E+01           0.00000000E+00
  -0.15400000E+01           0.00000000E+00
  -0.15300000E+01           0.00000000E+00
  -0.15200000E+01           0.00000000E+00
  -0.15100000E+01           0.00000000E+00
  -0.15000000E+01           0.00000000E+00
  -0.14900000E+01           0.00000000E+00
  -0.14800000E+01           0.00000000E+00
  -0.14700000E+01           0.00000000E+00
  -0.14600000E+01           0.00000000E+00
  -0.14500000E+01           0.00000000E+00
  -0.14400000E+01           0.00000000E+00
  -0.14300000E+01           0.00000000E+00
  -0.14200000E+01           0.00000000E+00
  -0.14100000E+01           0.00000000E+00
  -0.14000000E+01           0.00000000E+00
  -0.13900000E+01           0.00000000E+00
  -0.13800000E+01           0.00000000E+00
  -0.13700000E+01           0.00000000E+00
  -0.13600000E+01           0.00000000E+00
  -0.13500000E+01           0.00000000E+00
  -0.13400000E+01           0.00000000E+00
  -0.13300000E+01           0.00000000E+00
  -0.13200000E+01           0.00000000E+00
  -0.13100000E+01           0.00000000E+00
  -0.13000000E+01           0.00000000E+00
  -0.12900000E+01           0.00000000E+00
  -0.12800000E+01           0.00000000E+00
  -0.12700000E+01           0.00000000E+00
  -0.12600000E+01           0.00000000E+00
  -0.12500000E+01           0.00000000E+00
  -0.12400000E+01           0.00000000E+00
  -0.12300000E+01           0.00000000E+00
  -0.12200000E+01           0.00000000E+00
  -0.12100000E+01           0.00000000E+00
  -0.12000000E+01           0.00000000E+00
  -0.11900000E+01           0.00000000E+00
  -0.11800000E+01           0.00000000E+00
  -0.11700000E+01           0.00000000E+00
  -0.11600000E+01           0.00000000E+00
  -0.11500000E+01           0.00000000E+00
  -0.11400000E+01           0.00000000E+00
  -0.11300000E+01           0.00000000E+00
  -0.11200000E+01           0.00000000E+00
  -0.11100000E+01           0.00000000E+00
  -0.11000000E+01           0.00000000E+00
  -0.10900000E+01           0.00000000E+00
  -0.10800000E+01           0.00000000E+00
  -0.10700000E+01           0.00000000E+00
  -0.10600000E+01           0.00000000E+00
  -0.10500000E+01           0.00000000E+00
  -0.10400000E+01           0.00000000E+00
  -0.10300000E+01           0.00000000E+00
  -0.10200000E+01           0.00000000E+00
  -0.10100000E+01           0.00000000E+00
  -0.10000000E+01           0.00000000E+00
  -0.99000000E+00           0.00000000E+00
  -0.98000000E+00           0.00000000E+00
  -0.97000000E+00           0.00000000E+00
  -0.96000000E+00           0.00000000E+00
  -0.95000000E+00           0.00000000E+00
  -0.94000000E+00           0.00000000E+00
  -0.93000000E+00           0.00000000E+00
  -0.92000000E+00           0.00000000E+00
  -0.91000000E+00           0.00000000E+00
  -0.90000000E+00           0.00000000E+00
  -0.89000000E+00           0.00000000E+00
  -0.88000000E+00           0.00000000E+00
  -0.87000000E+00           0.00000000E+00
  -0.86000000E+00           0.00000000E+00
  -0.85000000E+00           0.00000000E+00
  -0.84000000E+00           0.00000000E+00
  -0.83000000E+00           0.00000000E+00
  -0.82000000E+00           0.00000000E+00
  -0.81000000E+00           0.00000000E+00
  -0.80000000E+00           0.00000000E+00
  -0.79000000E+00           0.00000000E+00
  -0.78000000E+00           0.00000000E+00
  -0.77000000E+00           0.00000000E+00
  -0.76000000E+00           0.00000000E+00
  -0.75000000E+00           0.00000000E+00
  -0.74000000E+00           0.00000000E+00
  -0.73000000E+00           0.00000000E+00
  -0.72000000E+00           0.00000000E+00
  -0.71000000E+00           0.00000000E+00
  -0.70000000E+00           0.00000000E+00
  -0.69000000E+00           0.00000000E+00
  -0.68000000E+00           0.00000000E+00
  -0.67000000E+00           0.00000000E+00
  -0.66000000E+00           0.00000000E+00
  -0.65000000E+00           0.00000000E+00
  -0.64000000E+00           0.00000000E+00
  -0.63000000E+00           0.00000000E+00
  -0.62000000E+00           0.00000000E+00
  -0.61000000E+00           0.00000000E+00
  -0.60000000E+00           0.00000000E+00
  -0.59000000E+00           0.00000000E+00
  -0.58000000E+00           0.00000000E+00
  -0.57000000E+00           0.00000000E+00
  -0.56000000E+00           0.00000000E+00
  -0.55000000E+00           0.00000000E+00
  -0.54000000E+00           0.00000000E+00
  -0.53000000E+00           0.00000000E+00
  -0.52000000E+00           0.00000000E+00
  -0.51000000E+00           0.00000000E+00
  -0.50000000E+00           0.00000000E+00
  -0.49000000E+00           0.00000000E+00
  -0.48000000E+00           0.00000000E+00
  -0.47000000E+00           0.00000000E+00
  -0.46000000E+00           0.00000000E+00
  -0.45000000E+00           0.00000000E+00
  -0.44000000E+00           0.00000000E+00
  -0.43000000E+00           0.00000000E+00
  -0.42000000E+00           0.00000000E+00
  -0.41000000E+00           0.00000000E+00
  -0.40000000E+00           0.00000000E+00
  -0.39000000E+00           0.00000000E+00
  -0.38000000E+00           0.00000000E+00
  -0.37000000E+00           0.00000000E+00
  -0.36000000E+00           0.00000000E+00
  -0.35000000E+00           0.00000000E+00
  -0.34000000E+00           0.00000000E+00
  -0.33000000E+00           0.00000000E+00
  -0.32000000E+00           0.00000000E+00
  -0.31000000E+00           0.00000000E+00
  -0.30000000E+00           0.00000000E+00
  -0.29000000E+00           0.00000000E+00
  -0.28000000E+00           0.00000000E+00
  -0.27000000E+00           0.00000000E+00
  -0.26000000E+00           0.00000000E+00
  -0.25000000E+00           0.00000000E+00
  -0.24000000E+00           0.00000000E+00
  -0.23000000E+00           0.00000000E+00
  -0.22000000E+00           0.00000000E+00
  -0.21000000E+00           0.00000000E+00
  -0.20000000E+00           0.00000000E+00
  -0.19000000E+00           0.00000000E+00
  -0.18000000E+00           0.00000000E+00
  -0.17000000E+00           0.00000000E+00
  -0.16000000E+00           0.00000000E+00
  -0.15000000E+00           0.00000000E+00
  -0.14000000E+00           0.00000000E+00
  -0.13000000E+00           0.00000000E+00
  -0.12000000E+00           0.00000000E+00
  -0.11000000E+00           0.00000000E+00
  -0.10000000E+00           0.00000000E+00
  -0.90000000E-01           0.00000000E+00
  -0.80000000E-01           0.00000000E+00
  -0.70000000E-01           0.00000000E+00
  -0.60000000E-01           0.00000000E+00
  -0.50000000E-01           0.00000000E+00
  -0.40000000E-01           0.00000000E+00
  -0.30000000E-01           0.00000000E+00
  -0.20000000E-01           0.00000000E+00
  -0.10000000E-01           0.00000000E+00
   0.00000000E+00           0.32596372E-05
   0.10000000E-01           0.26643991E-04
   0.20000000E-01           0.56887755E-04
   0.30000000E-01           0.85374150E-04
   0.40000000E-01           0.12120181E-03
   0.50000000E-01           0.15289116E-03
   0.60000000E-01           0.19597506E-03
   0.70000000E-01           0.23442460E-03
   0.80000000E-01           0.28625283E-03
   0.90000000E-01           0.34998583E-03
   0.10000000E+00           0.40826247E-03
   0.11000000E+00           0.48494898E-03
   0.12000000E+00           0.56840986E-03
   0.13000000E+00           0.66799887E-03
   0.14000000E+00           0.77772109E-03
   0.15000000E+00           0.90138889E-03
   0.16000000E+00           0.10312642E-02
   0.17000000E+00           0.12174320E-02
   0.18000000E+00           0.14059099E-02
   0.19000000E+00           0.15976332E-02
   0.20000000E+00           0.18517149E-02
   0.21000000E+00           0.21321003E-02
   0.22000000E+00           0.24377834E-02
   0.23000000E+00           0.27964711E-02
   0.24000000E+00           0.31758362E-02
   0.25000000E+00           0.36042800E-02
   0.26000000E+00           0.41069161E-02
   0.27000000E+00           0.46817744E-02
   0.28000000E+00           0.53060799E-02
   0.29000000E+00           0.59807115E-02
   0.30000000E+00           0.67203940E-02
   0.31000000E+00           0.75885629E-02
   0.32000000E+00           0.85277636E-02
   0.33000000E+00           0.95837585E-02
   0.34000000E+00           0.10779663E-01
   0.35000000E+00           0.12025836E-01
   0.36000000E+00           0.13442234E-01
   0.37000000E+00           0.15022874E-01
   0.38000000E+00           0.16758603E-01
   0.39000000E+00           0.18640334E-01
   0.40000000E+00           0.20683404E-01
   0.41000000E+00           0.22945564E-01
   0.42000000E+00           0.25499107E-01
   0.43000000E+00           0.28256420E-01
   0.44000000E+00           0.31059765E-01
   0.45000000E+00           0.34340490E-01
   0.46000000E+00           0.37666341E-01
   0.47000000E+00           0.41600879E-01
   0.48000000E+00           0.45629691E-01
   0.49000000E+00           0.50102679E-01
   0.50000000E+00           0.54910346E-01
   0.51000000E+00           0.59954039E-01
   0.52000000E+00           0.65535062E-01
   0.53000000E+00           0.71333206E-01
   0.54000000E+00           0.77650326E-01
   0.55000000E+00           0.84618197E-01
   0.56000000E+00           0.91756349E-01
   0.57000000E+00           0.99657667E-01
   0.58000000E+00           0.10792982E+00
   0.59000000E+00           0.11673785E+00
   0.60000000E+00           0.12629535E+00
   0.61000000E+00           0.13618873E+00
   0.62000000E+00           0.14671049E+00
   0.63000000E+00           0.15783964E+00
   0.64000000E+00           0.16954792E+00
   0.65000000E+00           0.18205969E+00
   0.66000000E+00           0.19505221E+00
   0.67000000E+00           0.20874724E+00
   0.68000000E+00           0.22294868E+00
   0.69000000E+00           0.23811026E+00
   0.70000000E+00           0.25393176E+00
   0.71000000E+00           0.27004029E+00
   0.72000000E+00           0.28724576E+00
   0.73000000E+00           0.30506310E+00
   0.74000000E+00           0.32360788E+00
   0.75000000E+00           0.34306412E+00
   0.76000000E+00           0.36260706E+00
   0.77000000E+00           0.38336304E+00
   0.78000000E+00           0.40437657E+00
   0.79000000E+00           0.42576444E+00
   0.80000000E+00           0.44866295E+00
   0.81000000E+00           0.47135286E+00
   0.82000000E+00           0.49497456E+00
   0.83000000E+00           0.51917761E+00
   0.84000000E+00           0.54306875E+00
   0.85000000E+00           0.56900320E+00
   0.86000000E+00           0.59445488E+00
   0.87000000E+00           0.62015282E+00
   0.88000000E+00           0.64663679E+00
   0.89000000E+00           0.67288880E+00
   0.90000000E+00           0.69944135E+00
   0.91000000E+00           0.72619204E+00
   0.92000000E+00           0.75336701E+00
   0.93000000E+00           0.78068491E+00
   0.94000000E+00           0.80809518E+00
   0.95000000E+00           0.83541344E+00
   0.96000000E+00           0.86213054E+00
   0.97000000E+00           0.89012599E+00
   0.98000000E+00           0.91643624E+00
   0.99000000E+00           0.94319252E+00
   0.10000000E+01           0.96939276E+00
   0.10100000E+01           0.99544185E+00
   0.10200000E+01           0.10206178E+01
   0.10300000E+01           0.10453076E+01
   0.10400000E+01           0.10703872E+01
   0.10500000E+01           0.10935840E+01
   0.10600000E+01           0.11168616E+01
   0.10700000E+01           0.11393988E+01
   0.10800000E+01           0.11612726E+01
   0.10900000E+01           0.11814706E+01
   0.11000000E+01           0.12020498E+01
   0.11100000E+01           0.12211421E+01
   0.11200000E+01           0.12398140E+01
   0.11300000E+01           0.12561163E+01
   0.11400000E+01           0.12729271E+01
   0.11500000E+01           0.12885602E+01
   0.11600000E+01           0.13025536E+01
   0.11700000E+01           0.13151351E+01
   0.11800000E+01           0.13263691E+01
   0.11900000E+01           0.13369252E+01
   0.12000000E+01           0.13465812E+01
   0.12100000E+01           0.13549484E+01
   0.12200000E+01           0.13610836E+01
   0.12300000E+01           0.13672542E+01
   0.12400000E+01           0.13710865E+01
   0.12500000E+01           0.13747509E+01
   0.12600000E+01           0.13760124E+01
   0.12700000E+01           0.13760619E+01
   0.12800000E+01           0.13750293E+01
   0.12900000E+01           0.13727096E+01
   0.13000000E+01           0.13687533E+01
   0.13100000E+01           0.13634078E+01
   0.13200000E+01           0.13567820E+01
   0.13300000E+01           0.13493949E+01
   0.13400000E+01           0.13399354E+01
   0.13500000E+01           0.13296285E+01
   0.13600000E+01           0.13176524E+01
   0.13700000E+01           0.13034637E+01
   0.13800000E+01           0.12890243E+01
   0.13900000E+01           0.12733780E+01
   0.14000000E+01           0.12556607E+01
   0.14100000E+01           0.12374765E+01
   0.14200000E+01           0.12167655E+01
   0.14300000E+01           0.11965149E+01
   0.14400000E+01           0.11739152E+01
   0.14500000E+01           0.11498586E+01
   0.14600000E+01           0.11250391E+01
   0.14700000E+01           0.11002907E+01
   0.14800000E+01           0.10728051E+01
   0.14900000E+01           0.10458287E+01
   0.15000000E+01           0.10167981E+01
   0.15100000E+01           0.98709306E+00
   0.15200000E+01           0.95691953E+00
   0.15300000E+01           0.92648618E+00
   0.15400000E+01           0.89423516E+00
   0.15500000E+01           0.86171580E+00
   0.15600000E+01           0.82887168E+00
   0.15700000E+01           0.79578105E+00
   0.15800000E+01           0.76235323E+00
   0.15900000E+01           0.72839109E+00
   0.16000000E+01           0.69437309E+00
   0.16100000E+01           0.66097688E+00
   0.16200000E+01           0.62697533E+00
   0.16300000E+01           0.59307922E+00
   0.16400000E+01           0.56041467E+00
   0.16500000E+01           0.52683596E+00
   0.16600000E+01           0.49463009E+00
   0.16700000E+01           0.46311368E+00
   0.16800000E+01           0.43194359E+00
   0.16900000E+01           0.40119763E+00
   0.17000000E+01           0.37165862E+00
   0.17100000E+01           0.34322877E+00
   0.17200000E+01           0.31535873E+00
   0.17300000E+01           0.28865713E+00
   0.17400000E+01           0.26332270E+00
   0.17500000E+01           0.23883065E+00
   0.17600000E+01           0.21555035E+00
   0.17700000E+01           0.19368861E+00
   0.17800000E+01           0.17335754E+00
   0.17900000E+01           0.15422015E+00
   0.18000000E+01           0.13614035E+00
   0.18100000E+01           0.11954773E+00
   0.18200000E+01           0.10437252E+00
   0.18300000E+01           0.90189711E-01
   0.18400000E+01           0.77663194E-01
   0.18500000E+01           0.66055102E-01
   0.18600000E+01           0.55701063E-01
   0.18700000E+01           0.46537103E-01
   0.18800000E+01           0.38400822E-01
   0.18900000E+01           0.31169572E-01
   0.19000000E+01           0.25030428E-01
   0.19100000E+01           0.19851531E-01
   0.19200000E+01           0.15360771E-01
   0.19300000E+01           0.11617545E-01
   0.19400000E+01           0.85694728E-02
   0.19500000E+01           0.61292517E-02
   0.19600000E+01           0.41795777E-02
   0.19700000E+01           0.26969529E-02
   0.19800000E+01           0.16327523E-02
   0.19900000E+01           0.84095805E-03
   0.20000000E+01           0.21293934E-03
 #T=     2.0000
  -0.20000000E+01           0.00000000E+00
  -0.19900000E+01           0.00000000E+00
  -0.19800000E+01           0.00000000E+00
  -0.19700000E+01           0.00000000E+00
  -0.19600000E+01           0.00000000E+00
  -0.19500000E+01           0.00000000E+00
  -0.19400000E+01           0.00000000E+00
  -0.19300000E+01           0.00000000E+00
  -0.19200000E+01           0.00000000E+00
  -0.19100000E+01           0.00000000E+00
  -0.19000000E+01           0.00000000E+00
  -0.18900000E+01           0.00000000E+00
  -0.18800000E+01           0.00000000E+00
  -0.18700000E+01           0.00000000E+00
  -0.18600000E+01           0.00000000E+00
  -0.18500000E+01           0.00000000E+00
  -0.18400000E+01           0.00000000E+00
  -0.18300000E+01           0.00000000E+00
  -0.18200000E+01           0.00000000E+00
  -0.18100000E+01           0.00000000E+00
  -0.18000000E+01           0.00000000E+00
  -0.17900000E+01           0.00000000E+00
  -0.17800000E+01           0.00000000E+00
  -0.17700000E+01           0.00000000E+00
  -0.17600000E+01           0.00000000E+00
  -0.17500000E+01           0.00000000E+00
  -0.17400000E+01           0.00000000E+00
  -0.17300000E+01           0.00000000E+00
  -0.17200000E+01           0.00000000E+00
  -0.17100000E+01           0.00000000E+00
  -0.17000000E+01           0.00000000E+00
  -0.16900000E+01           0.00000000E+00
  -0.16800000E+01           0.00000000E+00
  -0.16700000E+01           0.00000000E+00
  -0.16600000E+01           0.00000000E+00
  -0.16500000E+01           0.00000000E+00
  -0.16400000E+01           0.00000000E+00
  -0.16300000E+01           0.00000000E+00
  -0.16200000E+01           0.00000000E+00
  -0.16100000E+01           0.00000000E+00
  -0.16000000E+01           0.00000000E+00
  -0.15900000E+01           0.00000000E+00
  -0.15800000E+01           0.00000000E+00
  -0.15700000E+01           0.00000000E+00
  -0.15600000E+01           0.00000000E+00
  -0.15500000E+01           0.00000000E+00
  -0.15400000E+01           0.00000000E+00
  -0.15300000E+01           0.00000000E+00
  -0.15200000E+01           0.00000000E+00
  -0.15100000E+01           0.00000000E+00
  -0.15000000E+01           0.00000000E+00
  -0.14900000E+01           0.00000000E+00
  -0.14800000E+01           0.00000000E+00
  -0.14700000E+01           0.00000000E+00
  -0.14600000E+01           0.00000000E+00
  -0.14500000E+01           0.00000000E+00
  -0.14400000E+01           0.00000000E+00
  -0.14300000E+01           0.00000000E+00
  -0.14200000E+01           0.00000000E+00
  -0.14100000E+01           0.00000000E+00
  -0.14000000E+01           0.00000000E+00
  -0.13900000E+01           0.00000000E+00
  -0.13800000E+01           0.00000000E+00
  -0.13700000E+01           0.00000000E+00
  -0.13600000E+01           0.00000000E+00
  -0.13500000E+01           0.00000000E+00
  -0.13400000E+01           0.00000000E+00
  -0.13300000E+01           0.00000000E+00
  -0.13200000E+01           0.00000000E+00
  -0.13100000E+01           0.00000000E+00
  -0.13000000E+01           0.00000000E+00
  -0.12900000E+01           0.00000000E+00
  -0.12800000E+01           0.00000000E+00
  -0.12700000E+01           0.00000000E+00
  -0.12600000E+01           0.00000000E+00
  -0.12500000E+01           0.00000000E+00
  -0.12400000E+01           0.00000000E+00
  -0.12300000E+01           0.00000000E+00
  -0.12200000E+01           0.00000000E+00
  -0.12100000E+01           0.00000000E+00
  -0.12000000E+01           0.00000000E+00
  -0.11900000E+01           0.00000000E+00
  -0.11800000E+01           0.00000000E+00
  -0.11700000E+01           0.00000000E+00
  -0.11600000E+01           0.00000000E+00
  -0.11500000E+01           0.00000000E+00
  -0.11400000E+01           0.00000000E+00
  -0.11300000E+01           0.00000000E+00
  -0.11200000E+01           0.00000000E+00
  -0.11100000E+01           0.00000000E+00
  -0.11000000E+01           0.00000000E+00
  -0.10900000E+01           0.00000000E+00
  -0.10800000E+01           0.00000000E+00
  -0.10700000E+01           0.00000000E+00
  -0.10600000E+01           0.00000000E+00
  -0.10500000E+01           0.00000000E+00
  -0.10400000E+01           0.00000000E+00
  -0.10300000E+01           0.00000000E+00
  -0.10200000E+01           0.00000000E+00
  -0.10100000E+01           0.00000000E+00
  -0.10000000E+01           0.00000000E+00
  -0.99000000E+00           0.00000000E+00
  -0.98000000E+00           0.00000000E+00
  -0.97000000E+00           0.00000000E+00
  -0.96000000E+00           0.00000000E+00
  -0.95000000E+00           0.00000000E+00
  -0.94000000E+00           0.00000000E+00
  -0.93000000E+00           0.00000000E+00
  -0.92000000E+00           0.00000000E+00
  -0.91000000E+00           0.00000000E+00
  -0.90000000E+00           0.00000000E+00
  -0.89000000E+00           0.00000000E+00
  -0.88000000E+00           0.00000000E+00
  -0.87000000E+00           0.00000000E+00
  -0.86000000E+00           0.00000000E+00
  -0.85000000E+00           0.00000000E+00
  -0.84000000E+00           0.00000000E+00
  -0.83000000E+00           0.00000000E+00
  -0.82000000E+00           0.00000000E+00
  -0.81000000E+00           0.00000000E+00
  -0.80000000E+00           0.00000000E+00
  -0.79000000E+00           0.00000000E+00
  -0.78000000E+00           0.00000000E+00
  -0.77000000E+00           0.00000000E+00
  -0.76000000E+00           0.00000000E+00
  -0.75000000E+00           0.00000000E+00
  -0.74000000E+00           0.00000000E+00
  -0.73000000E+00           0.00000000E+00
  -0.72000000E+00           0.00000000E+00
  -0.71000000E+00           0.00000000E+00
  -0.70000000E+00           0.00000000E+00
  -0.69000000E+00           0.00000000E+00
  -0.68000000E+00           0.00000000E+00
  -0.67000000E+00           0.00000000E+00
  -0.66000000E+00           0.00000000E+00
  -0.65000000E+00           0.00000000E+00
  -0.64000000E+00           0.00000000E+00
  -0.63000000E+00           0.00000000E+00
  -0.62000000E+00           0.00000000E+00
  -0.61000000E+00           0.00000000E+00
  -0.60000000E+00           0.00000000E+00
  -0.59000000E+00           0.00000000E+00
  -0.58000000E+00           0.00000000E+00
  -0.57000000E+00           0.00000000E+00
  -0.56000000E+00           0.00000000E+00
  -0.55000000E+00           0.00000000E+00
  -0.54000000E+00           0.00000000E+00
  -0.53000000E+00           0.00000000E+00
  -0.52000000E+00           0.00000000E+00
  -0.51000000E+00           0.00000000E+00
  -0.50000000E+00           0.00000000E+00
  -0.49000000E+00           0.00000000E+00
  -0.48000000E+00           0.00000000E+00
  -0.47000000E+00           0.00000000E+00
  -0.46000000E+00           0.00000000E+00
  -0.45000000E+00           0.00000000E+00
  -0.44000000E+00           0.00000000E+00
  -0.43000000E+00           0.00000000E+00
  -0.42000000E+00           0.00000000E+00
  -0.41000000E+00           0.00000000E+00
  -0.40000000E+00           0.00000000E+00
  -0.39000000E+00           0.00000000E+00
  -0.38000000E+00           0.00000000E+00
  -0.37000000E+00           0.00000000E+00
  -0.36000000E+00           0.00000000E+00
  -0.35000000E+00           0.00000000E+00
  -0.34000000E+00           0.00000000E+00
  -0.33000000E+00           0.00000000E+00
  -0.32000000E+00           0.00000000E+00
  -0.31000000E+00           0.00000000E+00
  -0.30000000E+00           0.00000000E+00
  -0.29000000E+00           0.00000000E+00
  -0.28000000E+00           0.00000000E+00
  -0.27000000E+00           0.00000000E+00
  -0.26000000E+00           0.00000000E+00
  -0.25000000E+00           0.00000000E+00
  -0.24000000E+00           0.00000000E+00
  -0.23000000E+00           0.00000000E+00
  -0.22000000E+00           0.00000000E+00
  -0.21000000E+00           0.00000000E+00
  -0.20000000E+00           0.00000000E+00
  -0.19000000E+00           0.00000000E+00
  -0.18000000E+00           0.00000000E+00
  -0.17000000E+00           0.00000000E+00
  -0.16000000E+00           0.00000000E+00
  -0.15000000E+00           0.00000000E+00
  -0.14000000E+00           0.00000000E+00
  -0.13000000E+00           0.00000000E+00
  -0.12000000E+00           0.00000000E+00
  -0.11000000E+00           0.00000000E+00
  -0.10000000E+00           0.00000000E+00
  -0.90000000E-01           0.00000000E+00
  -0.80000000E-01           0.00000000E+00
  -0.70000000E-01           0.00000000E+00
  -0.60000000E-01           0.00000000E+00
  -0.50000000E-01           0.00000000E+00
  -0.40000000E-01           0.00000000E+00
  -0.30000000E-01           0.00000000E+00
  -0.20000000E-01           0.00000000E+00
  -0.10000000E-01           0.00000000E+00
   0.00000000E+00           0.23551162E-02
   0.10000000E-01           0.18774603E-01
   0.20000000E-01           0.37506080E-01
   0.30000000E-01           0.56027594E-01
   0.40000000E-01           0.74668056E-01
   0.50000000E-01           0.93108588E-01
   0.60000000E-01           0.11130832E+00
   0.70000000E-01           0.12947358E+00
   0.80000000E-01           0.14735438E+00
   0.90000000E-01           0.16528686E+00
   0.10000000E+00           0.18274806E+00
   0.11000000E+00           0.19959435E+00
   0.12000000E+00           0.21673029E+00
   0.13000000E+00           0.23289484E+00
   0.14000000E+00           0.24905950E+00
   0.15000000E+00           0.26518776E+00
   0.16000000E+00           0.28046677E+00
   0.17000000E+00           0.29539563E+00
   0.18000000E+00           0.31005462E+00
   0.19000000E+00           0.32432323E+00
   0.20000000E+00           0.33747857E+00
   0.21000000E+00           0.35103264E+00
   0.22000000E+00           0.36370774E+00
   0.23000000E+00           0.37603967E+00
   0.24000000E+00           0.38761139E+00
   0.25000000E+00           0.39869527E+00
   0.26000000E+00           0.40930225E+00
   0.27000000E+00           0.41907837E+00
   0.28000000E+00           0.42874415E+00
   0.29000000E+00           0.43778486E+00
   0.30000000E+00           0.44638005E+00
   0.31000000E+00           0.45394884E+00
   0.32000000E+00           0.46117971E+00
   0.33000000E+00           0.46818353E+00
   0.34000000E+00           0.47438061E+00
   0.35000000E+00           0.48006209E+00
   0.36000000E+00           0.48499905E+00
   0.37000000E+00           0.48948825E+00
   0.38000000E+00           0.49348200E+00
   0.39000000E+00           0.49750595E+00
   0.40000000E+00           0.50042942E+00
   0.41000000E+00           0.50263515E+00
   0.42000000E+00           0.50512221E+00
   0.43000000E+00           0.50726241E+00
   0.44000000E+00           0.50786730E+00
   0.45000000E+00           0.50884249E+00
   0.46000000E+00           0.50912460E+00
   0.47000000E+00           0.50909242E+00
   0.48000000E+00           0.50847555E+00
   0.49000000E+00           0.50805731E+00
   0.50000000E+00           0.50684824E+00
   0.51000000E+00           0.50492093E+00
   0.52000000E+00           0.50381908E+00
   0.53000000E+00           0.50132330E+00
   0.54000000E+00           0.49922603E+00
   0.55000000E+00           0.49656777E+00
   0.56000000E+00           0.49363906E+00
   0.57000000E+00           0.49071898E+00
   0.58000000E+00           0.48695422E+00
   0.59000000E+00           0.48398012E+00
   0.60000000E+00           0.48043223E+00
   0.61000000E+00           0.47715986E+00
   0.62000000E+00           0.47263791E+00
   0.63000000E+00           0.46892867E+00
   0.64000000E+00           0.46510933E+00
   0.65000000E+00           0.46130181E+00
   0.66000000E+00           0.45700910E+00
   0.67000000E+00           0.45324589E+00
   0.68000000E+00           0.44917732E+00
   0.69000000E+00           0.44478172E+00
   0.70000000E+00           0.44069544E+00
   0.71000000E+00           0.43687839E+00
   0.72000000E+00           0.43256003E+00
   0.73000000E+00           0.42908649E+00
   0.74000000E+00           0.42493454E+00
   0.75000000E+00           0.42152412E+00
   0.76000000E+00           0.41773107E+00
   0.77000000E+00           0.41408302E+00
   0.78000000E+00           0.41066662E+00
   0.79000000E+00           0.40741971E+00
   0.80000000E+00           0.40458982E+00
   0.81000000E+00           0.40144474E+00
   0.82000000E+00           0.39865553E+00
   0.83000000E+00           0.39595180E+00
   0.84000000E+00           0.39347137E+00
   0.85000000E+00           0.39113766E+00
   0.86000000E+00           0.38921869E+00
   0.87000000E+00           0.38722334E+00
   0.88000000E+00           0.38523502E+00
   0.89000000E+00           0.38322908E+00
   0.90000000E+00           0.38198238E+00
   0.91000000E+00           0.38061726E+00
   0.92000000E+00           0.37954140E+00
   0.93000000E+00           0.37870660E+00
   0.94000000E+00           0.37769728E+00
   0.95000000E+00           0.37686549E+00
   0.96000000E+00           0.37635483E+00
   0.97000000E+00           0.37636810E+00
   0.98000000E+00           0.37604415E+00
   0.99000000E+00           0.37594483E+00
   0.10000000E+01           0.37614759E+00
   0.10100000E+01           0.37590794E+00
   0.10200000E+01           0.37640714E+00
   0.10300000E+01           0.37714372E+00
   0.10400000E+01           0.37756512E+00
   0.10500000E+01           0.37815261E+00
   0.10600000E+01           0.37872817E+00
   0.10700000E+01           0.37947372E+00
   0.10800000E+01           0.38030561E+00
   0.10900000E+01           0.38135641E+00
   0.11000000E+01           0.38224151E+00
   0.11100000E+01           0.38319192E+00
   0.11200000E+01           0.38400961E+00
   0.11300000E+01           0.38551036E+00
   0.11400000E+01           0.38632235E+00
   0.11500000E+01           0.38737268E+00
   0.11600000E+01           0.38828474E+00
   0.11700000E+01           0.38948440E+00
   0.11800000E+01           0.39052910E+00
   0.11900000E+01           0.39157273E+00
   0.12000000E+01           0.39241300E+00
   0.12100000E+01           0.39332056E+00
   0.12200000E+01           0.39432103E+00
   0.12300000E+01           0.39505364E+00
   0.12400000E+01           0.39576473E+00
   0.12500000E+01           0.39660003E+00
   0.12600000E+01           0.39704110E+00
   0.12700000E+01           0.39765205E+00
   0.12800000E+01           0.39789412E+00
   0.12900000E+01           0.39827748E+00
   0.13000000E+01           0.39869262E+00
   0.13100000E+01           0.39912847E+00
   0.13200000E+01           0.39915262E+00
   0.13300000E+01           0.39890200E+00
   0.13400000E+01           0.39888510E+00
   0.13500000E+01           0.39896718E+00
   0.13600000E+01           0.39893879E+00
   0.13700000E+01           0.39861033E+00
   0.13800000E+01           0.39851049E+00
   0.13900000E+01           0.39824667E+00
   0.14000000E+01           0.39790259E+00
   0.14100000E+01           0.39762156E+00
   0.14200000E+01           0.39730582E+00
   0.14300000E+01           0.39735198E+00
   0.14400000E+01           0.39673744E+00
   0.14500000E+01           0.39657788E+00
   0.14600000E+01           0.39626716E+00
   0.14700000E+01           0.39622660E+00
   0.14800000E+01           0.39648753E+00
   0.14900000E+01           0.39676719E+00
   0.15000000E+01           0.39687939E+00
   0.15100000E+01           0.39767089E+00
   0.15200000E+01           0.39856736E+00
   0.15300000E+01           0.39914929E+00
   0.15400000E+01           0.40051854E+00
   0.15500000E+01           0.40227402E+00
   0.15600000E+01           0.40423247E+00
   0.15700000E+01           0.40669495E+00
   0.15800000E+01           0.40936230E+00
   0.15900000E+01           0.41284585E+00
   0.16000000E+01           0.41644012E+00
   0.16100000E+01           0.42095848E+00
   0.16200000E+01           0.42624641E+00
   0.16300000E+01           0.43204607E+00
   0.16400000E+01           0.43866906E+00
   0.16500000E+01           0.44604508E+00
   0.16600000E+01           0.45446332E+00
   0.16700000E+01           0.46340188E+00
   0.16800000E+01           0.47404514E+00
   0.16900000E+01           0.48591278E+00
   0.17000000E+01           0.49872389E+00
   0.17100000E+01           0.51294084E+00
   0.17200000E+01           0.52896329E+00
   0.17300000E+01           0.54629800E+00
   0.17400000E+01           0.56562338E+00
   0.17500000E+01           0.58650320E+00
   0.17600000E+01           0.60962792E+00
   0.17700000E+01           0.63493428E+00
   0.17800000E+01           0.66251604E+00
   0.17900000E+01           0.69245179E+00
   0.18000000E+01           0.72556634E+00
   0.18100000E+01           0.76122371E+00
   0.18200000E+01           0.80000441E+00
   0.18300000E+01           0.84222946E+00
   0.18400000E+01           0.88788475E+00
   0.18500000E+01           0.93799841E+00
   0.18600000E+01           0.99185641E+00
   0.18700000E+01           0.10499544E+01
   0.18800000E+01           0.11136492E+01
   0.18900000E+01           0.11815404E+01
   0.19000000E+01           0.12558943E+01
   0.19100000E+01           0.13350795E+01
   0.19200000E+01           0.14208644E+01
   0.19300000E+01           0.15137343E+01
   0.19400000E+01           0.16134707E+01
   0.19500000E+01           0.17204362E+01
   0.19600000E+01           0.18354859E+01
   0.19700000E+01           0.19593985E+01
   0.19800000E+01           0.20925454E+01
   0.19900000E+01           0.22349454E+01
   0.20000000E+01           0.11739542E+01
 #T=     2.5000
  -0.20000000E+01           0.00000000E+00
  -0.19900000E+01           0.00000000E+00
  -0.19800000E+01           0.00000000E+00
  -0.19700000E+01           0.00000000E+00
  -0.19600000E+01           0.00000000E+00
  -0.19500000E+01           0.00000000E+00
  -0.19400000E+01           0.00000000E+00
  -0.19300000E+01           0.00000000E+00
  -0.19200000E+01           0.00000000E+00
  -0.19100000E+01           0.00000000E+00
  -0.19000000E+01           0.00000000E+00
  -0.18900000E+01           0.00000000E+00
  -0.18800000E+01           0.00000000E+00
  -0.18700000E+01           0.00000000E+00
  -0.18600000E+01           0.00000000E+00
  -0.18500000E+01           0.00000000E+00
  -0.18400000E+01           0.00000000E+00
  -0.18300000E+01           0.00000000E+00
  -0.18200000E+01           0.00000000E+00
  -0.18100000E+01           0.00000000E+00
  -0.18000000E+01           0.00000000E+00
  -0.17900000E+01           0.00000000E+00
  -0.17800000E+01           0.00000000E+00
  -0.17700000E+01           0.00000000E+00
  -0.17600000E+01           0.00000000E+00
  -0.17500000E+01           0.00000000E+00
  -0.17400000E+01           0.00000000E+00
  -0.17300000E+01           0.00000000E+00
  -0.17200000E+01           0.00000000E+00
  -0.17100000E+01           0.00000000E+00
  -0.17000000E+01           0.00000000E+00
  -0.16900000E+01           0.00000000E+00
  -0.16800000E+01           0.00000000E+00
  -0.16700000E+01           0.00000000E+00
  -0.16600000E+01           0.00000000E+00
  -0.16500000E+01           0.00000000E+00
  -0.16400000E+01           0.00000000E+00
  -0.16300000E+01           0.00000000E+00
  -0.16200000E+01           0.00000000E+00
  -0.16100000E+01           0.00000000E+00
  -0.16000000E+01           0.00000000E+00
  -0.15900000E+01           0.00000000E+00
  -0.15800000E+01           0.00000000E+00
  -0.15700000E+01           0.00000000E+00
  -0.15600000E+01           0.00000000E+00
  -0.15500000E+01           0.00000000E+00
  -0.15400000E+01           0.00000000E+00
  -0.15300000E+01           0.00000000E+00
  -0.15200000E+01           0.00000000E+00
  -0.15100000E+01           0.00000000E+00
  -0.15000000E+01           0.00000000E+00
  -0.14900000E+01           0.00000000E+00
  -0.14800000E+01           0.00000000E+00
  -0.14700000E+01           0.00000000E+00
  -0.14600000E+01           0.00000000E+00
  -0.14500000E+01           0.00000000E+00
  -0.14400000E+01           0.00000000E+00
  -0.14300000E+01           0.00000000E+00
  -0.14200000E+01           0.00000000E+00
  -0.14100000E+01           0.00000000E+00
  -0.14000000E+01           0.00000000E+00
  -0.13900000E+01           0.00000000E+00
  -0.13800000E+01           0.00000000E+00
  -0.13700000E+01           0.00000000E+00
  -0.13600000E+01           0.00000000E+00
  -0.13500000E+01           0.00000000E+00
  -0.13400000E+01           0.00000000E+00
  -0.13300000E+01           0.00000000E+00
  -0.13200000E+01           0.00000000E+00
  -0.13100000E+01           0.00000000E+00
  -0.13000000E+01           0.00000000E+00
  -0.12900000E+01           0.00000000E+00
  -0.12800000E+01           0.00000000E+00
  -0.12700000E+01           0.00000000E+00
  -0.12600000E+01           0.00000000E+00
  -0.12500000E+01           0.00000000E+00
  -0.12400000E+01           0.00000000E+00
  -0.12300000E+01           0.00000000E+00
  -0.12200000E+01           0.00000000E+00
  -0.12100000E+01           0.00000000E+00
  -0.12000000E+01           0.00000000E+00
  -0.11900000E+01           0.00000000E+00
  -0.11800000E+01           0.00000000E+00
  -0.11700000E+01           0.00000000E+00
  -0.11600000E+01           0.00000000E+00
  -0.11500000E+01           0.00000000E+00
  -0.11400000E+01           0.00000000E+00
  -0.11300000E+01           0.00000000E+00
  -0.11200000E+01           0.00000000E+00
  -0.11100000E+01           0.00000000E+00
  -0.11000000E+01           0.00000000E+00
  -0.10900000E+01           0.00000000E+00
  -0.10800000E+01           0.00000000E+00
  -0.10700000E+01           0.00000000E+00
  -0.10600000E+01           0.00000000E+00
  -0.10500000E+01           0.00000000E+00
  -0.10400000E+01           0.00000000E+00
  -0.10300000E+01           0.00000000E+00
  -0.10200000E+01           0.00000000E+00
  -0.10100000E+01           0.00000000E+00
  -0.10000000E+01           0.00000000E+00
  -0.99000000E+00           0.00000000E+00
  -0.98000000E+00           0.00000000E+00
  -0.97000000E+00           0.00000000E+00
  -0.96000000E+00           0.00000000E+00
  -0.95000000E+00           0.00000000E+00
  -0.94000000E+00           0.00000000E+00
  -0.93000000E+00           0.00000000E+00
  -0.92000000E+00           0.00000000E+00
  -0.91000000E+00           0.00000000E+00
  -0.90000000E+00           0.00000000E+00
  -0.89000000E+00           0.00000000E+00
  -0.88000000E+00           0.00000000E+00
  -0.87000000E+00           0.00000000E+00
  -0.86000000E+00           0.00000000E+00
  -0.85000000E+00           0.00000000E+00
  -0.84000000E+00           0.00000000E+00
  -0.83000000E+00           0.00000000E+00
  -0.82000000E+00           0.00000000E+00
  -0.81000000E+00           0.00000000E+00
  -0.80000000E+00           0.00000000E+00
  -0.79000000E+00           0.00000000E+00
  -0.78000000E+00           0.00000000E+00
  -0.77000000E+00           0.00000000E+00
  -0.76000000E+00           0.00000000E+00
  -0.75000000E+00           0.00000000E+00
  -0.74000000E+00           0.00000000E+00
  -0.73000000E+00           0.00000000E+00
  -0.72000000E+00           0.00000000E+00
  -0.71000000E+00           0.00000000E+00
  -0.70000000E+00           0.00000000E+00
  -0.69000000E+00           0.00000000E+00
  -0.68000000E+00           0.00000000E+00
  -0.67000000E+00           0.00000000E+00
  -0.66000000E+00           0.00000000E+00
  -0.65000000E+00           0.00000000E+00
  -0.64000000E+00           0.00000000E+00
  -0.63000000E+00           0.00000000E+00
  -0.62000000E+00           0.00000000E+00
  -0.61000000E+00           0.00000000E+00
  -0.60000000E+00           0.00000000E+00
  -0.59000000E+00           0.00000000E+00
  -0.58000000E+00           0.00000000E+00
  -0.57000000E+00           0.00000000E+00
  -0.56000000E+00           0.00000000E+00
  -0.55000000E+00           0.00000000E+00
  -0.54000000E+00           0.00000000E+00
  -0.53000000E+00           0.00000000E+00
  -0.52000000E+00           0.00000000E+00
  -0.51000000E+00           0.00000000E+00
  -0.50000000E+00           0.00000000E+00
  -0.49000000E+00           0.00000000E+00
  -0.48000000E+00           0.00000000E+00
  -0.47000000E+00           0.00000000E+00
  -0.46000000E+00           0.00000000E+00
  -0.45000000E+00           0.00000000E+00
  -0.44000000E+00           0.00000000E+00
  -0.43000000E+00           0.00000000E+00
  -0.42000000E+00           0.00000000E+00
  -0.41000000E+00           0.00000000E+00
  -0.40000000E+00           0.00000000E+00
  -0.39000000E+00           0.00000000E+00
  -0.38000000E+00           0.00000000E+00
  -0.37000000E+00           0.00000000E+00
  -0.36000000E+00           0.00000000E+00
  -0.35000000E+00           0.00000000E+00
  -0.34000000E+00           0.00000000E+00
  -0.33000000E+00           0.00000000E+00
  -0.32000000E+00           0.00000000E+00
  -0.31000000E+00           0.00000000E+00
  -0.30000000E+00           0.00000000E+00
  -0.29000000E+00           0.00000000E+00
  -0.28000000E+00           0.00000000E+00
  -0.27000000E+00           0.00000000E+00
  -0.26000000E+00           0.00000000E+00
  -0.25000000E+00           0.00000000E+00
  -0.24000000E+00           0.00000000E+00
  -0.23000000E+00           0.00000000E+00
  -0.22000000E+00           0.00000000E+00
  -0.21000000E+00           0.00000000E+00
  -0.20000000E+00           0.00000000E+00
  -0.19000000E+00           0.00000000E+00
  -0.18000000E+00           0.00000000E+00
  -0.17000000E+00           0.00000000E+00
  -0.16000000E+00           0.00000000E+00
  -0.15000000E+00           0.00000000E+00
  -0.14000000E+00           0.00000000E+00
  -0.13000000E+00           0.00000000E+00
  -0.12000000E+00           0.00000000E+00
  -0.11000000E+00           0.00000000E+00
  -0.10000000E+00           0.00000000E+00
  -0.90000000E-01           0.00000000E+00
  -0.80000000E-01           0.00000000E+00
  -0.70000000E-01           0.00000000E+00
  -0.60000000E-01           0.00000000E+00
  -0.50000000E-01           0.00000000E+00
  -0.40000000E-01           0.00000000E+00
  -0.30000000E-01           0.00000000E+00
  -0.20000000E-01           0.00000000E+00
  -0.10000000E-01           0.00000000E+00
   0.00000000E+00           0.64852608E-04
   0.10000000E-01           0.51267007E-03
   0.20000000E-01           0.10408730E-02
   0.30000000E-01           0.15512613E-02
   0.40000000E-01           0.21095238E-02
   0.50000000E-01           0.26552721E-02
   0.60000000E-01           0.32441610E-02
   0.70000000E-01           0.38285714E-02
   0.80000000E-01           0.44497307E-02
   0.90000000E-01           0.51397676E-02
   0.10000000E+00           0.58196145E-02
   0.11000000E+00           0.65839427E-02
   0.12000000E+00           0.73608560E-02
   0.13000000E+00           0.81968112E-02
   0.14000000E+00           0.91175595E-02
   0.15000000E+00           0.10058872E-01
   0.16000000E+00           0.11084538E-01
   0.17000000E+00           0.12189101E-01
   0.18000000E+00           0.13401488E-01
   0.19000000E+00           0.14655031E-01
   0.20000000E+00           0.15996627E-01
   0.21000000E+00           0.17472917E-01
   0.22000000E+00           0.19001105E-01
   0.23000000E+00           0.20654167E-01
   0.24000000E+00           0.22442035E-01
   0.25000000E+00           0.24311366E-01
   0.26000000E+00           0.26310488E-01
   0.27000000E+00           0.28506590E-01
   0.28000000E+00           0.30790745E-01
   0.29000000E+00           0.33239087E-01
   0.30000000E+00           0.35854776E-01
   0.31000000E+00           0.38601346E-01
   0.32000000E+00           0.41613747E-01
   0.33000000E+00           0.44709354E-01
   0.34000000E+00           0.48042942E-01
   0.35000000E+00           0.51548498E-01
   0.36000000E+00           0.55182313E-01
   0.37000000E+00           0.59250028E-01
   0.38000000E+00           0.63338690E-01
   0.39000000E+00           0.67659354E-01
   0.40000000E+00           0.72385672E-01
   0.41000000E+00           0.77149943E-01
   0.42000000E+00           0.82162996E-01
   0.43000000E+00           0.87656633E-01
   0.44000000E+00           0.93303203E-01
   0.45000000E+00           0.99282880E-01
   0.46000000E+00           0.10538272E+00
   0.47000000E+00           0.11182263E+00
   0.48000000E+00           0.11871139E+00
   0.49000000E+00           0.12578240E+00
[...]
   0.13800000E+01           0.68409230E+00
   0.13900000E+01           0.68517965E+00
   0.14000000E+01           0.68600770E+00
   0.14100000E+01           0.68689684E+00
   0.14200000E+01           0.68769077E+00
   0.14300000E+01           0.68852266E+00
   0.14400000E+01           0.68921138E+00
   0.14500000E+01           0.69001993E+00
   0.14600000E+01           0.69045884E+00
   0.14700000E+01           0.69083978E+00
   0.14800000E+01           0.69144868E+00
   0.14900000E+01           0.69172592E+00
   0.15000000E+01           0.69230113E+00
   0.15100000E+01           0.69228183E+00
   0.15200000E+01           0.69257319E+00
   0.15300000E+01           0.69275011E+00
   0.15400000E+01           0.69290395E+00
   0.15500000E+01           0.69292965E+00
   0.15600000E+01           0.69297303E+00
   0.15700000E+01           0.69300376E+00
   0.15800000E+01           0.69261441E+00
   0.15900000E+01           0.69262518E+00
   0.16000000E+01           0.69236438E+00
   0.16100000E+01           0.69212397E+00
   0.16200000E+01           0.69156271E+00
   0.16300000E+01           0.69133631E+00
   0.16400000E+01           0.69074402E+00
   0.16500000E+01           0.69031674E+00
   0.16600000E+01           0.68962776E+00
   0.16700000E+01           0.68928091E+00
   0.16800000E+01           0.68842055E+00
   0.16900000E+01           0.68776297E+00
   0.17000000E+01           0.68694016E+00
   0.17100000E+01           0.68617028E+00
   0.17200000E+01           0.68517893E+00
   0.17300000E+01           0.68423411E+00
   0.17400000E+01           0.68316763E+00
   0.17500000E+01           0.68232849E+00
   0.17600000E+01           0.68102029E+00
   0.17700000E+01           0.67996385E+00
   0.17800000E+01           0.67887999E+00
   0.17900000E+01           0.67758284E+00
   0.18000000E+01           0.67631387E+00
   0.18100000E+01           0.67517769E+00
   0.18200000E+01           0.67358509E+00
   0.18300000E+01           0.67211759E+00
   0.18400000E+01           0.67082830E+00
   0.18500000E+01           0.66939932E+00
   0.18600000E+01           0.66768895E+00
   0.18700000E+01           0.66622490E+00
   0.18800000E+01           0.66447765E+00
   0.18900000E+01           0.66291702E+00
   0.19000000E+01           0.66127918E+00
   0.19100000E+01           0.65937361E+00
   0.19200000E+01           0.65756670E+00
   0.19300000E+01           0.65567588E+00
   0.19400000E+01           0.65389583E+00
   0.19500000E+01           0.65211783E+00
   0.19600000E+01           0.65002479E+00
   0.19700000E+01           0.64815061E+00
   0.19800000E+01           0.64608262E+00
   0.19900000E+01           0.64391886E+00
   0.20000000E+01           0.32121290E+00
 #T=    20.0000
  -0.20000000E+01           0.00000000E+00
  -0.19900000E+01           0.00000000E+00
  -0.19800000E+01           0.00000000E+00
  -0.19700000E+01           0.00000000E+00
  -0.19600000E+01           0.00000000E+00
  -0.19500000E+01           0.00000000E+00
  -0.19400000E+01           0.00000000E+00
  -0.19300000E+01           0.00000000E+00
  -0.19200000E+01           0.00000000E+00
  -0.19100000E+01           0.00000000E+00
  -0.19000000E+01           0.00000000E+00
  -0.18900000E+01           0.00000000E+00
  -0.18800000E+01           0.00000000E+00
  -0.18700000E+01           0.00000000E+00
  -0.18600000E+01           0.00000000E+00
  -0.18500000E+01           0.00000000E+00
  -0.18400000E+01           0.00000000E+00
  -0.18300000E+01           0.00000000E+00
  -0.18200000E+01           0.00000000E+00
  -0.18100000E+01           0.00000000E+00
  -0.18000000E+01           0.00000000E+00
  -0.17900000E+01           0.00000000E+00
  -0.17800000E+01           0.00000000E+00
  -0.17700000E+01           0.00000000E+00
  -0.17600000E+01           0.00000000E+00
  -0.17500000E+01           0.00000000E+00
  -0.17400000E+01           0.00000000E+00
  -0.17300000E+01           0.00000000E+00
  -0.17200000E+01           0.00000000E+00
  -0.17100000E+01           0.00000000E+00
  -0.17000000E+01           0.00000000E+00
  -0.16900000E+01           0.00000000E+00
  -0.16800000E+01           0.00000000E+00
  -0.16700000E+01           0.00000000E+00
  -0.16600000E+01           0.00000000E+00
  -0.16500000E+01           0.00000000E+00
  -0.16400000E+01           0.00000000E+00
  -0.16300000E+01           0.00000000E+00
  -0.16200000E+01           0.00000000E+00
  -0.16100000E+01           0.00000000E+00
  -0.16000000E+01           0.00000000E+00
  -0.15900000E+01           0.00000000E+00
  -0.15800000E+01           0.00000000E+00
  -0.15700000E+01           0.00000000E+00
  -0.15600000E+01           0.00000000E+00
  -0.15500000E+01           0.00000000E+00
  -0.15400000E+01           0.00000000E+00
  -0.15300000E+01           0.00000000E+00
  -0.15200000E+01           0.00000000E+00
  -0.15100000E+01           0.00000000E+00
  -0.15000000E+01           0.00000000E+00
  -0.14900000E+01           0.00000000E+00
  -0.14800000E+01           0.00000000E+00
  -0.14700000E+01           0.00000000E+00
  -0.14600000E+01           0.00000000E+00
  -0.14500000E+01           0.00000000E+00
  -0.14400000E+01           0.00000000E+00
  -0.14300000E+01           0.00000000E+00
  -0.14200000E+01           0.00000000E+00
  -0.14100000E+01           0.00000000E+00
  -0.14000000E+01           0.00000000E+00
  -0.13900000E+01           0.00000000E+00
  -0.13800000E+01           0.00000000E+00
  -0.13700000E+01           0.00000000E+00
  -0.13600000E+01           0.00000000E+00
  -0.13500000E+01           0.00000000E+00
  -0.13400000E+01           0.00000000E+00
  -0.13300000E+01           0.00000000E+00
  -0.13200000E+01           0.00000000E+00
  -0.13100000E+01           0.00000000E+00
  -0.13000000E+01           0.00000000E+00
  -0.12900000E+01           0.00000000E+00
  -0.12800000E+01           0.00000000E+00
  -0.12700000E+01           0.00000000E+00
  -0.12600000E+01           0.00000000E+00
  -0.12500000E+01           0.00000000E+00
  -0.12400000E+01           0.00000000E+00
  -0.12300000E+01           0.00000000E+00
  -0.12200000E+01           0.00000000E+00
  -0.12100000E+01           0.00000000E+00
  -0.12000000E+01           0.00000000E+00
  -0.11900000E+01           0.00000000E+00
  -0.11800000E+01           0.00000000E+00
  -0.11700000E+01           0.00000000E+00
  -0.11600000E+01           0.00000000E+00
  -0.11500000E+01           0.00000000E+00
  -0.11400000E+01           0.00000000E+00
  -0.11300000E+01           0.00000000E+00
  -0.11200000E+01           0.00000000E+00
  -0.11100000E+01           0.00000000E+00
  -0.11000000E+01           0.00000000E+00
  -0.10900000E+01           0.00000000E+00
  -0.10800000E+01           0.00000000E+00
  -0.10700000E+01           0.00000000E+00
  -0.10600000E+01           0.00000000E+00
  -0.10500000E+01           0.00000000E+00
  -0.10400000E+01           0.00000000E+00
  -0.10300000E+01           0.00000000E+00
  -0.10200000E+01           0.00000000E+00
  -0.10100000E+01           0.00000000E+00
  -0.10000000E+01           0.00000000E+00
  -0.99000000E+00           0.00000000E+00
  -0.98000000E+00           0.00000000E+00
  -0.97000000E+00           0.00000000E+00
  -0.96000000E+00           0.00000000E+00
  -0.95000000E+00           0.00000000E+00
  -0.94000000E+00           0.00000000E+00
  -0.93000000E+00           0.00000000E+00
  -0.92000000E+00           0.00000000E+00
  -0.91000000E+00           0.00000000E+00
  -0.90000000E+00           0.00000000E+00
  -0.89000000E+00           0.00000000E+00
  -0.88000000E+00           0.00000000E+00
  -0.87000000E+00           0.00000000E+00
  -0.86000000E+00           0.00000000E+00
  -0.85000000E+00           0.00000000E+00
  -0.84000000E+00           0.00000000E+00
  -0.83000000E+00           0.00000000E+00
  -0.82000000E+00           0.00000000E+00
  -0.81000000E+00           0.00000000E+00
  -0.80000000E+00           0.00000000E+00
  -0.79000000E+00           0.00000000E+00
  -0.78000000E+00           0.00000000E+00
  -0.77000000E+00           0.00000000E+00
  -0.76000000E+00           0.00000000E+00
  -0.75000000E+00           0.00000000E+00
  -0.74000000E+00           0.00000000E+00
  -0.73000000E+00           0.00000000E+00
  -0.72000000E+00           0.00000000E+00
  -0.71000000E+00           0.00000000E+00
  -0.70000000E+00           0.00000000E+00
  -0.69000000E+00           0.00000000E+00
  -0.68000000E+00           0.00000000E+00
  -0.67000000E+00           0.00000000E+00
  -0.66000000E+00           0.00000000E+00
  -0.65000000E+00           0.00000000E+00
  -0.64000000E+00           0.00000000E+00
  -0.63000000E+00           0.00000000E+00
  -0.62000000E+00           0.00000000E+00
  -0.61000000E+00           0.00000000E+00
  -0.60000000E+00           0.00000000E+00
  -0.59000000E+00           0.00000000E+00
  -0.58000000E+00           0.00000000E+00
  -0.57000000E+00           0.00000000E+00
  -0.56000000E+00           0.00000000E+00
  -0.55000000E+00           0.00000000E+00
  -0.54000000E+00           0.00000000E+00
  -0.53000000E+00           0.00000000E+00
  -0.52000000E+00           0.00000000E+00
  -0.51000000E+00           0.00000000E+00
  -0.50000000E+00           0.00000000E+00
  -0.49000000E+00           0.00000000E+00
  -0.48000000E+00           0.00000000E+00
  -0.47000000E+00           0.00000000E+00
  -0.46000000E+00           0.00000000E+00
  -0.45000000E+00           0.00000000E+00
  -0.44000000E+00           0.00000000E+00
  -0.43000000E+00           0.00000000E+00
  -0.42000000E+00           0.00000000E+00
  -0.41000000E+00           0.00000000E+00
  -0.40000000E+00           0.00000000E+00
  -0.39000000E+00           0.00000000E+00
  -0.38000000E+00           0.00000000E+00
  -0.37000000E+00           0.00000000E+00
  -0.36000000E+00           0.00000000E+00
  -0.35000000E+00           0.00000000E+00
  -0.34000000E+00           0.00000000E+00
  -0.33000000E+00           0.00000000E+00
  -0.32000000E+00           0.00000000E+00
  -0.31000000E+00           0.00000000E+00
  -0.30000000E+00           0.00000000E+00
  -0.29000000E+00           0.00000000E+00
  -0.28000000E+00           0.00000000E+00
  -0.27000000E+00           0.00000000E+00
  -0.26000000E+00           0.00000000E+00
  -0.25000000E+00           0.00000000E+00
  -0.24000000E+00           0.00000000E+00
  -0.23000000E+00           0.00000000E+00
  -0.22000000E+00           0.00000000E+00
  -0.21000000E+00           0.00000000E+00
  -0.20000000E+00           0.00000000E+00
  -0.19000000E+00           0.00000000E+00
  -0.18000000E+00           0.00000000E+00
  -0.17000000E+00           0.00000000E+00
  -0.16000000E+00           0.00000000E+00
  -0.15000000E+00           0.00000000E+00
  -0.14000000E+00           0.00000000E+00
  -0.13000000E+00           0.00000000E+00
  -0.12000000E+00           0.00000000E+00
  -0.11000000E+00           0.00000000E+00
  -0.10000000E+00           0.00000000E+00
  -0.90000000E-01           0.00000000E+00
  -0.80000000E-01           0.00000000E+00
  -0.70000000E-01           0.00000000E+00
  -0.60000000E-01           0.00000000E+00
  -0.50000000E-01           0.00000000E+00
  -0.40000000E-01           0.00000000E+00
  -0.30000000E-01           0.00000000E+00
  -0.20000000E-01           0.00000000E+00
  -0.10000000E-01           0.00000000E+00
   0.00000000E+00           0.91498016E-03
   0.10000000E-01           0.73025794E-02
   0.20000000E-01           0.14634084E-01
   0.30000000E-01           0.21953713E-01
   0.40000000E-01           0.29265505E-01
   0.50000000E-01           0.36601346E-01
   0.60000000E-01           0.43842163E-01
   0.70000000E-01           0.51191468E-01
   0.80000000E-01           0.58473271E-01
   0.90000000E-01           0.65761550E-01
   0.10000000E+00           0.73095961E-01
   0.11000000E+00           0.80204804E-01
   0.12000000E+00           0.87610998E-01
   0.13000000E+00           0.94814328E-01
   0.14000000E+00           0.10202650E+00
   0.15000000E+00           0.10920230E+00
   0.16000000E+00           0.11645153E+00
   0.17000000E+00           0.12366271E+00
   0.18000000E+00           0.13081409E+00
   0.19000000E+00           0.13794359E+00
   0.20000000E+00           0.14512652E+00
   0.21000000E+00           0.15239576E+00
   0.22000000E+00           0.15944250E+00
   0.23000000E+00           0.16659476E+00
   0.24000000E+00           0.17355907E+00
   0.25000000E+00           0.18064401E+00
   0.26000000E+00           0.18768547E+00
   0.27000000E+00           0.19472803E+00
   0.28000000E+00           0.20170118E+00
   0.29000000E+00           0.20853669E+00
   0.30000000E+00           0.21548713E+00
   0.31000000E+00           0.22250405E+00
   0.32000000E+00           0.22941705E+00
   0.33000000E+00           0.23615669E+00
   0.34000000E+00           0.24296291E+00
   0.35000000E+00           0.24987347E+00
   0.36000000E+00           0.25656081E+00
   0.37000000E+00           0.26340584E+00
   0.38000000E+00           0.26996070E+00
   0.39000000E+00           0.27671444E+00
   0.40000000E+00           0.28331637E+00
   0.41000000E+00           0.29000750E+00
   0.42000000E+00           0.29643118E+00
   0.43000000E+00           0.30298031E+00
   0.44000000E+00           0.30947252E+00
   0.45000000E+00           0.31613423E+00
   0.46000000E+00           0.32246018E+00
   0.47000000E+00           0.32875254E+00
   0.48000000E+00           0.33505998E+00
   0.49000000E+00           0.34130917E+00
   0.50000000E+00           0.34770642E+00
   0.51000000E+00           0.35400550E+00
   0.52000000E+00           0.36010893E+00
   0.53000000E+00           0.36622025E+00
   0.54000000E+00           0.37233739E+00
   0.55000000E+00           0.37846482E+00
   0.56000000E+00           0.38436696E+00
   0.57000000E+00           0.39044929E+00
   0.58000000E+00           0.39629870E+00
   0.59000000E+00           0.40225758E+00
   0.60000000E+00           0.40801480E+00
   0.61000000E+00           0.41382024E+00
   0.62000000E+00           0.41939949E+00
   0.63000000E+00           0.42513654E+00
   0.64000000E+00           0.43075560E+00
   0.65000000E+00           0.43639416E+00
   0.66000000E+00           0.44195697E+00
   0.67000000E+00           0.44732927E+00
   0.68000000E+00           0.45284736E+00
   0.69000000E+00           0.45806835E+00
   0.70000000E+00           0.46347398E+00
   0.71000000E+00           0.46878518E+00
   0.72000000E+00           0.47379270E+00
   0.73000000E+00           0.47923336E+00
   0.74000000E+00           0.48421429E+00
   0.75000000E+00           0.48926370E+00
   0.76000000E+00           0.49428050E+00
   0.77000000E+00           0.49904802E+00
   0.78000000E+00           0.50407878E+00
   0.79000000E+00           0.50902472E+00
   0.80000000E+00           0.51369004E+00
   0.81000000E+00           0.51836193E+00
   0.82000000E+00           0.52305454E+00
   0.83000000E+00           0.52759973E+00
   0.84000000E+00           0.53217022E+00
   0.85000000E+00           0.53666518E+00
   0.86000000E+00           0.54114199E+00
   0.87000000E+00           0.54548637E+00
   0.88000000E+00           0.54988491E+00
   0.89000000E+00           0.55399174E+00
   0.90000000E+00           0.55827122E+00
   0.91000000E+00           0.56230962E+00
   0.92000000E+00           0.56636206E+00
   0.93000000E+00           0.57037099E+00
   0.94000000E+00           0.57435045E+00
   0.95000000E+00           0.57835167E+00
   0.96000000E+00           0.58221770E+00
   0.97000000E+00           0.58592375E+00
   0.98000000E+00           0.58943462E+00
   0.99000000E+00           0.59307117E+00
   0.10000000E+01           0.59676976E+00
   0.10100000E+01           0.60016237E+00
   0.10200000E+01           0.60353584E+00
   0.10300000E+01           0.60680368E+00
   0.10400000E+01           0.61015275E+00
   0.10500000E+01           0.61356780E+00
   0.10600000E+01           0.61666319E+00
   0.10700000E+01           0.61969885E+00
   0.10800000E+01           0.62268675E+00
   0.10900000E+01           0.62596397E+00
   0.11000000E+01           0.62885079E+00
   0.11100000E+01           0.63151227E+00
   0.11200000E+01           0.63418859E+00
   0.11300000E+01           0.63695160E+00
   0.11400000E+01           0.63981125E+00
   0.11500000E+01           0.64227942E+00
   0.11600000E+01           0.64498461E+00
   0.11700000E+01           0.64742276E+00
   0.11800000E+01           0.64978757E+00
   0.11900000E+01           0.65213774E+00
   0.12000000E+01           0.65435777E+00
   0.12100000E+01           0.65663545E+00
   0.12200000E+01           0.65891416E+00
   0.12300000E+01           0.66062211E+00
   0.12400000E+01           0.66294226E+00
   0.12500000E+01           0.66478279E+00
   0.12600000E+01           0.66672395E+00
   0.12700000E+01           0.66846431E+00
   0.12800000E+01           0.67026988E+00
   0.12900000E+01           0.67193988E+00
   0.13000000E+01           0.67350167E+00
   0.13100000E+01           0.67516229E+00
   0.13200000E+01           0.67682866E+00
   0.13300000E+01           0.67825315E+00
   0.13400000E+01           0.67970543E+00
   0.13500000E+01           0.68064512E+00
   0.13600000E+01           0.68198550E+00
   0.13700000E+01           0.68341412E+00
   0.13800000E+01           0.68440128E+00
   0.13900000E+01           0.68553788E+00
   0.14000000E+01           0.68628611E+00
   0.14100000E+01           0.68746845E+00
   0.14200000E+01           0.68831365E+00
   0.14300000E+01           0.68914932E+00
   0.14400000E+01           0.68996954E+00
   0.14500000E+01           0.69067877E+00
   0.14600000E+01           0.69117980E+00
   0.14700000E+01           0.69172171E+00
   0.14800000E+01           0.69252741E+00
   0.14900000E+01           0.69275228E+00
   0.15000000E+01           0.69327581E+00
   0.15100000E+01           0.69361463E+00
   0.15200000E+01           0.69383921E+00
   0.15300000E+01           0.69434658E+00
   0.15400000E+01           0.69418853E+00
   0.15500000E+01           0.69441851E+00
   0.15600000E+01           0.69444177E+00
   0.15700000E+01           0.69433834E+00
   0.15800000E+01           0.69428362E+00
   0.15900000E+01           0.69433944E+00
   0.16000000E+01           0.69404093E+00
   0.16100000E+01           0.69371501E+00
   0.16200000E+01           0.69342279E+00
   0.16300000E+01           0.69300870E+00
   0.16400000E+01           0.69258050E+00
   0.16500000E+01           0.69227177E+00
   0.16600000E+01           0.69185692E+00
   0.16700000E+01           0.69125251E+00
   0.16800000E+01           0.69081539E+00
   0.16900000E+01           0.69009786E+00
   0.17000000E+01           0.68927691E+00
   0.17100000E+01           0.68849613E+00
   0.17200000E+01           0.68775592E+00
   0.17300000E+01           0.68702711E+00
   0.17400000E+01           0.68583593E+00
   0.17500000E+01           0.68491709E+00
   0.17600000E+01           0.68403821E+00
   0.17700000E+01           0.68288510E+00
   0.17800000E+01           0.68183065E+00
   0.17900000E+01           0.68060197E+00
   0.18000000E+01           0.67930697E+00
   0.18100000E+01           0.67831950E+00
   0.18200000E+01           0.67683440E+00
   0.18300000E+01           0.67559629E+00
   0.18400000E+01           0.67427714E+00
   0.18500000E+01           0.67291786E+00
   0.18600000E+01           0.67131436E+00
   0.18700000E+01           0.66963367E+00
   0.18800000E+01           0.66824690E+00
   0.18900000E+01           0.66644680E+00
   0.19000000E+01           0.66504029E+00
   0.19100000E+01           0.66326841E+00
   0.19200000E+01           0.66147212E+00
   0.19300000E+01           0.65986380E+00
   0.19400000E+01           0.65812132E+00
   0.19500000E+01           0.65607000E+00
   0.19600000E+01           0.65425948E+00
   0.19700000E+01           0.65212837E+00
   0.19800000E+01           0.65024984E+00
   0.19900000E+01           0.64827863E+00
   0.20000000E+01           0.32348143E+00
