 #written on 31Jul2024 at 13:30:43 
 #----------------- MONTECARLO -------------------#
 #        M                      P(M)             #
 #------------------------------------------------#
 #T=   271.0000
  -0.20000000E+01           0.00000000E+00
  -0.19900000E+01           0.00000000E+00
  -0.19800000E+01           0.00000000E+00
  -0.19700000E+01           0.00000000E+00
  -0.19600000E+01           0.00000000E+00
  -0.19500000E+01           0.00000000E+00
  -0.19400000E+01           0.00000000E+00
  -0.19300000E+01           0.00000000E+00
  -0.19200000E+01           0.00000000E+00
  -0.19100000E+01           0.00000000E+00
  -0.19000000E+01           0.00000000E+00
  -0.18900000E+01           0.00000000E+00
  -0.18800000E+01           0.00000000E+00
  -0.18700000E+01           0.00000000E+00
  -0.18600000E+01           0.00000000E+00
  -0.18500000E+01           0.00000000E+00
  -0.18400000E+01           0.00000000E+00
  -0.18300000E+01           0.00000000E+00
  -0.18200000E+01           0.00000000E+00
  -0.18100000E+01           0.00000000E+00
  -0.18000000E+01           0.00000000E+00
  -0.17900000E+01           0.00000000E+00
  -0.17800000E+01           0.00000000E+00
  -0.17700000E+01           0.00000000E+00
  -0.17600000E+01           0.00000000E+00
  -0.17500000E+01           0.00000000E+00
  -0.17400000E+01           0.00000000E+00
  -0.17300000E+01           0.00000000E+00
  -0.17200000E+01           0.00000000E+00
  -0.17100000E+01           0.00000000E+00
  -0.17000000E+01           0.00000000E+00
  -0.16900000E+01           0.00000000E+00
  -0.16800000E+01           0.00000000E+00
  -0.16700000E+01           0.00000000E+00
  -0.16600000E+01           0.00000000E+00
  -0.16500000E+01           0.00000000E+00
  -0.16400000E+01           0.00000000E+00
  -0.16300000E+01           0.00000000E+00
  -0.16200000E+01           0.00000000E+00
  -0.16100000E+01           0.00000000E+00
  -0.16000000E+01           0.00000000E+00
  -0.15900000E+01           0.00000000E+00
  -0.15800000E+01           0.00000000E+00
  -0.15700000E+01           0.00000000E+00
  -0.15600000E+01           0.00000000E+00
  -0.15500000E+01           0.00000000E+00
  -0.15400000E+01           0.00000000E+00
  -0.15300000E+01           0.00000000E+00
  -0.15200000E+01           0.00000000E+00
  -0.15100000E+01           0.00000000E+00
  -0.15000000E+01           0.00000000E+00
  -0.14900000E+01           0.00000000E+00
  -0.14800000E+01           0.00000000E+00
  -0.14700000E+01           0.00000000E+00
  -0.14600000E+01           0.00000000E+00
  -0.14500000E+01           0.00000000E+00
  -0.14400000E+01           0.00000000E+00
  -0.14300000E+01           0.00000000E+00
  -0.14200000E+01           0.00000000E+00
  -0.14100000E+01           0.00000000E+00
  -0.14000000E+01           0.00000000E+00
  -0.13900000E+01           0.00000000E+00
  -0.13800000E+01           0.00000000E+00
  -0.13700000E+01           0.00000000E+00
  -0.13600000E+01           0.00000000E+00
  -0.13500000E+01           0.00000000E+00
  -0.13400000E+01           0.00000000E+00
  -0.13300000E+01           0.00000000E+00
  -0.13200000E+01           0.00000000E+00
  -0.13100000E+01           0.00000000E+00
  -0.13000000E+01           0.00000000E+00
  -0.12900000E+01           0.00000000E+00
  -0.12800000E+01           0.00000000E+00
  -0.12700000E+01           0.00000000E+00
  -0.12600000E+01           0.00000000E+00
  -0.12500000E+01           0.00000000E+00
  -0.12400000E+01           0.00000000E+00
  -0.12300000E+01           0.00000000E+00
  -0.12200000E+01           0.00000000E+00
  -0.12100000E+01           0.00000000E+00
  -0.12000000E+01           0.00000000E+00
  -0.11900000E+01           0.00000000E+00
  -0.11800000E+01           0.00000000E+00
  -0.11700000E+01           0.00000000E+00
  -0.11600000E+01           0.00000000E+00
  -0.11500000E+01           0.00000000E+00
  -0.11400000E+01           0.00000000E+00
  -0.11300000E+01           0.00000000E+00
  -0.11200000E+01           0.00000000E+00
  -0.11100000E+01           0.00000000E+00
  -0.11000000E+01           0.00000000E+00
  -0.10900000E+01           0.00000000E+00
  -0.10800000E+01           0.00000000E+00
  -0.10700000E+01           0.00000000E+00
  -0.10600000E+01           0.00000000E+00
  -0.10500000E+01           0.00000000E+00
  -0.10400000E+01           0.00000000E+00
  -0.10300000E+01           0.00000000E+00
  -0.10200000E+01           0.00000000E+00
  -0.10100000E+01           0.00000000E+00
  -0.10000000E+01           0.00000000E+00
  -0.99000000E+00           0.00000000E+00
  -0.98000000E+00           0.00000000E+00
  -0.97000000E+00           0.00000000E+00
  -0.96000000E+00           0.00000000E+00
  -0.95000000E+00           0.00000000E+00
  -0.94000000E+00           0.00000000E+00
  -0.93000000E+00           0.00000000E+00
  -0.92000000E+00           0.00000000E+00
  -0.91000000E+00           0.00000000E+00
  -0.90000000E+00           0.00000000E+00
  -0.89000000E+00           0.00000000E+00
  -0.88000000E+00           0.00000000E+00
  -0.87000000E+00           0.00000000E+00
  -0.86000000E+00           0.00000000E+00
  -0.85000000E+00           0.00000000E+00
  -0.84000000E+00           0.00000000E+00
  -0.83000000E+00           0.00000000E+00
  -0.82000000E+00           0.00000000E+00
  -0.81000000E+00           0.00000000E+00
  -0.80000000E+00           0.00000000E+00
  -0.79000000E+00           0.00000000E+00
  -0.78000000E+00           0.00000000E+00
  -0.77000000E+00           0.00000000E+00
  -0.76000000E+00           0.00000000E+00
  -0.75000000E+00           0.00000000E+00
  -0.74000000E+00           0.00000000E+00
  -0.73000000E+00           0.00000000E+00
  -0.72000000E+00           0.00000000E+00
  -0.71000000E+00           0.00000000E+00
  -0.70000000E+00           0.00000000E+00
  -0.69000000E+00           0.00000000E+00
  -0.68000000E+00           0.00000000E+00
  -0.67000000E+00           0.00000000E+00
  -0.66000000E+00           0.00000000E+00
  -0.65000000E+00           0.00000000E+00
  -0.64000000E+00           0.00000000E+00
  -0.63000000E+00           0.00000000E+00
  -0.62000000E+00           0.00000000E+00
  -0.61000000E+00           0.00000000E+00
  -0.60000000E+00           0.00000000E+00
  -0.59000000E+00           0.00000000E+00
  -0.58000000E+00           0.00000000E+00
  -0.57000000E+00           0.00000000E+00
  -0.56000000E+00           0.00000000E+00
  -0.55000000E+00           0.00000000E+00
  -0.54000000E+00           0.00000000E+00
  -0.53000000E+00           0.00000000E+00
  -0.52000000E+00           0.00000000E+00
  -0.51000000E+00           0.00000000E+00
  -0.50000000E+00           0.00000000E+00
  -0.49000000E+00           0.00000000E+00
  -0.48000000E+00           0.00000000E+00
  -0.47000000E+00           0.00000000E+00
  -0.46000000E+00           0.00000000E+00
  -0.45000000E+00           0.00000000E+00
  -0.44000000E+00           0.00000000E+00
  -0.43000000E+00           0.00000000E+00
  -0.42000000E+00           0.00000000E+00
  -0.41000000E+00           0.00000000E+00
  -0.40000000E+00           0.00000000E+00
  -0.39000000E+00           0.00000000E+00
  -0.38000000E+00           0.00000000E+00
  -0.37000000E+00           0.00000000E+00
  -0.36000000E+00           0.00000000E+00
  -0.35000000E+00           0.00000000E+00
  -0.34000000E+00           0.00000000E+00
  -0.33000000E+00           0.00000000E+00
  -0.32000000E+00           0.00000000E+00
  -0.31000000E+00           0.00000000E+00
  -0.30000000E+00           0.00000000E+00
  -0.29000000E+00           0.00000000E+00
  -0.28000000E+00           0.00000000E+00
  -0.27000000E+00           0.00000000E+00
  -0.26000000E+00           0.00000000E+00
  -0.25000000E+00           0.00000000E+00
  -0.24000000E+00           0.00000000E+00
  -0.23000000E+00           0.00000000E+00
  -0.22000000E+00           0.00000000E+00
  -0.21000000E+00           0.00000000E+00
  -0.20000000E+00           0.00000000E+00
  -0.19000000E+00           0.00000000E+00
  -0.18000000E+00           0.00000000E+00
  -0.17000000E+00           0.00000000E+00
  -0.16000000E+00           0.00000000E+00
  -0.15000000E+00           0.00000000E+00
  -0.14000000E+00           0.00000000E+00
  -0.13000000E+00           0.00000000E+00
  -0.12000000E+00           0.00000000E+00
  -0.11000000E+00           0.00000000E+00
  -0.10000000E+00           0.00000000E+00
  -0.90000000E-01           0.00000000E+00
  -0.80000000E-01           0.00000000E+00
  -0.70000000E-01           0.00000000E+00
  -0.60000000E-01           0.00000000E+00
  -0.50000000E-01           0.00000000E+00
  -0.40000000E-01           0.00000000E+00
  -0.30000000E-01           0.00000000E+00
  -0.20000000E-01           0.00000000E+00
  -0.10000000E-01           0.00000000E+00
   0.00000000E+00           0.15728500E-02
   0.10000000E-01           0.12548450E-01
   0.20000000E-01           0.25137100E-01
   0.30000000E-01           0.37744900E-01
   0.40000000E-01           0.50267700E-01
   0.50000000E-01           0.62806950E-01
   0.60000000E-01           0.75361100E-01
   0.70000000E-01           0.87793450E-01
   0.80000000E-01           0.10030830E+00
   0.90000000E-01           0.11267285E+00
   0.10000000E+00           0.12518585E+00
   0.11000000E+00           0.13761860E+00
   0.12000000E+00           0.14983815E+00
   0.13000000E+00           0.16208280E+00
   0.14000000E+00           0.17440485E+00
   0.15000000E+00           0.18672565E+00
   0.16000000E+00           0.19879245E+00
   0.17000000E+00           0.21095490E+00
   0.18000000E+00           0.22279570E+00
   0.19000000E+00           0.23500055E+00
   0.20000000E+00           0.24666010E+00
   0.21000000E+00           0.25859995E+00
   0.22000000E+00           0.27032515E+00
   0.23000000E+00           0.28208450E+00
   0.24000000E+00           0.29367195E+00
   0.25000000E+00           0.30515960E+00
   0.26000000E+00           0.31665070E+00
   0.27000000E+00           0.32770980E+00
   0.28000000E+00           0.33913760E+00
   0.29000000E+00           0.35027390E+00
   0.30000000E+00           0.36121165E+00
   0.31000000E+00           0.37247560E+00
   0.32000000E+00           0.38277740E+00
   0.33000000E+00           0.39355045E+00
   0.34000000E+00           0.40392870E+00
   0.35000000E+00           0.41483470E+00
   0.36000000E+00           0.42506315E+00
   0.37000000E+00           0.43527820E+00
   0.38000000E+00           0.44548730E+00
   0.39000000E+00           0.45528485E+00
   0.40000000E+00           0.46515810E+00
   0.41000000E+00           0.47522995E+00
   0.42000000E+00           0.48481265E+00
   0.43000000E+00           0.49378720E+00
   0.44000000E+00           0.50353455E+00
   0.45000000E+00           0.51247170E+00
   0.46000000E+00           0.52159770E+00
   0.47000000E+00           0.53039520E+00
   0.48000000E+00           0.53949405E+00
   0.49000000E+00           0.54773970E+00
   0.50000000E+00           0.55615445E+00
   0.51000000E+00           0.56452825E+00
   0.52000000E+00           0.57243165E+00
   0.53000000E+00           0.58059575E+00
   0.54000000E+00           0.58847585E+00
   0.55000000E+00           0.59612260E+00
   0.56000000E+00           0.60357210E+00
   0.57000000E+00           0.61059805E+00
   0.58000000E+00           0.61791255E+00
   0.59000000E+00           0.62485270E+00
   0.60000000E+00           0.63148955E+00
   0.61000000E+00           0.63837890E+00
   0.62000000E+00           0.64480230E+00
   0.63000000E+00           0.65127395E+00
   0.64000000E+00           0.65726865E+00
   0.65000000E+00           0.66331535E+00
   0.66000000E+00           0.66861585E+00
   0.67000000E+00           0.67429505E+00
   0.68000000E+00           0.67954535E+00
   0.69000000E+00           0.68461640E+00
   0.70000000E+00           0.68979675E+00
   0.71000000E+00           0.69402100E+00
   0.72000000E+00           0.69943595E+00
   0.73000000E+00           0.70355275E+00
   0.74000000E+00           0.70777030E+00
   0.75000000E+00           0.71147325E+00
   0.76000000E+00           0.71565975E+00
   0.77000000E+00           0.71942560E+00
   0.78000000E+00           0.72262040E+00
   0.79000000E+00           0.72587370E+00
   0.80000000E+00           0.72909640E+00
   0.81000000E+00           0.73224355E+00
   0.82000000E+00           0.73511325E+00
   0.83000000E+00           0.73746970E+00
   0.84000000E+00           0.73963645E+00
   0.85000000E+00           0.74194480E+00
   0.86000000E+00           0.74407205E+00
   0.87000000E+00           0.74579025E+00
   0.88000000E+00           0.74740750E+00
   0.89000000E+00           0.74881530E+00
   0.90000000E+00           0.75000330E+00
   0.91000000E+00           0.75127475E+00
   0.92000000E+00           0.75182215E+00
   0.93000000E+00           0.75288445E+00
   0.94000000E+00           0.75313425E+00
   0.95000000E+00           0.75282035E+00
   0.96000000E+00           0.75319835E+00
   0.97000000E+00           0.75328175E+00
   0.98000000E+00           0.75288440E+00
   0.99000000E+00           0.75231755E+00
   0.10000000E+01           0.75160615E+00
   0.10100000E+01           0.75116335E+00
   0.10200000E+01           0.75032985E+00
   0.10300000E+01           0.74905445E+00
   0.10400000E+01           0.74736730E+00
   0.10500000E+01           0.74587355E+00
   0.10600000E+01           0.74453900E+00
   0.10700000E+01           0.74288325E+00
   0.10800000E+01           0.74080065E+00
   0.10900000E+01           0.73866400E+00
   0.11000000E+01           0.73589105E+00
   0.11100000E+01           0.73371035E+00
   0.11200000E+01           0.73076540E+00
   0.11300000E+01           0.72831555E+00
   0.11400000E+01           0.72513035E+00
   0.11500000E+01           0.72209030E+00
   0.11600000E+01           0.71882705E+00
   0.11700000E+01           0.71516935E+00
   0.11800000E+01           0.71145425E+00
   0.11900000E+01           0.70795465E+00
   0.12000000E+01           0.70414660E+00
   0.12100000E+01           0.69983070E+00
   0.12200000E+01           0.69564720E+00
   0.12300000E+01           0.69109100E+00
   0.12400000E+01           0.68708630E+00
   0.12500000E+01           0.68250105E+00
   0.12600000E+01           0.67796935E+00
   0.12700000E+01           0.67269510E+00
   0.12800000E+01           0.66780450E+00
   0.12900000E+01           0.66303975E+00
   0.13000000E+01           0.65717780E+00
   0.13100000E+01           0.65210295E+00
   0.13200000E+01           0.64672905E+00
   0.13300000E+01           0.64113080E+00
   0.13400000E+01           0.63483570E+00
   0.13500000E+01           0.62952075E+00
   0.13600000E+01           0.62344615E+00
   0.13700000E+01           0.61743555E+00
   0.13800000E+01           0.61136455E+00
   0.13900000E+01           0.60530100E+00
   0.14000000E+01           0.59919525E+00
   0.14100000E+01           0.59252790E+00
   0.14200000E+01           0.58606055E+00
   0.14300000E+01           0.57909050E+00
   0.14400000E+01           0.57260635E+00
   0.14500000E+01           0.56610420E+00
   0.14600000E+01           0.55897045E+00
   0.14700000E+01           0.55215130E+00
   0.14800000E+01           0.54520185E+00
   0.14900000E+01           0.53842400E+00
   0.15000000E+01           0.53120685E+00
   0.15100000E+01           0.52395945E+00
   0.15200000E+01           0.51681705E+00
   0.15300000E+01           0.50931105E+00
   0.15400000E+01           0.50201575E+00
   0.15500000E+01           0.49481210E+00
   0.15600000E+01           0.48733410E+00
   0.15700000E+01           0.47957780E+00
   0.15800000E+01           0.47235670E+00
   0.15900000E+01           0.46479415E+00
   0.16000000E+01           0.45760580E+00
   0.16100000E+01           0.44980255E+00
   0.16200000E+01           0.44191080E+00
   0.16300000E+01           0.43412985E+00
   0.16400000E+01           0.42662900E+00
   0.16500000E+01           0.41911295E+00
   0.16600000E+01           0.41120310E+00
   0.16700000E+01           0.40342580E+00
   0.16800000E+01           0.39567650E+00
   0.16900000E+01           0.38785365E+00
   0.17000000E+01           0.37996240E+00
   0.17100000E+01           0.37233150E+00
   0.17200000E+01           0.36468915E+00
   0.17300000E+01           0.35701495E+00
   0.17400000E+01           0.34927975E+00
   0.17500000E+01           0.34154005E+00
   0.17600000E+01           0.33393190E+00
   0.17700000E+01           0.32633910E+00
   0.17800000E+01           0.31851100E+00
   0.17900000E+01           0.31059655E+00
   0.18000000E+01           0.30310130E+00
   0.18100000E+01           0.29550385E+00
   0.18200000E+01           0.28810060E+00
   0.18300000E+01           0.28023115E+00
   0.18400000E+01           0.27272950E+00
   0.18500000E+01           0.26547550E+00
   0.18600000E+01           0.25799645E+00
   0.18700000E+01           0.25080080E+00
   0.18800000E+01           0.24338115E+00
   0.18900000E+01           0.23588985E+00
   0.19000000E+01           0.22859875E+00
   0.19100000E+01           0.22187785E+00
   0.19200000E+01           0.21450260E+00
   0.19300000E+01           0.20742270E+00
   0.19400000E+01           0.20033245E+00
   0.19500000E+01           0.19342690E+00
   0.19600000E+01           0.18659260E+00
   0.19700000E+01           0.17980780E+00
   0.19800000E+01           0.17301585E+00
   0.19900000E+01           0.16640225E+00
   0.20000000E+01           0.80616200E-01
 #T=   271.9873
  -0.20000000E+01           0.00000000E+00
  -0.19900000E+01           0.00000000E+00
  -0.19800000E+01           0.00000000E+00
  -0.19700000E+01           0.00000000E+00
  -0.19600000E+01           0.00000000E+00
  -0.19500000E+01           0.00000000E+00
  -0.19400000E+01           0.00000000E+00
  -0.19300000E+01           0.00000000E+00
  -0.19200000E+01           0.00000000E+00
  -0.19100000E+01           0.00000000E+00
  -0.19000000E+01           0.00000000E+00
  -0.18900000E+01           0.00000000E+00
  -0.18800000E+01           0.00000000E+00
  -0.18700000E+01           0.00000000E+00
  -0.18600000E+01           0.00000000E+00
  -0.18500000E+01           0.00000000E+00
  -0.18400000E+01           0.00000000E+00
  -0.18300000E+01           0.00000000E+00
  -0.18200000E+01           0.00000000E+00
  -0.18100000E+01           0.00000000E+00
  -0.18000000E+01           0.00000000E+00
  -0.17900000E+01           0.00000000E+00
  -0.17800000E+01           0.00000000E+00
  -0.17700000E+01           0.00000000E+00
  -0.17600000E+01           0.00000000E+00
  -0.17500000E+01           0.00000000E+00
  -0.17400000E+01           0.00000000E+00
  -0.17300000E+01           0.00000000E+00
  -0.17200000E+01           0.00000000E+00
  -0.17100000E+01           0.00000000E+00
  -0.17000000E+01           0.00000000E+00
  -0.16900000E+01           0.00000000E+00
  -0.16800000E+01           0.00000000E+00
  -0.16700000E+01           0.00000000E+00
  -0.16600000E+01           0.00000000E+00
  -0.16500000E+01           0.00000000E+00
  -0.16400000E+01           0.00000000E+00
  -0.16300000E+01           0.00000000E+00
  -0.16200000E+01           0.00000000E+00
  -0.16100000E+01           0.00000000E+00
  -0.16000000E+01           0.00000000E+00
  -0.15900000E+01           0.00000000E+00
  -0.15800000E+01           0.00000000E+00
  -0.15700000E+01           0.00000000E+00
  -0.15600000E+01           0.00000000E+00
  -0.15500000E+01           0.00000000E+00
  -0.15400000E+01           0.00000000E+00
  -0.15300000E+01           0.00000000E+00
  -0.15200000E+01           0.00000000E+00
  -0.15100000E+01           0.00000000E+00
  -0.15000000E+01           0.00000000E+00
  -0.14900000E+01           0.00000000E+00
  -0.14800000E+01           0.00000000E+00
  -0.14700000E+01           0.00000000E+00
  -0.14600000E+01           0.00000000E+00
  -0.14500000E+01           0.00000000E+00
  -0.14400000E+01           0.00000000E+00
  -0.14300000E+01           0.00000000E+00
  -0.14200000E+01           0.00000000E+00
  -0.14100000E+01           0.00000000E+00
  -0.14000000E+01           0.00000000E+00
  -0.13900000E+01           0.00000000E+00
  -0.13800000E+01           0.00000000E+00
  -0.13700000E+01           0.00000000E+00
  -0.13600000E+01           0.00000000E+00
  -0.13500000E+01           0.00000000E+00
  -0.13400000E+01           0.00000000E+00
  -0.13300000E+01           0.00000000E+00
  -0.13200000E+01           0.00000000E+00
  -0.13100000E+01           0.00000000E+00
  -0.13000000E+01           0.00000000E+00
  -0.12900000E+01           0.00000000E+00
  -0.12800000E+01           0.00000000E+00
  -0.12700000E+01           0.00000000E+00
  -0.12600000E+01           0.00000000E+00
  -0.12500000E+01           0.00000000E+00
  -0.12400000E+01           0.00000000E+00
  -0.12300000E+01           0.00000000E+00
  -0.12200000E+01           0.00000000E+00
  -0.12100000E+01           0.00000000E+00
  -0.12000000E+01           0.00000000E+00
  -0.11900000E+01           0.00000000E+00
  -0.11800000E+01           0.00000000E+00
  -0.11700000E+01           0.00000000E+00
  -0.11600000E+01           0.00000000E+00
  -0.11500000E+01           0.00000000E+00
  -0.11400000E+01           0.00000000E+00
  -0.11300000E+01           0.00000000E+00
  -0.11200000E+01           0.00000000E+00
  -0.11100000E+01           0.00000000E+00
  -0.11000000E+01           0.00000000E+00
  -0.10900000E+01           0.00000000E+00
  -0.10800000E+01           0.00000000E+00
  -0.10700000E+01           0.00000000E+00
  -0.10600000E+01           0.00000000E+00
  -0.10500000E+01           0.00000000E+00
  -0.10400000E+01           0.00000000E+00
  -0.10300000E+01           0.00000000E+00
  -0.10200000E+01           0.00000000E+00
  -0.10100000E+01           0.00000000E+00
  -0.10000000E+01           0.00000000E+00
  -0.99000000E+00           0.00000000E+00
  -0.98000000E+00           0.00000000E+00
  -0.97000000E+00           0.00000000E+00
  -0.96000000E+00           0.00000000E+00
  -0.95000000E+00           0.00000000E+00
  -0.94000000E+00           0.00000000E+00
  -0.93000000E+00           0.00000000E+00
  -0.92000000E+00           0.00000000E+00
  -0.91000000E+00           0.00000000E+00
  -0.90000000E+00           0.00000000E+00
  -0.89000000E+00           0.00000000E+00
  -0.88000000E+00           0.00000000E+00
  -0.87000000E+00           0.00000000E+00
  -0.86000000E+00           0.00000000E+00
  -0.85000000E+00           0.00000000E+00
  -0.84000000E+00           0.00000000E+00
  -0.83000000E+00           0.00000000E+00
  -0.82000000E+00           0.00000000E+00
  -0.81000000E+00           0.00000000E+00
  -0.80000000E+00           0.00000000E+00
  -0.79000000E+00           0.00000000E+00
  -0.78000000E+00           0.00000000E+00
  -0.77000000E+00           0.00000000E+00
  -0.76000000E+00           0.00000000E+00
  -0.75000000E+00           0.00000000E+00
  -0.74000000E+00           0.00000000E+00
  -0.73000000E+00           0.00000000E+00
  -0.72000000E+00           0.00000000E+00
  -0.71000000E+00           0.00000000E+00
  -0.70000000E+00           0.00000000E+00
  -0.69000000E+00           0.00000000E+00
  -0.68000000E+00           0.00000000E+00
  -0.67000000E+00           0.00000000E+00
  -0.66000000E+00           0.00000000E+00
  -0.65000000E+00           0.00000000E+00
  -0.64000000E+00           0.00000000E+00
  -0.63000000E+00           0.00000000E+00
  -0.62000000E+00           0.00000000E+00
  -0.61000000E+00           0.00000000E+00
  -0.60000000E+00           0.00000000E+00
  -0.59000000E+00           0.00000000E+00
  -0.58000000E+00           0.00000000E+00
  -0.57000000E+00           0.00000000E+00
  -0.56000000E+00           0.00000000E+00
  -0.55000000E+00           0.00000000E+00
  -0.54000000E+00           0.00000000E+00
  -0.53000000E+00           0.00000000E+00
  -0.52000000E+00           0.00000000E+00
  -0.51000000E+00           0.00000000E+00
  -0.50000000E+00           0.00000000E+00
  -0.49000000E+00           0.00000000E+00
  -0.48000000E+00           0.00000000E+00
  -0.47000000E+00           0.00000000E+00
  -0.46000000E+00           0.00000000E+00
  -0.45000000E+00           0.00000000E+00
  -0.44000000E+00           0.00000000E+00
  -0.43000000E+00           0.00000000E+00
  -0.42000000E+00           0.00000000E+00
  -0.41000000E+00           0.00000000E+00
  -0.40000000E+00           0.00000000E+00
  -0.39000000E+00           0.00000000E+00
  -0.38000000E+00           0.00000000E+00
  -0.37000000E+00           0.00000000E+00
  -0.36000000E+00           0.00000000E+00
  -0.35000000E+00           0.00000000E+00
  -0.34000000E+00           0.00000000E+00
  -0.33000000E+00           0.00000000E+00
  -0.32000000E+00           0.00000000E+00
  -0.31000000E+00           0.00000000E+00
  -0.30000000E+00           0.00000000E+00
  -0.29000000E+00           0.00000000E+00
  -0.28000000E+00           0.00000000E+00
  -0.27000000E+00           0.00000000E+00
  -0.26000000E+00           0.00000000E+00
  -0.25000000E+00           0.00000000E+00
  -0.24000000E+00           0.00000000E+00
  -0.23000000E+00           0.00000000E+00
  -0.22000000E+00           0.00000000E+00
  -0.21000000E+00           0.00000000E+00
  -0.20000000E+00           0.00000000E+00
  -0.19000000E+00           0.00000000E+00
  -0.18000000E+00           0.00000000E+00
  -0.17000000E+00           0.00000000E+00
  -0.16000000E+00           0.00000000E+00
  -0.15000000E+00           0.00000000E+00
  -0.14000000E+00           0.00000000E+00
  -0.13000000E+00           0.00000000E+00
  -0.12000000E+00           0.00000000E+00
  -0.11000000E+00           0.00000000E+00
  -0.10000000E+00           0.00000000E+00
  -0.90000000E-01           0.00000000E+00
  -0.80000000E-01           0.00000000E+00
  -0.70000000E-01           0.00000000E+00
  -0.60000000E-01           0.00000000E+00
  -0.50000000E-01           0.00000000E+00
  -0.40000000E-01           0.00000000E+00
  -0.30000000E-01           0.00000000E+00
  -0.20000000E-01           0.00000000E+00
  -0.10000000E-01           0.00000000E+00
   0.00000000E+00           0.15748000E-02
   0.10000000E-01           0.12504400E-01
   0.20000000E-01           0.24981700E-01
   0.30000000E-01           0.37398100E-01
   0.40000000E-01           0.49898700E-01
   0.50000000E-01           0.62347450E-01
   0.60000000E-01           0.74851550E-01
   0.70000000E-01           0.87102100E-01
   0.80000000E-01           0.99553200E-01
   0.90000000E-01           0.11195840E+00
   0.10000000E+00           0.12435340E+00
   0.11000000E+00           0.13670475E+00
   0.12000000E+00           0.14888455E+00
   0.13000000E+00           0.16106620E+00
   0.14000000E+00           0.17304035E+00
   0.15000000E+00           0.18538575E+00
   0.16000000E+00           0.19755670E+00
   0.17000000E+00           0.20956990E+00
   0.18000000E+00           0.22146455E+00
   0.19000000E+00           0.23329540E+00
   0.20000000E+00           0.24504210E+00
   0.21000000E+00           0.25686355E+00
   0.22000000E+00           0.26850875E+00
   0.23000000E+00           0.28034190E+00
   0.24000000E+00           0.29134325E+00
   0.25000000E+00           0.30313060E+00
   0.26000000E+00           0.31413140E+00
   0.27000000E+00           0.32556210E+00
   0.28000000E+00           0.33684540E+00
   0.29000000E+00           0.34767635E+00
   0.30000000E+00           0.35917675E+00
   0.31000000E+00           0.36972805E+00
   0.32000000E+00           0.38029410E+00
   0.33000000E+00           0.39082585E+00
   0.34000000E+00           0.40150785E+00
   0.35000000E+00           0.41188185E+00
   0.36000000E+00           0.42212610E+00
   0.37000000E+00           0.43271655E+00
   0.38000000E+00           0.44278770E+00
   0.39000000E+00           0.45233955E+00
   0.40000000E+00           0.46217675E+00
   0.41000000E+00           0.47198430E+00
   0.42000000E+00           0.48163195E+00
   0.43000000E+00           0.49088725E+00
   0.44000000E+00           0.50010780E+00
   0.45000000E+00           0.50932780E+00
   0.46000000E+00           0.51845870E+00
   0.47000000E+00           0.52699355E+00
   0.48000000E+00           0.53585485E+00
   0.49000000E+00           0.54406730E+00
   0.50000000E+00           0.55309070E+00
   0.51000000E+00           0.56099045E+00
   0.52000000E+00           0.56945025E+00
   0.53000000E+00           0.57710850E+00
   0.54000000E+00           0.58449445E+00
   0.55000000E+00           0.59207390E+00
   0.56000000E+00           0.59993885E+00
   0.57000000E+00           0.60712945E+00
   0.58000000E+00           0.61391685E+00
   0.59000000E+00           0.62115125E+00
   0.60000000E+00           0.62811290E+00
   0.61000000E+00           0.63484530E+00
   0.62000000E+00           0.64073160E+00
   0.63000000E+00           0.64757375E+00
   0.64000000E+00           0.65351255E+00
   0.65000000E+00           0.65945605E+00
   0.66000000E+00           0.66526185E+00
   0.67000000E+00           0.67077785E+00
   0.68000000E+00           0.67596610E+00
   0.69000000E+00           0.68113890E+00
   0.70000000E+00           0.68616230E+00
   0.71000000E+00           0.69103170E+00
   0.72000000E+00           0.69597750E+00
   0.73000000E+00           0.70025485E+00
   0.74000000E+00           0.70426805E+00
   0.75000000E+00           0.70870040E+00
   0.76000000E+00           0.71237480E+00
   0.77000000E+00           0.71635490E+00
   0.78000000E+00           0.71988500E+00
   0.79000000E+00           0.72305930E+00
   0.80000000E+00           0.72601860E+00
   0.81000000E+00           0.72923735E+00
   0.82000000E+00           0.73205550E+00
   0.83000000E+00           0.73440085E+00
   0.84000000E+00           0.73668780E+00
   0.85000000E+00           0.73935950E+00
   0.86000000E+00           0.74163505E+00
   0.87000000E+00           0.74314415E+00
   0.88000000E+00           0.74498415E+00
   0.89000000E+00           0.74616640E+00
   0.90000000E+00           0.74747495E+00
   0.91000000E+00           0.74861800E+00
   0.92000000E+00           0.74945830E+00
   0.93000000E+00           0.75061710E+00
   0.94000000E+00           0.75086315E+00
   0.95000000E+00           0.75140645E+00
   0.96000000E+00           0.75145980E+00
   0.97000000E+00           0.75136650E+00
   0.98000000E+00           0.75153685E+00
   0.99000000E+00           0.75063815E+00
   0.10000000E+01           0.75020565E+00
   0.10100000E+01           0.74932310E+00
   0.10200000E+01           0.74876605E+00
   0.10300000E+01           0.74778095E+00
   0.10400000E+01           0.74624845E+00
   0.10500000E+01           0.74508780E+00
   0.10600000E+01           0.74329995E+00
   0.10700000E+01           0.74157355E+00
   0.10800000E+01           0.73953225E+00
   0.10900000E+01           0.73779970E+00
   0.11000000E+01           0.73544515E+00
   0.11100000E+01           0.73290640E+00
   0.11200000E+01           0.73018405E+00
   0.11300000E+01           0.72754425E+00
   0.11400000E+01           0.72470620E+00
   0.11500000E+01           0.72128020E+00
   0.11600000E+01           0.71845090E+00
   0.11700000E+01           0.71507335E+00
   0.11800000E+01           0.71167835E+00
   0.11900000E+01           0.70799205E+00
   0.12000000E+01           0.70408250E+00
   0.12100000E+01           0.69985510E+00
   0.12200000E+01           0.69567545E+00
   0.12300000E+01           0.69156895E+00
   0.12400000E+01           0.68753760E+00
   0.12500000E+01           0.68326415E+00
   0.12600000E+01           0.67855195E+00
   0.12700000E+01           0.67356275E+00
   0.12800000E+01           0.66871200E+00
   0.12900000E+01           0.66374715E+00
   0.13000000E+01           0.65881035E+00
   0.13100000E+01           0.65319310E+00
   0.13200000E+01           0.64783495E+00
   0.13300000E+01           0.64232645E+00
   0.13400000E+01           0.63674465E+00
   0.13500000E+01           0.63095970E+00
   0.13600000E+01           0.62571505E+00
   0.13700000E+01           0.61972690E+00
   0.13800000E+01           0.61353145E+00
   0.13900000E+01           0.60706870E+00
   0.14000000E+01           0.60065790E+00
   0.14100000E+01           0.59468810E+00
   0.14200000E+01           0.58824750E+00
   0.14300000E+01           0.58198095E+00
   0.14400000E+01           0.57530890E+00
   0.14500000E+01           0.56838690E+00
   0.14600000E+01           0.56214225E+00
   0.14700000E+01           0.55515520E+00
   0.14800000E+01           0.54836240E+00
   0.14900000E+01           0.54121960E+00
   0.15000000E+01           0.53438760E+00
   0.15100000E+01           0.52706850E+00
   0.15200000E+01           0.51978170E+00
   0.15300000E+01           0.51296635E+00
   0.15400000E+01           0.50593425E+00
   0.15500000E+01           0.49841975E+00
   0.15600000E+01           0.49058365E+00
   0.15700000E+01           0.48341850E+00
   0.15800000E+01           0.47608705E+00
   0.15900000E+01           0.46857755E+00
   0.16000000E+01           0.46119580E+00
   0.16100000E+01           0.45353035E+00
   0.16200000E+01           0.44627505E+00
   0.16300000E+01           0.43851230E+00
   0.16400000E+01           0.43069365E+00
   0.16500000E+01           0.42307910E+00
   0.16600000E+01           0.41540445E+00
   0.16700000E+01           0.40788240E+00
   0.16800000E+01           0.39977245E+00
   0.16900000E+01           0.39247495E+00
   0.17000000E+01           0.38441945E+00
   0.17100000E+01           0.37670220E+00
   0.17200000E+01           0.36915225E+00
   0.17300000E+01           0.36171240E+00
   0.17400000E+01           0.35359370E+00
   0.17500000E+01           0.34608930E+00
   0.17600000E+01           0.33847475E+00
   0.17700000E+01           0.33074120E+00
   0.17800000E+01           0.32323195E+00
   0.17900000E+01           0.31554570E+00
   0.18000000E+01           0.30792845E+00
   0.18100000E+01           0.30016205E+00
   0.18200000E+01           0.29257205E+00
   0.18300000E+01           0.28522860E+00
   0.18400000E+01           0.27765430E+00
   0.18500000E+01           0.27018845E+00
   0.18600000E+01           0.26273765E+00
   0.18700000E+01           0.25524805E+00
   0.18800000E+01           0.24814315E+00
   0.18900000E+01           0.24065655E+00
   0.19000000E+01           0.23339600E+00
   0.19100000E+01           0.22625815E+00
   0.19200000E+01           0.21925200E+00
   0.19300000E+01           0.21188235E+00
   0.19400000E+01           0.20500770E+00
   0.19500000E+01           0.19798780E+00
   0.19600000E+01           0.19118745E+00
   0.19700000E+01           0.18436395E+00
   0.19800000E+01           0.17744235E+00
   0.19900000E+01           0.17088125E+00
   0.20000000E+01           0.82885600E-01
 #T=   272.9747
  -0.20000000E+01           0.00000000E+00
  -0.19900000E+01           0.00000000E+00
  -0.19800000E+01           0.00000000E+00
  -0.19700000E+01           0.00000000E+00
  -0.19600000E+01           0.00000000E+00
  -0.19500000E+01           0.00000000E+00
  -0.19400000E+01           0.00000000E+00
  -0.19300000E+01           0.00000000E+00
  -0.19200000E+01           0.00000000E+00
  -0.19100000E+01           0.00000000E+00
  -0.19000000E+01           0.00000000E+00
  -0.18900000E+01           0.00000000E+00
  -0.18800000E+01           0.00000000E+00
  -0.18700000E+01           0.00000000E+00
  -0.18600000E+01           0.00000000E+00
  -0.18500000E+01           0.00000000E+00
  -0.18400000E+01           0.00000000E+00
  -0.18300000E+01           0.00000000E+00
  -0.18200000E+01           0.00000000E+00
  -0.18100000E+01           0.00000000E+00
  -0.18000000E+01           0.00000000E+00
  -0.17900000E+01           0.00000000E+00
  -0.17800000E+01           0.00000000E+00
  -0.17700000E+01           0.00000000E+00
  -0.17600000E+01           0.00000000E+00
  -0.17500000E+01           0.00000000E+00
  -0.17400000E+01           0.00000000E+00
  -0.17300000E+01           0.00000000E+00
  -0.17200000E+01           0.00000000E+00
  -0.17100000E+01           0.00000000E+00
  -0.17000000E+01           0.00000000E+00
  -0.16900000E+01           0.00000000E+00
  -0.16800000E+01           0.00000000E+00
  -0.16700000E+01           0.00000000E+00
  -0.16600000E+01           0.00000000E+00
  -0.16500000E+01           0.00000000E+00
  -0.16400000E+01           0.00000000E+00
  -0.16300000E+01           0.00000000E+00
  -0.16200000E+01           0.00000000E+00
  -0.16100000E+01           0.00000000E+00
  -0.16000000E+01           0.00000000E+00
  -0.15900000E+01           0.00000000E+00
  -0.15800000E+01           0.00000000E+00
  -0.15700000E+01           0.00000000E+00
  -0.15600000E+01           0.00000000E+00
  -0.15500000E+01           0.00000000E+00
  -0.15400000E+01           0.00000000E+00
  -0.15300000E+01           0.00000000E+00
  -0.15200000E+01           0.00000000E+00
  -0.15100000E+01           0.00000000E+00
  -0.15000000E+01           0.00000000E+00
  -0.14900000E+01           0.00000000E+00
  -0.14800000E+01           0.00000000E+00
  -0.14700000E+01           0.00000000E+00
  -0.14600000E+01           0.00000000E+00
  -0.14500000E+01           0.00000000E+00
  -0.14400000E+01           0.00000000E+00
  -0.14300000E+01           0.00000000E+00
  -0.14200000E+01           0.00000000E+00
  -0.14100000E+01           0.00000000E+00
  -0.14000000E+01           0.00000000E+00
  -0.13900000E+01           0.00000000E+00
  -0.13800000E+01           0.00000000E+00
  -0.13700000E+01           0.00000000E+00
  -0.13600000E+01           0.00000000E+00
  -0.13500000E+01           0.00000000E+00
  -0.13400000E+01           0.00000000E+00
  -0.13300000E+01           0.00000000E+00
  -0.13200000E+01           0.00000000E+00
  -0.13100000E+01           0.00000000E+00
  -0.13000000E+01           0.00000000E+00
  -0.12900000E+01           0.00000000E+00
  -0.12800000E+01           0.00000000E+00
  -0.12700000E+01           0.00000000E+00
  -0.12600000E+01           0.00000000E+00
  -0.12500000E+01           0.00000000E+00
  -0.12400000E+01           0.00000000E+00
  -0.12300000E+01           0.00000000E+00
  -0.12200000E+01           0.00000000E+00
  -0.12100000E+01           0.00000000E+00
  -0.12000000E+01           0.00000000E+00
  -0.11900000E+01           0.00000000E+00
  -0.11800000E+01           0.00000000E+00
  -0.11700000E+01           0.00000000E+00
  -0.11600000E+01           0.00000000E+00
  -0.11500000E+01           0.00000000E+00
  -0.11400000E+01           0.00000000E+00
  -0.11300000E+01           0.00000000E+00
  -0.11200000E+01           0.00000000E+00
  -0.11100000E+01           0.00000000E+00
  -0.11000000E+01           0.00000000E+00
  -0.10900000E+01           0.00000000E+00
  -0.10800000E+01           0.00000000E+00
  -0.10700000E+01           0.00000000E+00
  -0.10600000E+01           0.00000000E+00
  -0.10500000E+01           0.00000000E+00
  -0.10400000E+01           0.00000000E+00
  -0.10300000E+01           0.00000000E+00
  -0.10200000E+01           0.00000000E+00
  -0.10100000E+01           0.00000000E+00
  -0.10000000E+01           0.00000000E+00
  -0.99000000E+00           0.00000000E+00
  -0.98000000E+00           0.00000000E+00
  -0.97000000E+00           0.00000000E+00
  -0.96000000E+00           0.00000000E+00
  -0.95000000E+00           0.00000000E+00
  -0.94000000E+00           0.00000000E+00
  -0.93000000E+00           0.00000000E+00
  -0.92000000E+00           0.00000000E+00
  -0.91000000E+00           0.00000000E+00
  -0.90000000E+00           0.00000000E+00
  -0.89000000E+00           0.00000000E+00
  -0.88000000E+00           0.00000000E+00
  -0.87000000E+00           0.00000000E+00
  -0.86000000E+00           0.00000000E+00
  -0.85000000E+00           0.00000000E+00
  -0.84000000E+00           0.00000000E+00
  -0.83000000E+00           0.00000000E+00
  -0.82000000E+00           0.00000000E+00
  -0.81000000E+00           0.00000000E+00
  -0.80000000E+00           0.00000000E+00
  -0.79000000E+00           0.00000000E+00
  -0.78000000E+00           0.00000000E+00
  -0.77000000E+00           0.00000000E+00
  -0.76000000E+00           0.00000000E+00
  -0.75000000E+00           0.00000000E+00
  -0.74000000E+00           0.00000000E+00
  -0.73000000E+00           0.00000000E+00
  -0.72000000E+00           0.00000000E+00
  -0.71000000E+00           0.00000000E+00
  -0.70000000E+00           0.00000000E+00
  -0.69000000E+00           0.00000000E+00
  -0.68000000E+00           0.00000000E+00
  -0.67000000E+00           0.00000000E+00
  -0.66000000E+00           0.00000000E+00
  -0.65000000E+00           0.00000000E+00
  -0.64000000E+00           0.00000000E+00
  -0.63000000E+00           0.00000000E+00
  -0.62000000E+00           0.00000000E+00
  -0.61000000E+00           0.00000000E+00
  -0.60000000E+00           0.00000000E+00
  -0.59000000E+00           0.00000000E+00
  -0.58000000E+00           0.00000000E+00
  -0.57000000E+00           0.00000000E+00
  -0.56000000E+00           0.00000000E+00
  -0.55000000E+00           0.00000000E+00
  -0.54000000E+00           0.00000000E+00
  -0.53000000E+00           0.00000000E+00
  -0.52000000E+00           0.00000000E+00
  -0.51000000E+00           0.00000000E+00
  -0.50000000E+00           0.00000000E+00
  -0.49000000E+00           0.00000000E+00
  -0.48000000E+00           0.00000000E+00
  -0.47000000E+00           0.00000000E+00
  -0.46000000E+00           0.00000000E+00
  -0.45000000E+00           0.00000000E+00
  -0.44000000E+00           0.00000000E+00
  -0.43000000E+00           0.00000000E+00
  -0.42000000E+00           0.00000000E+00
  -0.41000000E+00           0.00000000E+00
  -0.40000000E+00           0.00000000E+00
  -0.39000000E+00           0.00000000E+00
  -0.38000000E+00           0.00000000E+00
  -0.37000000E+00           0.00000000E+00
  -0.36000000E+00           0.00000000E+00
  -0.35000000E+00           0.00000000E+00
  -0.34000000E+00           0.00000000E+00
  -0.33000000E+00           0.00000000E+00
  -0.32000000E+00           0.00000000E+00
  -0.31000000E+00           0.00000000E+00
  -0.30000000E+00           0.00000000E+00
  -0.29000000E+00           0.00000000E+00
  -0.28000000E+00           0.00000000E+00
  -0.27000000E+00           0.00000000E+00
  -0.26000000E+00           0.00000000E+00
  -0.25000000E+00           0.00000000E+00
  -0.24000000E+00           0.00000000E+00
  -0.23000000E+00           0.00000000E+00
  -0.22000000E+00           0.00000000E+00
  -0.21000000E+00           0.00000000E+00
  -0.20000000E+00           0.00000000E+00
  -0.19000000E+00           0.00000000E+00
  -0.18000000E+00           0.00000000E+00
  -0.17000000E+00           0.00000000E+00
  -0.16000000E+00           0.00000000E+00
  -0.15000000E+00           0.00000000E+00
  -0.14000000E+00           0.00000000E+00
  -0.13000000E+00           0.00000000E+00
  -0.12000000E+00           0.00000000E+00
  -0.11000000E+00           0.00000000E+00
  -0.10000000E+00           0.00000000E+00
  -0.90000000E-01           0.00000000E+00
  -0.80000000E-01           0.00000000E+00
  -0.70000000E-01           0.00000000E+00
  -0.60000000E-01           0.00000000E+00
  -0.50000000E-01           0.00000000E+00
  -0.40000000E-01           0.00000000E+00
  -0.30000000E-01           0.00000000E+00
  -0.20000000E-01           0.00000000E+00
  -0.10000000E-01           0.00000000E+00
   0.00000000E+00           0.15422000E-02
   0.10000000E-01           0.12346700E-01
   0.20000000E-01           0.24785000E-01
   0.30000000E-01           0.37252500E-01
   0.40000000E-01           0.49606100E-01
   0.50000000E-01           0.61897050E-01
   0.60000000E-01           0.74296000E-01
   0.70000000E-01           0.86522000E-01
   0.80000000E-01           0.98972700E-01
   0.90000000E-01           0.11121025E+00
   0.10000000E+00           0.12346735E+00
   0.11000000E+00           0.13560905E+00
   0.12000000E+00           0.14772535E+00
   0.13000000E+00           0.15957370E+00
   0.14000000E+00           0.17186245E+00
   0.15000000E+00           0.18380635E+00
   0.16000000E+00           0.19593955E+00
   0.17000000E+00           0.20774915E+00
   0.18000000E+00           0.21984195E+00
   0.19000000E+00           0.23141645E+00
   0.20000000E+00           0.24317430E+00
   0.21000000E+00           0.25469445E+00
   0.22000000E+00           0.26638080E+00
   0.23000000E+00           0.27811160E+00
   0.24000000E+00           0.28973635E+00
   0.25000000E+00           0.30086570E+00
   0.26000000E+00           0.31212785E+00
   0.27000000E+00           0.32314550E+00
   0.28000000E+00           0.33415750E+00
   0.29000000E+00           0.34517675E+00
   0.30000000E+00           0.35613510E+00
   0.31000000E+00           0.36708045E+00
   0.32000000E+00           0.37794035E+00
   0.33000000E+00           0.38821820E+00
   0.34000000E+00           0.39853365E+00
   0.35000000E+00           0.40910860E+00
   0.36000000E+00           0.41949485E+00
   0.37000000E+00           0.42951700E+00
   0.38000000E+00           0.43957465E+00
   0.39000000E+00           0.44902610E+00
   0.40000000E+00           0.45924920E+00
   0.41000000E+00           0.46883920E+00
   0.42000000E+00           0.47851425E+00
   0.43000000E+00           0.48753375E+00
   0.44000000E+00           0.49672185E+00
   0.45000000E+00           0.50575255E+00
   0.46000000E+00           0.51474915E+00
   0.47000000E+00           0.52396450E+00
   0.48000000E+00           0.53256465E+00
   0.49000000E+00           0.54091165E+00
   0.50000000E+00           0.54947520E+00
   0.51000000E+00           0.55771940E+00
   0.52000000E+00           0.56560735E+00
   0.53000000E+00           0.57356535E+00
   0.54000000E+00           0.58080530E+00
   0.55000000E+00           0.58891930E+00
   0.56000000E+00           0.59649445E+00
   0.57000000E+00           0.60351160E+00
   0.58000000E+00           0.61045660E+00
   0.59000000E+00           0.61749810E+00
   0.60000000E+00           0.62461690E+00
   0.61000000E+00           0.63115950E+00
   0.62000000E+00           0.63729380E+00
   0.63000000E+00           0.64402890E+00
   0.64000000E+00           0.64994140E+00
   0.65000000E+00           0.65575645E+00
   0.66000000E+00           0.66163315E+00
   0.67000000E+00           0.66727805E+00
   0.68000000E+00           0.67208710E+00
   0.69000000E+00           0.67754465E+00
   0.70000000E+00           0.68268375E+00
   0.71000000E+00           0.68761860E+00
   0.72000000E+00           0.69251750E+00
   0.73000000E+00           0.69681165E+00
   0.74000000E+00           0.70096250E+00
   0.75000000E+00           0.70542550E+00
   0.76000000E+00           0.70901760E+00
   0.77000000E+00           0.71301855E+00
   0.78000000E+00           0.71642275E+00
   0.79000000E+00           0.72013220E+00
   0.80000000E+00           0.72336705E+00
   0.81000000E+00           0.72591640E+00
   0.82000000E+00           0.72878105E+00
   0.83000000E+00           0.73129725E+00
   0.84000000E+00           0.73430210E+00
   0.85000000E+00           0.73635005E+00
   0.86000000E+00           0.73852560E+00
   0.87000000E+00           0.74048920E+00
   0.88000000E+00           0.74214555E+00
   0.89000000E+00           0.74358245E+00
   0.90000000E+00           0.74511130E+00
   0.91000000E+00           0.74608180E+00
   0.92000000E+00           0.74688155E+00
   0.93000000E+00           0.74808660E+00
   0.94000000E+00           0.74885160E+00
   0.95000000E+00           0.74924830E+00
   0.96000000E+00           0.74929545E+00
   0.97000000E+00           0.74912460E+00
   0.98000000E+00           0.74938950E+00
   0.99000000E+00           0.74904360E+00
   0.10000000E+01           0.74877000E+00
   0.10100000E+01           0.74787740E+00
   0.10200000E+01           0.74686970E+00
   0.10300000E+01           0.74578350E+00
   0.10400000E+01           0.74509155E+00
   0.10500000E+01           0.74368705E+00
   0.10600000E+01           0.74223710E+00
   0.10700000E+01           0.74039830E+00
   0.10800000E+01           0.73858085E+00
   0.10900000E+01           0.73629795E+00
   0.11000000E+01           0.73439120E+00
   0.11100000E+01           0.73210875E+00
   0.11200000E+01           0.72944190E+00
   0.11300000E+01           0.72705785E+00
   0.11400000E+01           0.72421555E+00
   0.11500000E+01           0.72156355E+00
   0.11600000E+01           0.71797190E+00
   0.11700000E+01           0.71490175E+00
   0.11800000E+01           0.71155185E+00
   0.11900000E+01           0.70798020E+00
   0.12000000E+01           0.70424210E+00
   0.12100000E+01           0.70059045E+00
   0.12200000E+01           0.69635435E+00
   0.12300000E+01           0.69263615E+00
   0.12400000E+01           0.68832625E+00
   0.12500000E+01           0.68370145E+00
   0.12600000E+01           0.67941470E+00
   0.12700000E+01           0.67437000E+00
   0.12800000E+01           0.66965030E+00
   0.12900000E+01           0.66490315E+00
   0.13000000E+01           0.65996660E+00
   0.13100000E+01           0.65474110E+00
   0.13200000E+01           0.64910730E+00
   0.13300000E+01           0.64388360E+00
   0.13400000E+01           0.63867085E+00
   0.13500000E+01           0.63313200E+00
   0.13600000E+01           0.62698955E+00
   0.13700000E+01           0.62117270E+00
   0.13800000E+01           0.61523895E+00
   0.13900000E+01           0.60946945E+00
   0.14000000E+01           0.60303985E+00
   0.14100000E+01           0.59723760E+00
   0.14200000E+01           0.59083480E+00
   0.14300000E+01           0.58422200E+00
   0.14400000E+01           0.57814965E+00
   0.14500000E+01           0.57115990E+00
   0.14600000E+01           0.56462350E+00
   0.14700000E+01           0.55797620E+00
   0.14800000E+01           0.55140135E+00
   0.14900000E+01           0.54397765E+00
   0.15000000E+01           0.53758825E+00
   0.15100000E+01           0.53036870E+00
   0.15200000E+01           0.52339880E+00
   0.15300000E+01           0.51655665E+00
   0.15400000E+01           0.50918800E+00
   0.15500000E+01           0.50160585E+00
   0.15600000E+01           0.49484885E+00
   0.15700000E+01           0.48710955E+00
   0.15800000E+01           0.47974690E+00
   0.15900000E+01           0.47228675E+00
   0.16000000E+01           0.46546680E+00
   0.16100000E+01           0.45740015E+00
   0.16200000E+01           0.45004260E+00
   0.16300000E+01           0.44266375E+00
   0.16400000E+01           0.43470050E+00
   0.16500000E+01           0.42750370E+00
   0.16600000E+01           0.41997375E+00
   0.16700000E+01           0.41205755E+00
   0.16800000E+01           0.40445415E+00
   0.16900000E+01           0.39687005E+00
   0.17000000E+01           0.38919575E+00
   0.17100000E+01           0.38158215E+00
   0.17200000E+01           0.37372575E+00
   0.17300000E+01           0.36595435E+00
   0.17400000E+01           0.35872840E+00
   0.17500000E+01           0.35089510E+00
   0.17600000E+01           0.34334410E+00
   0.17700000E+01           0.33537830E+00
   0.17800000E+01           0.32793750E+00
   0.17900000E+01           0.32037175E+00
   0.18000000E+01           0.31283795E+00
   0.18100000E+01           0.30511125E+00
   0.18200000E+01           0.29739030E+00
   0.18300000E+01           0.29002820E+00
   0.18400000E+01           0.28274090E+00
   0.18500000E+01           0.27513685E+00
   0.18600000E+01           0.26771375E+00
   0.18700000E+01           0.26031855E+00
   0.18800000E+01           0.25301560E+00
   0.18900000E+01           0.24562980E+00
   0.19000000E+01           0.23820000E+00
   0.19100000E+01           0.23140255E+00
   0.19200000E+01           0.22389050E+00
   0.19300000E+01           0.21684280E+00
   0.19400000E+01           0.20982080E+00
   0.19500000E+01           0.20286350E+00
   0.19600000E+01           0.19583420E+00
   0.19700000E+01           0.18905955E+00
   0.19800000E+01           0.18224125E+00
   0.19900000E+01           0.17546330E+00
   0.20000000E+01           0.85256050E-01
 #T=   273.9620
  -0.20000000E+01           0.00000000E+00
  -0.19900000E+01           0.00000000E+00
  -0.19800000E+01           0.00000000E+00
  -0.19700000E+01           0.00000000E+00
  -0.19600000E+01           0.00000000E+00
  -0.19500000E+01           0.00000000E+00
  -0.19400000E+01           0.00000000E+00
  -0.19300000E+01           0.00000000E+00
  -0.19200000E+01           0.00000000E+00
  -0.19100000E+01           0.00000000E+00
  -0.19000000E+01           0.00000000E+00
  -0.18900000E+01           0.00000000E+00
  -0.18800000E+01           0.00000000E+00
  -0.18700000E+01           0.00000000E+00
  -0.18600000E+01           0.00000000E+00
  -0.18500000E+01           0.00000000E+00
  -0.18400000E+01           0.00000000E+00
  -0.18300000E+01           0.00000000E+00
  -0.18200000E+01           0.00000000E+00
  -0.18100000E+01           0.00000000E+00
  -0.18000000E+01           0.00000000E+00
  -0.17900000E+01           0.00000000E+00
  -0.17800000E+01           0.00000000E+00
  -0.17700000E+01           0.00000000E+00
  -0.17600000E+01           0.00000000E+00
  -0.17500000E+01           0.00000000E+00
  -0.17400000E+01           0.00000000E+00
  -0.17300000E+01           0.00000000E+00
  -0.17200000E+01           0.00000000E+00
  -0.17100000E+01           0.00000000E+00
  -0.17000000E+01           0.00000000E+00
  -0.16900000E+01           0.00000000E+00
  -0.16800000E+01           0.00000000E+00
  -0.16700000E+01           0.00000000E+00
  -0.16600000E+01           0.00000000E+00
  -0.16500000E+01           0.00000000E+00
  -0.16400000E+01           0.00000000E+00
  -0.16300000E+01           0.00000000E+00
  -0.16200000E+01           0.00000000E+00
  -0.16100000E+01           0.00000000E+00
  -0.16000000E+01           0.00000000E+00
  -0.15900000E+01           0.00000000E+00
  -0.15800000E+01           0.00000000E+00
  -0.15700000E+01           0.00000000E+00
  -0.15600000E+01           0.00000000E+00
  -0.15500000E+01           0.00000000E+00
  -0.15400000E+01           0.00000000E+00
  -0.15300000E+01           0.00000000E+00
  -0.15200000E+01           0.00000000E+00
  -0.15100000E+01           0.00000000E+00
  -0.15000000E+01           0.00000000E+00
  -0.14900000E+01           0.00000000E+00
  -0.14800000E+01           0.00000000E+00
  -0.14700000E+01           0.00000000E+00
  -0.14600000E+01           0.00000000E+00
  -0.14500000E+01           0.00000000E+00
  -0.14400000E+01           0.00000000E+00
  -0.14300000E+01           0.00000000E+00
  -0.14200000E+01           0.00000000E+00
  -0.14100000E+01           0.00000000E+00
  -0.14000000E+01           0.00000000E+00
  -0.13900000E+01           0.00000000E+00
  -0.13800000E+01           0.00000000E+00
  -0.13700000E+01           0.00000000E+00
  -0.13600000E+01           0.00000000E+00
  -0.13500000E+01           0.00000000E+00
  -0.13400000E+01           0.00000000E+00
  -0.13300000E+01           0.00000000E+00
  -0.13200000E+01           0.00000000E+00
  -0.13100000E+01           0.00000000E+00
  -0.13000000E+01           0.00000000E+00
  -0.12900000E+01           0.00000000E+00
  -0.12800000E+01           0.00000000E+00
  -0.12700000E+01           0.00000000E+00
  -0.12600000E+01           0.00000000E+00
  -0.12500000E+01           0.00000000E+00
  -0.12400000E+01           0.00000000E+00
  -0.12300000E+01           0.00000000E+00
  -0.12200000E+01           0.00000000E+00
  -0.12100000E+01           0.00000000E+00
  -0.12000000E+01           0.00000000E+00
  -0.11900000E+01           0.00000000E+00
  -0.11800000E+01           0.00000000E+00
  -0.11700000E+01           0.00000000E+00
  -0.11600000E+01           0.00000000E+00
  -0.11500000E+01           0.00000000E+00
  -0.11400000E+01           0.00000000E+00
  -0.11300000E+01           0.00000000E+00
  -0.11200000E+01           0.00000000E+00
  -0.11100000E+01           0.00000000E+00
  -0.11000000E+01           0.00000000E+00
  -0.10900000E+01           0.00000000E+00
  -0.10800000E+01           0.00000000E+00
  -0.10700000E+01           0.00000000E+00
  -0.10600000E+01           0.00000000E+00
  -0.10500000E+01           0.00000000E+00
  -0.10400000E+01           0.00000000E+00
  -0.10300000E+01           0.00000000E+00
  -0.10200000E+01           0.00000000E+00
  -0.10100000E+01           0.00000000E+00
  -0.10000000E+01           0.00000000E+00
  -0.99000000E+00           0.00000000E+00
  -0.98000000E+00           0.00000000E+00
  -0.97000000E+00           0.00000000E+00
  -0.96000000E+00           0.00000000E+00
  -0.95000000E+00           0.00000000E+00
  -0.94000000E+00           0.00000000E+00
  -0.93000000E+00           0.00000000E+00
  -0.92000000E+00           0.00000000E+00
  -0.91000000E+00           0.00000000E+00
  -0.90000000E+00           0.00000000E+00
  -0.89000000E+00           0.00000000E+00
  -0.88000000E+00           0.00000000E+00
  -0.87000000E+00           0.00000000E+00
  -0.86000000E+00           0.00000000E+00
  -0.85000000E+00           0.00000000E+00
  -0.84000000E+00           0.00000000E+00
  -0.83000000E+00           0.00000000E+00
  -0.82000000E+00           0.00000000E+00
  -0.81000000E+00           0.00000000E+00
  -0.80000000E+00           0.00000000E+00
  -0.79000000E+00           0.00000000E+00
  -0.78000000E+00           0.00000000E+00
  -0.77000000E+00           0.00000000E+00
  -0.76000000E+00           0.00000000E+00
  -0.75000000E+00           0.00000000E+00
  -0.74000000E+00           0.00000000E+00
  -0.73000000E+00           0.00000000E+00
  -0.72000000E+00           0.00000000E+00
  -0.71000000E+00           0.00000000E+00
  -0.70000000E+00           0.00000000E+00
  -0.69000000E+00           0.00000000E+00
  -0.68000000E+00           0.00000000E+00
  -0.67000000E+00           0.00000000E+00
  -0.66000000E+00           0.00000000E+00
  -0.65000000E+00           0.00000000E+00
  -0.64000000E+00           0.00000000E+00
  -0.63000000E+00           0.00000000E+00
  -0.62000000E+00           0.00000000E+00
  -0.61000000E+00           0.00000000E+00
  -0.60000000E+00           0.00000000E+00
  -0.59000000E+00           0.00000000E+00
  -0.58000000E+00           0.00000000E+00
  -0.57000000E+00           0.00000000E+00
  -0.56000000E+00           0.00000000E+00
  -0.55000000E+00           0.00000000E+00
  -0.54000000E+00           0.00000000E+00
  -0.53000000E+00           0.00000000E+00
  -0.52000000E+00           0.00000000E+00
  -0.51000000E+00           0.00000000E+00
  -0.50000000E+00           0.00000000E+00
  -0.49000000E+00           0.00000000E+00
  -0.48000000E+00           0.00000000E+00
  -0.47000000E+00           0.00000000E+00
  -0.46000000E+00           0.00000000E+00
  -0.45000000E+00           0.00000000E+00
  -0.44000000E+00           0.00000000E+00
  -0.43000000E+00           0.00000000E+00
  -0.42000000E+00           0.00000000E+00
  -0.41000000E+00           0.00000000E+00
  -0.40000000E+00           0.00000000E+00
  -0.39000000E+00           0.00000000E+00
  -0.38000000E+00           0.00000000E+00
  -0.37000000E+00           0.00000000E+00
  -0.36000000E+00           0.00000000E+00
  -0.35000000E+00           0.00000000E+00
  -0.34000000E+00           0.00000000E+00
  -0.33000000E+00           0.00000000E+00
  -0.32000000E+00           0.00000000E+00
  -0.31000000E+00           0.00000000E+00
  -0.30000000E+00           0.00000000E+00
  -0.29000000E+00           0.00000000E+00
  -0.28000000E+00           0.00000000E+00
  -0.27000000E+00           0.00000000E+00
  -0.26000000E+00           0.00000000E+00
  -0.25000000E+00           0.00000000E+00
  -0.24000000E+00           0.00000000E+00
  -0.23000000E+00           0.00000000E+00
  -0.22000000E+00           0.00000000E+00
  -0.21000000E+00           0.00000000E+00
  -0.20000000E+00           0.00000000E+00
  -0.19000000E+00           0.00000000E+00
  -0.18000000E+00           0.00000000E+00
  -0.17000000E+00           0.00000000E+00
  -0.16000000E+00           0.00000000E+00
  -0.15000000E+00           0.00000000E+00
  -0.14000000E+00           0.00000000E+00
  -0.13000000E+00           0.00000000E+00
  -0.12000000E+00           0.00000000E+00
  -0.11000000E+00           0.00000000E+00
  -0.10000000E+00           0.00000000E+00
  -0.90000000E-01           0.00000000E+00
  -0.80000000E-01           0.00000000E+00
  -0.70000000E-01           0.00000000E+00
  -0.60000000E-01           0.00000000E+00
  -0.50000000E-01           0.00000000E+00
  -0.40000000E-01           0.00000000E+00
  -0.30000000E-01           0.00000000E+00
  -0.20000000E-01           0.00000000E+00
  -0.10000000E-01           0.00000000E+00
   0.00000000E+00           0.15471500E-02
   0.10000000E-01           0.12300350E-01
   0.20000000E-01           0.24615200E-01
   0.30000000E-01           0.36901800E-01
   0.40000000E-01           0.49123950E-01
   0.50000000E-01           0.61508400E-01
   0.60000000E-01           0.73731200E-01
   0.70000000E-01           0.85875450E-01
   0.80000000E-01           0.97992200E-01
   0.90000000E-01           0.11036210E+00
   0.10000000E+00           0.12232475E+00
   0.11000000E+00           0.13466060E+00
   0.12000000E+00           0.14648420E+00
   0.13000000E+00           0.15848055E+00
   0.14000000E+00           0.17061200E+00
   0.15000000E+00           0.18248495E+00
   0.16000000E+00           0.19456895E+00
   0.17000000E+00           0.20637590E+00
   0.18000000E+00           0.21790795E+00
   0.19000000E+00           0.22971295E+00
   0.20000000E+00           0.24131350E+00
   0.21000000E+00           0.25296045E+00
   0.22000000E+00           0.26446205E+00
   0.23000000E+00           0.27591045E+00
   0.24000000E+00           0.28719585E+00
   0.25000000E+00           0.29868325E+00
   0.26000000E+00           0.30974455E+00
   0.27000000E+00           0.32074145E+00
   0.28000000E+00           0.33189505E+00
   0.29000000E+00           0.34279025E+00
   0.30000000E+00           0.35362855E+00
   0.31000000E+00           0.36432220E+00
   0.32000000E+00           0.37479950E+00
   0.33000000E+00           0.38556345E+00
   0.34000000E+00           0.39590675E+00
   0.35000000E+00           0.40644095E+00
   0.36000000E+00           0.41637550E+00
   0.37000000E+00           0.42629360E+00
   0.38000000E+00           0.43655265E+00
   0.39000000E+00           0.44648215E+00
   0.40000000E+00           0.45599310E+00
   0.41000000E+00           0.46551765E+00
   0.42000000E+00           0.47477310E+00
   0.43000000E+00           0.48454165E+00
   0.44000000E+00           0.49348825E+00
   0.45000000E+00           0.50232850E+00
   0.46000000E+00           0.51144350E+00
   0.47000000E+00           0.52025910E+00
   0.48000000E+00           0.52887975E+00
   0.49000000E+00           0.53728225E+00
   0.50000000E+00           0.54599900E+00
   0.51000000E+00           0.55392955E+00
   0.52000000E+00           0.56189315E+00
   0.53000000E+00           0.56990870E+00
   0.54000000E+00           0.57758370E+00
   0.55000000E+00           0.58526840E+00
   0.56000000E+00           0.59264365E+00
   0.57000000E+00           0.60025100E+00
   0.58000000E+00           0.60730575E+00
   0.59000000E+00           0.61409995E+00
   0.60000000E+00           0.62086410E+00
   0.61000000E+00           0.62724225E+00
   0.62000000E+00           0.63375905E+00
   0.63000000E+00           0.64022570E+00
   0.64000000E+00           0.64596920E+00
   0.65000000E+00           0.65237940E+00
   0.66000000E+00           0.65775750E+00
   0.67000000E+00           0.66341040E+00
   0.68000000E+00           0.66872355E+00
   0.69000000E+00           0.67447315E+00
   0.70000000E+00           0.67908455E+00
   0.71000000E+00           0.68374245E+00
   0.72000000E+00           0.68874500E+00
   0.73000000E+00           0.69343425E+00
   0.74000000E+00           0.69779045E+00
   0.75000000E+00           0.70194890E+00
   0.76000000E+00           0.70574295E+00
   0.77000000E+00           0.70949105E+00
   0.78000000E+00           0.71351425E+00
   0.79000000E+00           0.71641135E+00
   0.80000000E+00           0.71998565E+00
   0.81000000E+00           0.72291795E+00
   0.82000000E+00           0.72584115E+00
   0.83000000E+00           0.72835990E+00
   0.84000000E+00           0.73124320E+00
   0.85000000E+00           0.73355565E+00
   0.86000000E+00           0.73537590E+00
   0.87000000E+00           0.73757560E+00
   0.88000000E+00           0.73952195E+00
   0.89000000E+00           0.74116415E+00
   0.90000000E+00           0.74250630E+00
   0.91000000E+00           0.74380080E+00
   0.92000000E+00           0.74472525E+00
   0.93000000E+00           0.74554220E+00
   0.94000000E+00           0.74601350E+00
   0.95000000E+00           0.74683710E+00
   0.96000000E+00           0.74708865E+00
   0.97000000E+00           0.74702885E+00
   0.98000000E+00           0.74738210E+00
   0.99000000E+00           0.74785015E+00
   0.10000000E+01           0.74656195E+00
   0.10100000E+01           0.74608450E+00
   0.10200000E+01           0.74548085E+00
   0.10300000E+01           0.74482195E+00
   0.10400000E+01           0.74340895E+00
   0.10500000E+01           0.74201290E+00
   0.10600000E+01           0.74106085E+00
   0.10700000E+01           0.73917050E+00
   0.10800000E+01           0.73739775E+00
   0.10900000E+01           0.73572690E+00
   0.11000000E+01           0.73332080E+00
   0.11100000E+01           0.73143275E+00
   0.11200000E+01           0.72905475E+00
   0.11300000E+01           0.72666845E+00
   0.11400000E+01           0.72368980E+00
   0.11500000E+01           0.72094945E+00
   0.11600000E+01           0.71820755E+00
   0.11700000E+01           0.71507355E+00
   0.11800000E+01           0.71170825E+00
   0.11900000E+01           0.70778025E+00
   0.12000000E+01           0.70472050E+00
   0.12100000E+01           0.70109475E+00
   0.12200000E+01           0.69676560E+00
   0.12300000E+01           0.69303535E+00
   0.12400000E+01           0.68876150E+00
   0.12500000E+01           0.68440595E+00
   0.12600000E+01           0.68009050E+00
   0.12700000E+01           0.67529565E+00
   0.12800000E+01           0.67068410E+00
   0.12900000E+01           0.66585355E+00
   0.13000000E+01           0.66124215E+00
   0.13100000E+01           0.65599340E+00
   0.13200000E+01           0.65092780E+00
   0.13300000E+01           0.64585425E+00
   0.13400000E+01           0.63998855E+00
   0.13500000E+01           0.63462290E+00
   0.13600000E+01           0.62919530E+00
   0.13700000E+01           0.62329620E+00
   0.13800000E+01           0.61768450E+00
   0.13900000E+01           0.61176195E+00
   0.14000000E+01           0.60549025E+00
   0.14100000E+01           0.59950765E+00
   0.14200000E+01           0.59339720E+00
   0.14300000E+01           0.58694340E+00
   0.14400000E+01           0.58060765E+00
   0.14500000E+01           0.57394505E+00
   0.14600000E+01           0.56777295E+00
   0.14700000E+01           0.56086960E+00
   0.14800000E+01           0.55377115E+00
   0.14900000E+01           0.54755070E+00
   0.15000000E+01           0.54064800E+00
   0.15100000E+01           0.53363340E+00
   0.15200000E+01           0.52679785E+00
   0.15300000E+01           0.51985305E+00
   0.15400000E+01           0.51289110E+00
   0.15500000E+01           0.50534430E+00
   0.15600000E+01           0.49821605E+00
   0.15700000E+01           0.49132520E+00
   0.15800000E+01           0.48388535E+00
   0.15900000E+01           0.47621700E+00
   0.16000000E+01           0.46880525E+00
   0.16100000E+01           0.46138030E+00
   0.16200000E+01           0.45437245E+00
   0.16300000E+01           0.44665460E+00
   0.16400000E+01           0.43946280E+00
   0.16500000E+01           0.43186600E+00
   0.16600000E+01           0.42402015E+00
   0.16700000E+01           0.41655255E+00
   0.16800000E+01           0.40893535E+00
   0.16900000E+01           0.40137675E+00
   0.17000000E+01           0.39386540E+00
   0.17100000E+01           0.38595070E+00
   0.17200000E+01           0.37861510E+00
   0.17300000E+01           0.37078705E+00
   0.17400000E+01           0.36305340E+00
   0.17500000E+01           0.35571580E+00
   0.17600000E+01           0.34817995E+00
   0.17700000E+01           0.34025015E+00
   0.17800000E+01           0.33262045E+00
   0.17900000E+01           0.32532170E+00
   0.18000000E+01           0.31727805E+00
   0.18100000E+01           0.31003605E+00
   0.18200000E+01           0.30250715E+00
   0.18300000E+01           0.29494065E+00
   0.18400000E+01           0.28737115E+00
   0.18500000E+01           0.27998805E+00
   0.18600000E+01           0.27265020E+00
   0.18700000E+01           0.26530900E+00
   0.18800000E+01           0.25793595E+00
   0.18900000E+01           0.25062585E+00
   0.19000000E+01           0.24312430E+00
   0.19100000E+01           0.23603325E+00
   0.19200000E+01           0.22885205E+00
   0.19300000E+01           0.22177240E+00
   0.19400000E+01           0.21479470E+00
   0.19500000E+01           0.20786265E+00
   0.19600000E+01           0.20085935E+00
   0.19700000E+01           0.19385980E+00
   0.19800000E+01           0.18692210E+00
   0.19900000E+01           0.18027435E+00
   0.20000000E+01           0.87615050E-01
 #T=   274.9494
  -0.20000000E+01           0.00000000E+00
  -0.19900000E+01           0.00000000E+00
  -0.19800000E+01           0.00000000E+00
  -0.19700000E+01           0.00000000E+00
  -0.19600000E+01           0.00000000E+00
  -0.19500000E+01           0.00000000E+00
  -0.19400000E+01           0.00000000E+00
  -0.19300000E+01           0.00000000E+00
  -0.19200000E+01           0.00000000E+00
  -0.19100000E+01           0.00000000E+00
  -0.19000000E+01           0.00000000E+00
  -0.18900000E+01           0.00000000E+00
  -0.18800000E+01           0.00000000E+00
  -0.18700000E+01           0.00000000E+00
  -0.18600000E+01           0.00000000E+00
  -0.18500000E+01           0.00000000E+00
  -0.18400000E+01           0.00000000E+00
  -0.18300000E+01           0.00000000E+00
  -0.18200000E+01           0.00000000E+00
  -0.18100000E+01           0.00000000E+00
  -0.18000000E+01           0.00000000E+00
  -0.17900000E+01           0.00000000E+00
  -0.17800000E+01           0.00000000E+00
  -0.17700000E+01           0.00000000E+00
  -0.17600000E+01           0.00000000E+00
  -0.17500000E+01           0.00000000E+00
  -0.17400000E+01           0.00000000E+00
  -0.17300000E+01           0.00000000E+00
  -0.17200000E+01           0.00000000E+00
  -0.17100000E+01           0.00000000E+00
  -0.17000000E+01           0.00000000E+00
  -0.16900000E+01           0.00000000E+00
  -0.16800000E+01           0.00000000E+00
  -0.16700000E+01           0.00000000E+00
  -0.16600000E+01           0.00000000E+00
  -0.16500000E+01           0.00000000E+00
  -0.16400000E+01           0.00000000E+00
  -0.16300000E+01           0.00000000E+00
  -0.16200000E+01           0.00000000E+00
  -0.16100000E+01           0.00000000E+00
  -0.16000000E+01           0.00000000E+00
  -0.15900000E+01           0.00000000E+00
  -0.15800000E+01           0.00000000E+00
  -0.15700000E+01           0.00000000E+00
  -0.15600000E+01           0.00000000E+00
  -0.15500000E+01           0.00000000E+00
  -0.15400000E+01           0.00000000E+00
  -0.15300000E+01           0.00000000E+00
  -0.15200000E+01           0.00000000E+00
  -0.15100000E+01           0.00000000E+00
  -0.15000000E+01           0.00000000E+00
  -0.14900000E+01           0.00000000E+00
  -0.14800000E+01           0.00000000E+00
  -0.14700000E+01           0.00000000E+00
  -0.14600000E+01           0.00000000E+00
  -0.14500000E+01           0.00000000E+00
  -0.14400000E+01           0.00000000E+00
  -0.14300000E+01           0.00000000E+00
  -0.14200000E+01           0.00000000E+00
  -0.14100000E+01           0.00000000E+00
  -0.14000000E+01           0.00000000E+00
  -0.13900000E+01           0.00000000E+00
  -0.13800000E+01           0.00000000E+00
  -0.13700000E+01           0.00000000E+00
  -0.13600000E+01           0.00000000E+00
  -0.13500000E+01           0.00000000E+00
  -0.13400000E+01           0.00000000E+00
  -0.13300000E+01           0.00000000E+00
  -0.13200000E+01           0.00000000E+00
  -0.13100000E+01           0.00000000E+00
  -0.13000000E+01           0.00000000E+00
  -0.12900000E+01           0.00000000E+00
  -0.12800000E+01           0.00000000E+00
  -0.12700000E+01           0.00000000E+00
  -0.12600000E+01           0.00000000E+00
  -0.12500000E+01           0.00000000E+00
  -0.12400000E+01           0.00000000E+00
  -0.12300000E+01           0.00000000E+00
  -0.12200000E+01           0.00000000E+00
  -0.12100000E+01           0.00000000E+00
  -0.12000000E+01           0.00000000E+00
  -0.11900000E+01           0.00000000E+00
  -0.11800000E+01           0.00000000E+00
  -0.11700000E+01           0.00000000E+00
  -0.11600000E+01           0.00000000E+00
  -0.11500000E+01           0.00000000E+00
  -0.11400000E+01           0.00000000E+00
  -0.11300000E+01           0.00000000E+00
  -0.11200000E+01           0.00000000E+00
  -0.11100000E+01           0.00000000E+00
  -0.11000000E+01           0.00000000E+00
  -0.10900000E+01           0.00000000E+00
  -0.10800000E+01           0.00000000E+00
  -0.10700000E+01           0.00000000E+00
  -0.10600000E+01           0.00000000E+00
  -0.10500000E+01           0.00000000E+00
  -0.10400000E+01           0.00000000E+00
  -0.10300000E+01           0.00000000E+00
  -0.10200000E+01           0.00000000E+00
  -0.10100000E+01           0.00000000E+00
  -0.10000000E+01           0.00000000E+00
  -0.99000000E+00           0.00000000E+00
  -0.98000000E+00           0.00000000E+00
  -0.97000000E+00           0.00000000E+00
  -0.96000000E+00           0.00000000E+00
  -0.95000000E+00           0.00000000E+00
  -0.94000000E+00           0.00000000E+00
  -0.93000000E+00           0.00000000E+00
  -0.92000000E+00           0.00000000E+00
  -0.91000000E+00           0.00000000E+00
  -0.90000000E+00           0.00000000E+00
  -0.89000000E+00           0.00000000E+00
  -0.88000000E+00           0.00000000E+00
  -0.87000000E+00           0.00000000E+00
  -0.86000000E+00           0.00000000E+00
  -0.85000000E+00           0.00000000E+00
  -0.84000000E+00           0.00000000E+00
  -0.83000000E+00           0.00000000E+00
  -0.82000000E+00           0.00000000E+00
  -0.81000000E+00           0.00000000E+00
  -0.80000000E+00           0.00000000E+00
  -0.79000000E+00           0.00000000E+00
  -0.78000000E+00           0.00000000E+00
  -0.77000000E+00           0.00000000E+00
  -0.76000000E+00           0.00000000E+00
  -0.75000000E+00           0.00000000E+00
  -0.74000000E+00           0.00000000E+00
  -0.73000000E+00           0.00000000E+00
  -0.72000000E+00           0.00000000E+00
  -0.71000000E+00           0.00000000E+00
  -0.70000000E+00           0.00000000E+00
  -0.69000000E+00           0.00000000E+00
  -0.68000000E+00           0.00000000E+00
  -0.67000000E+00           0.00000000E+00
  -0.66000000E+00           0.00000000E+00
  -0.65000000E+00           0.00000000E+00
  -0.64000000E+00           0.00000000E+00
  -0.63000000E+00           0.00000000E+00
  -0.62000000E+00           0.00000000E+00
  -0.61000000E+00           0.00000000E+00
  -0.60000000E+00           0.00000000E+00
  -0.59000000E+00           0.00000000E+00
  -0.58000000E+00           0.00000000E+00
  -0.57000000E+00           0.00000000E+00
  -0.56000000E+00           0.00000000E+00
  -0.55000000E+00           0.00000000E+00
  -0.54000000E+00           0.00000000E+00
  -0.53000000E+00           0.00000000E+00
  -0.52000000E+00           0.00000000E+00
  -0.51000000E+00           0.00000000E+00
  -0.50000000E+00           0.00000000E+00
  -0.49000000E+00           0.00000000E+00
  -0.48000000E+00           0.00000000E+00
  -0.47000000E+00           0.00000000E+00
  -0.46000000E+00           0.00000000E+00
  -0.45000000E+00           0.00000000E+00
  -0.44000000E+00           0.00000000E+00
  -0.43000000E+00           0.00000000E+00
  -0.42000000E+00           0.00000000E+00
  -0.41000000E+00           0.00000000E+00
  -0.40000000E+00           0.00000000E+00
  -0.39000000E+00           0.00000000E+00
  -0.38000000E+00           0.00000000E+00
  -0.37000000E+00           0.00000000E+00
  -0.36000000E+00           0.00000000E+00
  -0.35000000E+00           0.00000000E+00
  -0.34000000E+00           0.00000000E+00
  -0.33000000E+00           0.00000000E+00
  -0.32000000E+00           0.00000000E+00
  -0.31000000E+00           0.00000000E+00
  -0.30000000E+00           0.00000000E+00
  -0.29000000E+00           0.00000000E+00
  -0.28000000E+00           0.00000000E+00
  -0.27000000E+00           0.00000000E+00
  -0.26000000E+00           0.00000000E+00
  -0.25000000E+00           0.00000000E+00
  -0.24000000E+00           0.00000000E+00
  -0.23000000E+00           0.00000000E+00
  -0.22000000E+00           0.00000000E+00
  -0.21000000E+00           0.00000000E+00
  -0.20000000E+00           0.00000000E+00
  -0.19000000E+00           0.00000000E+00
  -0.18000000E+00           0.00000000E+00
  -0.17000000E+00           0.00000000E+00
  -0.16000000E+00           0.00000000E+00
  -0.15000000E+00           0.00000000E+00
  -0.14000000E+00           0.00000000E+00
  -0.13000000E+00           0.00000000E+00
  -0.12000000E+00           0.00000000E+00
  -0.11000000E+00           0.00000000E+00
  -0.10000000E+00           0.00000000E+00
  -0.90000000E-01           0.00000000E+00
  -0.80000000E-01           0.00000000E+00
  -0.70000000E-01           0.00000000E+00
  -0.60000000E-01           0.00000000E+00
  -0.50000000E-01           0.00000000E+00
  -0.40000000E-01           0.00000000E+00
  -0.30000000E-01           0.00000000E+00
  -0.20000000E-01           0.00000000E+00
  -0.10000000E-01           0.00000000E+00
   0.00000000E+00           0.15304500E-02
   0.10000000E-01           0.12263550E-01
   0.20000000E-01           0.24373200E-01
   0.30000000E-01           0.36632550E-01
   0.40000000E-01           0.48770850E-01
   0.50000000E-01           0.60900650E-01
   0.60000000E-01           0.73074200E-01
   0.70000000E-01           0.85151800E-01
   0.80000000E-01           0.97321200E-01
   0.90000000E-01           0.10939230E+00
   0.10000000E+00           0.12148425E+00
   0.11000000E+00           0.13342920E+00
   0.12000000E+00           0.14557150E+00
   0.13000000E+00           0.15745925E+00
   0.14000000E+00           0.16941920E+00
   0.15000000E+00           0.18128555E+00
   0.16000000E+00           0.19291885E+00
   0.17000000E+00           0.20476135E+00
   0.18000000E+00           0.21647210E+00
   0.19000000E+00           0.22810145E+00
   0.20000000E+00           0.23972040E+00
   0.21000000E+00           0.25120460E+00
   0.22000000E+00           0.26260460E+00
   0.23000000E+00           0.27378320E+00
   0.24000000E+00           0.28509950E+00
   0.25000000E+00           0.29643740E+00
   0.26000000E+00           0.30776815E+00
   0.27000000E+00           0.31838970E+00
   0.28000000E+00           0.32933000E+00
   0.29000000E+00           0.34036380E+00
   0.30000000E+00           0.35131785E+00
   0.31000000E+00           0.36211190E+00
   0.32000000E+00           0.37214080E+00
   0.33000000E+00           0.38269220E+00
   0.34000000E+00           0.39318610E+00
   0.35000000E+00           0.40323745E+00
   0.36000000E+00           0.41345100E+00
   0.37000000E+00           0.42352245E+00
   0.38000000E+00           0.43324695E+00
   0.39000000E+00           0.44321210E+00
   0.40000000E+00           0.45292895E+00
   0.41000000E+00           0.46230710E+00
   0.42000000E+00           0.47166500E+00
   0.43000000E+00           0.48093060E+00
   0.44000000E+00           0.49036030E+00
   0.45000000E+00           0.49950720E+00
   0.46000000E+00           0.50809755E+00
   0.47000000E+00           0.51713585E+00
   0.48000000E+00           0.52569550E+00
   0.49000000E+00           0.53407880E+00
[...]
   0.13800000E+01           0.69197600E+00
   0.13900000E+01           0.69373655E+00
   0.14000000E+01           0.69534595E+00
   0.14100000E+01           0.69765190E+00
   0.14200000E+01           0.69950540E+00
   0.14300000E+01           0.70136380E+00
   0.14400000E+01           0.70294205E+00
   0.14500000E+01           0.70501260E+00
   0.14600000E+01           0.70643460E+00
   0.14700000E+01           0.70762895E+00
   0.14800000E+01           0.70902515E+00
   0.14900000E+01           0.71082475E+00
   0.15000000E+01           0.71204270E+00
   0.15100000E+01           0.71311880E+00
   0.15200000E+01           0.71429710E+00
   0.15300000E+01           0.71602520E+00
   0.15400000E+01           0.71695070E+00
   0.15500000E+01           0.71802385E+00
   0.15600000E+01           0.71901900E+00
   0.15700000E+01           0.72021205E+00
   0.15800000E+01           0.72107300E+00
   0.15900000E+01           0.72176170E+00
   0.16000000E+01           0.72308165E+00
   0.16100000E+01           0.72369210E+00
   0.16200000E+01           0.72425860E+00
   0.16300000E+01           0.72479945E+00
   0.16400000E+01           0.72559335E+00
   0.16500000E+01           0.72629675E+00
   0.16600000E+01           0.72670950E+00
   0.16700000E+01           0.72716600E+00
   0.16800000E+01           0.72744550E+00
   0.16900000E+01           0.72784195E+00
   0.17000000E+01           0.72807835E+00
   0.17100000E+01           0.72800165E+00
   0.17200000E+01           0.72845205E+00
   0.17300000E+01           0.72871605E+00
   0.17400000E+01           0.72895385E+00
   0.17500000E+01           0.72865405E+00
   0.17600000E+01           0.72883595E+00
   0.17700000E+01           0.72838900E+00
   0.17800000E+01           0.72863150E+00
   0.17900000E+01           0.72824140E+00
   0.18000000E+01           0.72807170E+00
   0.18100000E+01           0.72757420E+00
   0.18200000E+01           0.72714795E+00
   0.18300000E+01           0.72697145E+00
   0.18400000E+01           0.72645145E+00
   0.18500000E+01           0.72587990E+00
   0.18600000E+01           0.72523805E+00
   0.18700000E+01           0.72464995E+00
   0.18800000E+01           0.72381600E+00
   0.18900000E+01           0.72322400E+00
   0.19000000E+01           0.72228410E+00
   0.19100000E+01           0.72162255E+00
   0.19200000E+01           0.72072705E+00
   0.19300000E+01           0.71946090E+00
   0.19400000E+01           0.71842290E+00
   0.19500000E+01           0.71791510E+00
   0.19600000E+01           0.71628975E+00
   0.19700000E+01           0.71541785E+00
   0.19800000E+01           0.71380705E+00
   0.19900000E+01           0.71279015E+00
   0.20000000E+01           0.35606325E+00
 #T=   349.0000
  -0.20000000E+01           0.00000000E+00
  -0.19900000E+01           0.00000000E+00
  -0.19800000E+01           0.00000000E+00
  -0.19700000E+01           0.00000000E+00
  -0.19600000E+01           0.00000000E+00
  -0.19500000E+01           0.00000000E+00
  -0.19400000E+01           0.00000000E+00
  -0.19300000E+01           0.00000000E+00
  -0.19200000E+01           0.00000000E+00
  -0.19100000E+01           0.00000000E+00
  -0.19000000E+01           0.00000000E+00
  -0.18900000E+01           0.00000000E+00
  -0.18800000E+01           0.00000000E+00
  -0.18700000E+01           0.00000000E+00
  -0.18600000E+01           0.00000000E+00
  -0.18500000E+01           0.00000000E+00
  -0.18400000E+01           0.00000000E+00
  -0.18300000E+01           0.00000000E+00
  -0.18200000E+01           0.00000000E+00
  -0.18100000E+01           0.00000000E+00
  -0.18000000E+01           0.00000000E+00
  -0.17900000E+01           0.00000000E+00
  -0.17800000E+01           0.00000000E+00
  -0.17700000E+01           0.00000000E+00
  -0.17600000E+01           0.00000000E+00
  -0.17500000E+01           0.00000000E+00
  -0.17400000E+01           0.00000000E+00
  -0.17300000E+01           0.00000000E+00
  -0.17200000E+01           0.00000000E+00
  -0.17100000E+01           0.00000000E+00
  -0.17000000E+01           0.00000000E+00
  -0.16900000E+01           0.00000000E+00
  -0.16800000E+01           0.00000000E+00
  -0.16700000E+01           0.00000000E+00
  -0.16600000E+01           0.00000000E+00
  -0.16500000E+01           0.00000000E+00
  -0.16400000E+01           0.00000000E+00
  -0.16300000E+01           0.00000000E+00
  -0.16200000E+01           0.00000000E+00
  -0.16100000E+01           0.00000000E+00
  -0.16000000E+01           0.00000000E+00
  -0.15900000E+01           0.00000000E+00
  -0.15800000E+01           0.00000000E+00
  -0.15700000E+01           0.00000000E+00
  -0.15600000E+01           0.00000000E+00
  -0.15500000E+01           0.00000000E+00
  -0.15400000E+01           0.00000000E+00
  -0.15300000E+01           0.00000000E+00
  -0.15200000E+01           0.00000000E+00
  -0.15100000E+01           0.00000000E+00
  -0.15000000E+01           0.00000000E+00
  -0.14900000E+01           0.00000000E+00
  -0.14800000E+01           0.00000000E+00
  -0.14700000E+01           0.00000000E+00
  -0.14600000E+01           0.00000000E+00
  -0.14500000E+01           0.00000000E+00
  -0.14400000E+01           0.00000000E+00
  -0.14300000E+01           0.00000000E+00
  -0.14200000E+01           0.00000000E+00
  -0.14100000E+01           0.00000000E+00
  -0.14000000E+01           0.00000000E+00
  -0.13900000E+01           0.00000000E+00
  -0.13800000E+01           0.00000000E+00
  -0.13700000E+01           0.00000000E+00
  -0.13600000E+01           0.00000000E+00
  -0.13500000E+01           0.00000000E+00
  -0.13400000E+01           0.00000000E+00
  -0.13300000E+01           0.00000000E+00
  -0.13200000E+01           0.00000000E+00
  -0.13100000E+01           0.00000000E+00
  -0.13000000E+01           0.00000000E+00
  -0.12900000E+01           0.00000000E+00
  -0.12800000E+01           0.00000000E+00
  -0.12700000E+01           0.00000000E+00
  -0.12600000E+01           0.00000000E+00
  -0.12500000E+01           0.00000000E+00
  -0.12400000E+01           0.00000000E+00
  -0.12300000E+01           0.00000000E+00
  -0.12200000E+01           0.00000000E+00
  -0.12100000E+01           0.00000000E+00
  -0.12000000E+01           0.00000000E+00
  -0.11900000E+01           0.00000000E+00
  -0.11800000E+01           0.00000000E+00
  -0.11700000E+01           0.00000000E+00
  -0.11600000E+01           0.00000000E+00
  -0.11500000E+01           0.00000000E+00
  -0.11400000E+01           0.00000000E+00
  -0.11300000E+01           0.00000000E+00
  -0.11200000E+01           0.00000000E+00
  -0.11100000E+01           0.00000000E+00
  -0.11000000E+01           0.00000000E+00
  -0.10900000E+01           0.00000000E+00
  -0.10800000E+01           0.00000000E+00
  -0.10700000E+01           0.00000000E+00
  -0.10600000E+01           0.00000000E+00
  -0.10500000E+01           0.00000000E+00
  -0.10400000E+01           0.00000000E+00
  -0.10300000E+01           0.00000000E+00
  -0.10200000E+01           0.00000000E+00
  -0.10100000E+01           0.00000000E+00
  -0.10000000E+01           0.00000000E+00
  -0.99000000E+00           0.00000000E+00
  -0.98000000E+00           0.00000000E+00
  -0.97000000E+00           0.00000000E+00
  -0.96000000E+00           0.00000000E+00
  -0.95000000E+00           0.00000000E+00
  -0.94000000E+00           0.00000000E+00
  -0.93000000E+00           0.00000000E+00
  -0.92000000E+00           0.00000000E+00
  -0.91000000E+00           0.00000000E+00
  -0.90000000E+00           0.00000000E+00
  -0.89000000E+00           0.00000000E+00
  -0.88000000E+00           0.00000000E+00
  -0.87000000E+00           0.00000000E+00
  -0.86000000E+00           0.00000000E+00
  -0.85000000E+00           0.00000000E+00
  -0.84000000E+00           0.00000000E+00
  -0.83000000E+00           0.00000000E+00
  -0.82000000E+00           0.00000000E+00
  -0.81000000E+00           0.00000000E+00
  -0.80000000E+00           0.00000000E+00
  -0.79000000E+00           0.00000000E+00
  -0.78000000E+00           0.00000000E+00
  -0.77000000E+00           0.00000000E+00
  -0.76000000E+00           0.00000000E+00
  -0.75000000E+00           0.00000000E+00
  -0.74000000E+00           0.00000000E+00
  -0.73000000E+00           0.00000000E+00
  -0.72000000E+00           0.00000000E+00
  -0.71000000E+00           0.00000000E+00
  -0.70000000E+00           0.00000000E+00
  -0.69000000E+00           0.00000000E+00
  -0.68000000E+00           0.00000000E+00
  -0.67000000E+00           0.00000000E+00
  -0.66000000E+00           0.00000000E+00
  -0.65000000E+00           0.00000000E+00
  -0.64000000E+00           0.00000000E+00
  -0.63000000E+00           0.00000000E+00
  -0.62000000E+00           0.00000000E+00
  -0.61000000E+00           0.00000000E+00
  -0.60000000E+00           0.00000000E+00
  -0.59000000E+00           0.00000000E+00
  -0.58000000E+00           0.00000000E+00
  -0.57000000E+00           0.00000000E+00
  -0.56000000E+00           0.00000000E+00
  -0.55000000E+00           0.00000000E+00
  -0.54000000E+00           0.00000000E+00
  -0.53000000E+00           0.00000000E+00
  -0.52000000E+00           0.00000000E+00
  -0.51000000E+00           0.00000000E+00
  -0.50000000E+00           0.00000000E+00
  -0.49000000E+00           0.00000000E+00
  -0.48000000E+00           0.00000000E+00
  -0.47000000E+00           0.00000000E+00
  -0.46000000E+00           0.00000000E+00
  -0.45000000E+00           0.00000000E+00
  -0.44000000E+00           0.00000000E+00
  -0.43000000E+00           0.00000000E+00
  -0.42000000E+00           0.00000000E+00
  -0.41000000E+00           0.00000000E+00
  -0.40000000E+00           0.00000000E+00
  -0.39000000E+00           0.00000000E+00
  -0.38000000E+00           0.00000000E+00
  -0.37000000E+00           0.00000000E+00
  -0.36000000E+00           0.00000000E+00
  -0.35000000E+00           0.00000000E+00
  -0.34000000E+00           0.00000000E+00
  -0.33000000E+00           0.00000000E+00
  -0.32000000E+00           0.00000000E+00
  -0.31000000E+00           0.00000000E+00
  -0.30000000E+00           0.00000000E+00
  -0.29000000E+00           0.00000000E+00
  -0.28000000E+00           0.00000000E+00
  -0.27000000E+00           0.00000000E+00
  -0.26000000E+00           0.00000000E+00
  -0.25000000E+00           0.00000000E+00
  -0.24000000E+00           0.00000000E+00
  -0.23000000E+00           0.00000000E+00
  -0.22000000E+00           0.00000000E+00
  -0.21000000E+00           0.00000000E+00
  -0.20000000E+00           0.00000000E+00
  -0.19000000E+00           0.00000000E+00
  -0.18000000E+00           0.00000000E+00
  -0.17000000E+00           0.00000000E+00
  -0.16000000E+00           0.00000000E+00
  -0.15000000E+00           0.00000000E+00
  -0.14000000E+00           0.00000000E+00
  -0.13000000E+00           0.00000000E+00
  -0.12000000E+00           0.00000000E+00
  -0.11000000E+00           0.00000000E+00
  -0.10000000E+00           0.00000000E+00
  -0.90000000E-01           0.00000000E+00
  -0.80000000E-01           0.00000000E+00
  -0.70000000E-01           0.00000000E+00
  -0.60000000E-01           0.00000000E+00
  -0.50000000E-01           0.00000000E+00
  -0.40000000E-01           0.00000000E+00
  -0.30000000E-01           0.00000000E+00
  -0.20000000E-01           0.00000000E+00
  -0.10000000E-01           0.00000000E+00
   0.00000000E+00           0.83995000E-03
   0.10000000E-01           0.66256000E-02
   0.20000000E-01           0.13324900E-01
   0.30000000E-01           0.20038650E-01
   0.40000000E-01           0.26630850E-01
   0.50000000E-01           0.33213350E-01
   0.60000000E-01           0.39951450E-01
   0.70000000E-01           0.46559750E-01
   0.80000000E-01           0.53208950E-01
   0.90000000E-01           0.59847100E-01
   0.10000000E+00           0.66432250E-01
   0.11000000E+00           0.73204450E-01
   0.12000000E+00           0.79725350E-01
   0.13000000E+00           0.86298750E-01
   0.14000000E+00           0.92991500E-01
   0.15000000E+00           0.99558650E-01
   0.16000000E+00           0.10605895E+00
   0.17000000E+00           0.11273920E+00
   0.18000000E+00           0.11924455E+00
   0.19000000E+00           0.12571935E+00
   0.20000000E+00           0.13246560E+00
   0.21000000E+00           0.13903245E+00
   0.22000000E+00           0.14544760E+00
   0.23000000E+00           0.15189150E+00
   0.24000000E+00           0.15851080E+00
   0.25000000E+00           0.16495060E+00
   0.26000000E+00           0.17137335E+00
   0.27000000E+00           0.17772590E+00
   0.28000000E+00           0.18425295E+00
   0.29000000E+00           0.19056525E+00
   0.30000000E+00           0.19692320E+00
   0.31000000E+00           0.20356130E+00
   0.32000000E+00           0.20988550E+00
   0.33000000E+00           0.21628910E+00
   0.34000000E+00           0.22255545E+00
   0.35000000E+00           0.22872710E+00
   0.36000000E+00           0.23512795E+00
   0.37000000E+00           0.24147255E+00
   0.38000000E+00           0.24763735E+00
   0.39000000E+00           0.25393460E+00
   0.40000000E+00           0.26024850E+00
   0.41000000E+00           0.26654165E+00
   0.42000000E+00           0.27248465E+00
   0.43000000E+00           0.27888915E+00
   0.44000000E+00           0.28497175E+00
   0.45000000E+00           0.29079870E+00
   0.46000000E+00           0.29702140E+00
   0.47000000E+00           0.30312750E+00
   0.48000000E+00           0.30901140E+00
   0.49000000E+00           0.31493120E+00
   0.50000000E+00           0.32116080E+00
   0.51000000E+00           0.32698225E+00
   0.52000000E+00           0.33282790E+00
   0.53000000E+00           0.33893005E+00
   0.54000000E+00           0.34444155E+00
   0.55000000E+00           0.35046675E+00
   0.56000000E+00           0.35638620E+00
   0.57000000E+00           0.36172320E+00
   0.58000000E+00           0.36779430E+00
   0.59000000E+00           0.37348330E+00
   0.60000000E+00           0.37914790E+00
   0.61000000E+00           0.38473090E+00
   0.62000000E+00           0.39058135E+00
   0.63000000E+00           0.39615905E+00
   0.64000000E+00           0.40147820E+00
   0.65000000E+00           0.40705670E+00
   0.66000000E+00           0.41227545E+00
   0.67000000E+00           0.41774020E+00
   0.68000000E+00           0.42338280E+00
   0.69000000E+00           0.42863650E+00
   0.70000000E+00           0.43421805E+00
   0.71000000E+00           0.43895170E+00
   0.72000000E+00           0.44457430E+00
   0.73000000E+00           0.45013345E+00
   0.74000000E+00           0.45522250E+00
   0.75000000E+00           0.45998465E+00
   0.76000000E+00           0.46500210E+00
   0.77000000E+00           0.47035630E+00
   0.78000000E+00           0.47506675E+00
   0.79000000E+00           0.48006745E+00
   0.80000000E+00           0.48532090E+00
   0.81000000E+00           0.48983980E+00
   0.82000000E+00           0.49505620E+00
   0.83000000E+00           0.49987995E+00
   0.84000000E+00           0.50432950E+00
   0.85000000E+00           0.50928245E+00
   0.86000000E+00           0.51404825E+00
   0.87000000E+00           0.51862800E+00
   0.88000000E+00           0.52324525E+00
   0.89000000E+00           0.52760540E+00
   0.90000000E+00           0.53222805E+00
   0.91000000E+00           0.53686170E+00
   0.92000000E+00           0.54107030E+00
   0.93000000E+00           0.54568505E+00
   0.94000000E+00           0.55005285E+00
   0.95000000E+00           0.55447065E+00
   0.96000000E+00           0.55883410E+00
   0.97000000E+00           0.56278655E+00
   0.98000000E+00           0.56676840E+00
   0.99000000E+00           0.57086140E+00
   0.10000000E+01           0.57507620E+00
   0.10100000E+01           0.57911065E+00
   0.10200000E+01           0.58274895E+00
   0.10300000E+01           0.58717785E+00
   0.10400000E+01           0.59062975E+00
   0.10500000E+01           0.59456595E+00
   0.10600000E+01           0.59844635E+00
   0.10700000E+01           0.60216000E+00
   0.10800000E+01           0.60578980E+00
   0.10900000E+01           0.60949815E+00
   0.11000000E+01           0.61260790E+00
   0.11100000E+01           0.61693675E+00
   0.11200000E+01           0.62000590E+00
   0.11300000E+01           0.62357385E+00
   0.11400000E+01           0.62692630E+00
   0.11500000E+01           0.63017425E+00
   0.11600000E+01           0.63322830E+00
   0.11700000E+01           0.63646650E+00
   0.11800000E+01           0.63943575E+00
   0.11900000E+01           0.64254815E+00
   0.12000000E+01           0.64588210E+00
   0.12100000E+01           0.64908790E+00
   0.12200000E+01           0.65158630E+00
   0.12300000E+01           0.65448590E+00
   0.12400000E+01           0.65758240E+00
   0.12500000E+01           0.66062575E+00
   0.12600000E+01           0.66289675E+00
   0.12700000E+01           0.66583950E+00
   0.12800000E+01           0.66857395E+00
   0.12900000E+01           0.67131215E+00
   0.13000000E+01           0.67374880E+00
   0.13100000E+01           0.67594865E+00
   0.13200000E+01           0.67877105E+00
   0.13300000E+01           0.68105450E+00
   0.13400000E+01           0.68312315E+00
   0.13500000E+01           0.68557255E+00
   0.13600000E+01           0.68732620E+00
   0.13700000E+01           0.69000720E+00
   0.13800000E+01           0.69130200E+00
   0.13900000E+01           0.69404430E+00
   0.14000000E+01           0.69581775E+00
   0.14100000E+01           0.69743280E+00
   0.14200000E+01           0.69995785E+00
   0.14300000E+01           0.70178245E+00
   0.14400000E+01           0.70332520E+00
   0.14500000E+01           0.70532400E+00
   0.14600000E+01           0.70690100E+00
   0.14700000E+01           0.70828100E+00
   0.14800000E+01           0.71004755E+00
   0.14900000E+01           0.71124090E+00
   0.15000000E+01           0.71283410E+00
   0.15100000E+01           0.71464535E+00
   0.15200000E+01           0.71527875E+00
   0.15300000E+01           0.71694530E+00
   0.15400000E+01           0.71830030E+00
   0.15500000E+01           0.71901145E+00
   0.15600000E+01           0.72027965E+00
   0.15700000E+01           0.72157785E+00
   0.15800000E+01           0.72229885E+00
   0.15900000E+01           0.72310215E+00
   0.16000000E+01           0.72431755E+00
   0.16100000E+01           0.72511330E+00
   0.16200000E+01           0.72587610E+00
   0.16300000E+01           0.72665405E+00
   0.16400000E+01           0.72725880E+00
   0.16500000E+01           0.72815850E+00
   0.16600000E+01           0.72864820E+00
   0.16700000E+01           0.72939070E+00
   0.16800000E+01           0.72948660E+00
   0.16900000E+01           0.72964865E+00
   0.17000000E+01           0.73029190E+00
   0.17100000E+01           0.73067050E+00
   0.17200000E+01           0.73065300E+00
   0.17300000E+01           0.73105830E+00
   0.17400000E+01           0.73083985E+00
   0.17500000E+01           0.73099175E+00
   0.17600000E+01           0.73099355E+00
   0.17700000E+01           0.73114075E+00
   0.17800000E+01           0.73141425E+00
   0.17900000E+01           0.73099115E+00
   0.18000000E+01           0.73046475E+00
   0.18100000E+01           0.73067875E+00
   0.18200000E+01           0.72990085E+00
   0.18300000E+01           0.73011425E+00
   0.18400000E+01           0.72921065E+00
   0.18500000E+01           0.72904220E+00
   0.18600000E+01           0.72871285E+00
   0.18700000E+01           0.72790320E+00
   0.18800000E+01           0.72717950E+00
   0.18900000E+01           0.72663360E+00
   0.19000000E+01           0.72604785E+00
   0.19100000E+01           0.72518365E+00
   0.19200000E+01           0.72436115E+00
   0.19300000E+01           0.72370455E+00
   0.19400000E+01           0.72251950E+00
   0.19500000E+01           0.72174400E+00
   0.19600000E+01           0.72064465E+00
   0.19700000E+01           0.71965300E+00
   0.19800000E+01           0.71827055E+00
   0.19900000E+01           0.71735435E+00
   0.20000000E+01           0.35842915E+00
