 #written on 26Aug2024 at 00:35:00 
 #----------------------------------------------- MONTECARLO ---------------------------------------------------#
 # Temp      Magnetization     Energy_ave          C_M              Sus              U_E              U_M       #
 #--------------------------------------------------------------------------------------------------------------#
 400.0000   0.91909867E-02  -0.48409052E+03   0.18812392E+01   0.95653699E-04   0.66598838E+00   0.44143813E+00
 401.0000   0.92082541E-02  -0.48220354E+03   0.18954054E+01   0.95594705E-04   0.66597451E+00   0.44184560E+00
 402.0000   0.92195244E-02  -0.48033612E+03   0.19010611E+01   0.95475553E-04   0.66596356E+00   0.44208143E+00
 403.0000   0.92369997E-02  -0.47842723E+03   0.19110175E+01   0.95842660E-04   0.66595072E+00   0.44142117E+00
 404.0000   0.92537836E-02  -0.47646871E+03   0.19223918E+01   0.95825308E-04   0.66593688E+00   0.44224629E+00
 405.0000   0.92749222E-02  -0.47457640E+03   0.19325532E+01   0.96048827E-04   0.66592349E+00   0.44226013E+00
 406.0000   0.92826915E-02  -0.47263166E+03   0.19310585E+01   0.95689613E-04   0.66591434E+00   0.44285534E+00
 407.0000   0.93014765E-02  -0.47069784E+03   0.19402187E+01   0.96080339E-04   0.66590077E+00   0.44187263E+00
 408.0000   0.93184992E-02  -0.46874238E+03   0.19583819E+01   0.96236290E-04   0.66588340E+00   0.44203675E+00
 409.0000   0.93298268E-02  -0.46682517E+03   0.19660545E+01   0.96006307E-04   0.66586998E+00   0.44231897E+00
 410.0000   0.93515484E-02  -0.46483770E+03   0.19766133E+01   0.96431351E-04   0.66585491E+00   0.44191841E+00
 411.0000   0.93638092E-02  -0.46285342E+03   0.19821996E+01   0.96445248E-04   0.66584162E+00   0.44217196E+00
 412.0000   0.93805511E-02  -0.46090511E+03   0.19980409E+01   0.96446240E-04   0.66582390E+00   0.44285069E+00
 413.0000   0.93929961E-02  -0.45884242E+03   0.19979054E+01   0.96564157E-04   0.66581235E+00   0.44248523E+00
 414.0000   0.94234460E-02  -0.45684320E+03   0.20113699E+01   0.96841703E-04   0.66579491E+00   0.44273945E+00
 415.0000   0.94333211E-02  -0.45482844E+03   0.20226274E+01   0.96874105E-04   0.66577796E+00   0.44266048E+00
 416.0000   0.94468886E-02  -0.45283981E+03   0.20279899E+01   0.96459835E-04   0.66576338E+00   0.44308262E+00
 417.0000   0.94578292E-02  -0.45076355E+03   0.20400339E+01   0.96993357E-04   0.66574525E+00   0.44192644E+00
 418.0000   0.94784592E-02  -0.44872512E+03   0.20478173E+01   0.97134272E-04   0.66572880E+00   0.44202110E+00
 419.0000   0.94957768E-02  -0.44664952E+03   0.20591144E+01   0.97023626E-04   0.66571032E+00   0.44321952E+00
 420.0000   0.95179617E-02  -0.44458467E+03   0.20721024E+01   0.97024590E-04   0.66569096E+00   0.44322144E+00
 421.0000   0.95288077E-02  -0.44254078E+03   0.20861921E+01   0.97280219E-04   0.66567040E+00   0.44303966E+00
 422.0000   0.95413954E-02  -0.44041862E+03   0.20889518E+01   0.97188359E-04   0.66565464E+00   0.44320268E+00
 423.0000   0.95555258E-02  -0.43832402E+03   0.21125851E+01   0.97393840E-04   0.66562877E+00   0.44298756E+00
 424.0000   0.95799370E-02  -0.43621072E+03   0.21181833E+01   0.97314252E-04   0.66561075E+00   0.44400647E+00
 425.0000   0.95911368E-02  -0.43411815E+03   0.21245788E+01   0.97495916E-04   0.66559242E+00   0.44312956E+00
 426.0000   0.96126031E-02  -0.43196608E+03   0.21441611E+01   0.97787608E-04   0.66556662E+00   0.44293264E+00
 427.0000   0.96302803E-02  -0.42978299E+03   0.21559322E+01   0.97711100E-04   0.66554432E+00   0.44380559E+00
 428.0000   0.96466958E-02  -0.42763526E+03   0.21766751E+01   0.97993442E-04   0.66551643E+00   0.44324085E+00
 429.0000   0.96622338E-02  -0.42549096E+03   0.21786772E+01   0.97766879E-04   0.66549844E+00   0.44422723E+00
 430.0000   0.96806687E-02  -0.42329752E+03   0.21880684E+01   0.98301249E-04   0.66547569E+00   0.44290057E+00
 431.0000   0.96925646E-02  -0.42112124E+03   0.22066410E+01   0.98067470E-04   0.66544739E+00   0.44357337E+00
 432.0000   0.97144237E-02  -0.41888802E+03   0.22134466E+01   0.98371254E-04   0.66542503E+00   0.44309521E+00
 433.0000   0.97251243E-02  -0.41668586E+03   0.22307580E+01   0.98378167E-04   0.66539649E+00   0.44320853E+00
 434.0000   0.97481054E-02  -0.41442009E+03   0.22442419E+01   0.98445805E-04   0.66536868E+00   0.44368701E+00
 435.0000   0.97620130E-02  -0.41221051E+03   0.22619371E+01   0.98442822E-04   0.66533843E+00   0.44397083E+00
 436.0000   0.97699142E-02  -0.40996640E+03   0.22680766E+01   0.98511306E-04   0.66531405E+00   0.44375123E+00
 437.0000   0.97903949E-02  -0.40767910E+03   0.22729039E+01   0.99044447E-04   0.66528962E+00   0.44274178E+00
 438.0000   0.98118846E-02  -0.40535671E+03   0.22931188E+01   0.99049341E-04   0.66525530E+00   0.44333219E+00
 439.0000   0.98256085E-02  -0.40305719E+03   0.23092850E+01   0.98828150E-04   0.66522232E+00   0.44399563E+00
 440.0000   0.98420217E-02  -0.40076726E+03   0.23318198E+01   0.99017110E-04   0.66518511E+00   0.44350026E+00
 441.0000   0.98576020E-02  -0.39841049E+03   0.23411636E+01   0.98988288E-04   0.66515470E+00   0.44382900E+00
 442.0000   0.98762398E-02  -0.39606761E+03   0.23486586E+01   0.99173511E-04   0.66512482E+00   0.44398175E+00
 443.0000   0.98949415E-02  -0.39369175E+03   0.23717079E+01   0.99298809E-04   0.66508407E+00   0.44434945E+00
 444.0000   0.99093844E-02  -0.39125252E+03   0.23835044E+01   0.99668822E-04   0.66504914E+00   0.44321659E+00
 445.0000   0.99247785E-02  -0.38889068E+03   0.24018659E+01   0.99693600E-04   0.66500918E+00   0.44360614E+00
 446.0000   0.99347633E-02  -0.38645438E+03   0.24041658E+01   0.99601085E-04   0.66497905E+00   0.44369493E+00
 447.0000   0.99732940E-02  -0.38408009E+03   0.24254100E+01   0.10007756E-03   0.66493543E+00   0.44368543E+00
 448.0000   0.99829416E-02  -0.38167677E+03   0.24375045E+01   0.10008066E-03   0.66489718E+00   0.44334321E+00
 449.0000   0.10003630E-01  -0.37924148E+03   0.24593346E+01   0.99998336E-04   0.66485045E+00   0.44433837E+00
 450.0000   0.10013463E-01  -0.37676754E+03   0.24639208E+01   0.99938333E-04   0.66481466E+00   0.44448643E+00
 451.0000   0.10029844E-01  -0.37427596E+03   0.24746098E+01   0.10018489E-03   0.66477267E+00   0.44420067E+00
 452.0000   0.10050626E-01  -0.37181962E+03   0.24954897E+01   0.10039044E-03   0.66472347E+00   0.44399777E+00
 453.0000   0.10074586E-01  -0.36931418E+03   0.24943275E+01   0.10061335E-03   0.66468850E+00   0.44411042E+00
 454.0000   0.10082886E-01  -0.36681028E+03   0.25006514E+01   0.10065501E-03   0.66464685E+00   0.44435168E+00
 455.0000   0.10101614E-01  -0.36425884E+03   0.25011307E+01   0.10076418E-03   0.66460907E+00   0.44427485E+00
 456.0000   0.10118598E-01  -0.36179344E+03   0.25142307E+01   0.10084473E-03   0.66456039E+00   0.44421258E+00
 457.0000   0.10134694E-01  -0.35932386E+03   0.25030932E+01   0.10082655E-03   0.66453049E+00   0.44428763E+00
 458.0000   0.10151600E-01  -0.35683101E+03   0.24906446E+01   0.10115034E-03   0.66450109E+00   0.44399247E+00
 459.0000   0.10173318E-01  -0.35437384E+03   0.24814704E+01   0.10124146E-03   0.66446833E+00   0.44407747E+00
 460.0000   0.10194240E-01  -0.35192142E+03   0.24477882E+01   0.10137297E-03   0.66445703E+00   0.44463493E+00
 461.0000   0.10207075E-01  -0.34949946E+03   0.24321379E+01   0.10149214E-03   0.66443048E+00   0.44451661E+00
 462.0000   0.10216025E-01  -0.34700495E+03   0.23853272E+01   0.10127797E-03   0.66443011E+00   0.44494577E+00
 463.0000   0.10227845E-01  -0.34465313E+03   0.23619646E+01   0.10154847E-03   0.66441061E+00   0.44388613E+00
 464.0000   0.10242110E-01  -0.34229733E+03   0.23266511E+01   0.10174805E-03   0.66440306E+00   0.44403668E+00
 465.0000   0.10264419E-01  -0.34000585E+03   0.22833621E+01   0.10182603E-03   0.66440387E+00   0.44391404E+00
 466.0000   0.10291971E-01  -0.33778020E+03   0.22431699E+01   0.10199019E-03   0.66440334E+00   0.44437877E+00
 467.0000   0.10305999E-01  -0.33554772E+03   0.21748438E+01   0.10204078E-03   0.66443287E+00   0.44465112E+00
 468.0000   0.10320838E-01  -0.33335018E+03   0.21171314E+01   0.10209917E-03   0.66445264E+00   0.44437799E+00
 469.0000   0.10328884E-01  -0.33126475E+03   0.20761632E+01   0.10209823E-03   0.66445715E+00   0.44400699E+00
 470.0000   0.10349309E-01  -0.32921897E+03   0.20237337E+01   0.10249158E-03   0.66447617E+00   0.44396334E+00
 471.0000   0.10360306E-01  -0.32724671E+03   0.19724109E+01   0.10249290E-03   0.66449627E+00   0.44348781E+00
 472.0000   0.10372225E-01  -0.32532193E+03   0.19070428E+01   0.10235561E-03   0.66453371E+00   0.44429320E+00
 473.0000   0.10390705E-01  -0.32338996E+03   0.18496608E+01   0.10224355E-03   0.66456370E+00   0.44435099E+00
 474.0000   0.10407152E-01  -0.32159376E+03   0.18037337E+01   0.10250456E-03   0.66458366E+00   0.44416543E+00
 475.0000   0.10417683E-01  -0.31977583E+03   0.17513253E+01   0.10246343E-03   0.66461265E+00   0.44465873E+00
 476.0000   0.10424690E-01  -0.31811292E+03   0.17000962E+01   0.10259945E-03   0.66464350E+00   0.44413604E+00
 477.0000   0.10445498E-01  -0.31644486E+03   0.16466919E+01   0.10276932E-03   0.66467784E+00   0.44389967E+00
 478.0000   0.10454680E-01  -0.31479220E+03   0.16049228E+01   0.10293067E-03   0.66469963E+00   0.44358742E+00
 479.0000   0.10467173E-01  -0.31324612E+03   0.15622172E+01   0.10250427E-03   0.66472514E+00   0.44507753E+00
 480.0000   0.10481652E-01  -0.31170159E+03   0.15259248E+01   0.10276701E-03   0.66474310E+00   0.44433756E+00
 481.0000   0.10487903E-01  -0.31017439E+03   0.14823893E+01   0.10270420E-03   0.66477246E+00   0.44395659E+00
 482.0000   0.10512453E-01  -0.30869568E+03   0.14462162E+01   0.10316491E-03   0.66479341E+00   0.44346542E+00
 483.0000   0.10519190E-01  -0.30724974E+03   0.14039395E+01   0.10264836E-03   0.66482368E+00   0.44476387E+00
 484.0000   0.10524933E-01  -0.30588150E+03   0.13780856E+01   0.10286233E-03   0.66483424E+00   0.44444547E+00
 485.0000   0.10545741E-01  -0.30448329E+03   0.13435046E+01   0.10297555E-03   0.66485681E+00   0.44429252E+00
 486.0000   0.10550456E-01  -0.30319970E+03   0.13165164E+01   0.10276267E-03   0.66487059E+00   0.44453116E+00
 487.0000   0.10567203E-01  -0.30190705E+03   0.12943144E+01   0.10282136E-03   0.66487878E+00   0.44455275E+00
 488.0000   0.10583267E-01  -0.30058145E+03   0.12645808E+01   0.10278933E-03   0.66489764E+00   0.44494873E+00
 489.0000   0.10589543E-01  -0.29934999E+03   0.12361180E+01   0.10271802E-03   0.66491612E+00   0.44519000E+00
 490.0000   0.10602171E-01  -0.29811446E+03   0.12104649E+01   0.10307947E-03   0.66493149E+00   0.44406323E+00
 491.0000   0.10608738E-01  -0.29690836E+03   0.11958697E+01   0.10288793E-03   0.66493133E+00   0.44452729E+00
 492.0000   0.10629560E-01  -0.29574493E+03   0.11716714E+01   0.10311335E-03   0.66494672E+00   0.44467672E+00
 493.0000   0.10641998E-01  -0.29456500E+03   0.11447161E+01   0.10273663E-03   0.66496614E+00   0.44528135E+00
 494.0000   0.10652526E-01  -0.29344713E+03   0.11344663E+01   0.10309391E-03   0.66496159E+00   0.44419925E+00
 495.0000   0.10652888E-01  -0.29230736E+03   0.11136188E+01   0.10321506E-03   0.66497358E+00   0.44401602E+00
 496.0000   0.10667321E-01  -0.29121153E+03   0.10970694E+01   0.10320948E-03   0.66497946E+00   0.44383294E+00
 497.0000   0.10680673E-01  -0.29010190E+03   0.10826608E+01   0.10337020E-03   0.66498208E+00   0.44354426E+00
 498.0000   0.10698996E-01  -0.28902128E+03   0.10624139E+01   0.10306802E-03   0.66499504E+00   0.44460702E+00
 499.0000   0.10709400E-01  -0.28798506E+03   0.10479304E+01   0.10327597E-03   0.66499927E+00   0.44430606E+00
