 #written on 26Aug2024 at 00:35:00 
 #----------------- MONTECARLO -------------------#
 #        M                      P(M)             #
 #------------------------------------------------#
 #T=   400.0000
  -0.40000000E+01           0.00000000E+00
  -0.39900000E+01           0.00000000E+00
  -0.39800000E+01           0.00000000E+00
  -0.39700000E+01           0.00000000E+00
  -0.39600000E+01           0.00000000E+00
  -0.39500000E+01           0.00000000E+00
  -0.39400000E+01           0.00000000E+00
  -0.39300000E+01           0.00000000E+00
  -0.39200000E+01           0.00000000E+00
  -0.39100000E+01           0.00000000E+00
  -0.39000000E+01           0.00000000E+00
  -0.38900000E+01           0.00000000E+00
  -0.38800000E+01           0.00000000E+00
  -0.38700000E+01           0.00000000E+00
  -0.38600000E+01           0.00000000E+00
  -0.38500000E+01           0.00000000E+00
  -0.38400000E+01           0.00000000E+00
  -0.38300000E+01           0.00000000E+00
  -0.38200000E+01           0.00000000E+00
  -0.38100000E+01           0.00000000E+00
  -0.38000000E+01           0.00000000E+00
  -0.37900000E+01           0.00000000E+00
  -0.37800000E+01           0.00000000E+00
  -0.37700000E+01           0.00000000E+00
  -0.37600000E+01           0.00000000E+00
  -0.37500000E+01           0.00000000E+00
  -0.37400000E+01           0.00000000E+00
  -0.37300000E+01           0.00000000E+00
  -0.37200000E+01           0.00000000E+00
  -0.37100000E+01           0.00000000E+00
  -0.37000000E+01           0.00000000E+00
  -0.36900000E+01           0.00000000E+00
  -0.36800000E+01           0.00000000E+00
  -0.36700000E+01           0.00000000E+00
  -0.36600000E+01           0.00000000E+00
  -0.36500000E+01           0.00000000E+00
  -0.36400000E+01           0.00000000E+00
  -0.36300000E+01           0.00000000E+00
  -0.36200000E+01           0.00000000E+00
  -0.36100000E+01           0.00000000E+00
  -0.36000000E+01           0.00000000E+00
  -0.35900000E+01           0.00000000E+00
  -0.35800000E+01           0.00000000E+00
  -0.35700000E+01           0.00000000E+00
  -0.35600000E+01           0.00000000E+00
  -0.35500000E+01           0.00000000E+00
  -0.35400000E+01           0.00000000E+00
  -0.35300000E+01           0.00000000E+00
  -0.35200000E+01           0.00000000E+00
  -0.35100000E+01           0.00000000E+00
  -0.35000000E+01           0.00000000E+00
  -0.34900000E+01           0.00000000E+00
  -0.34800000E+01           0.00000000E+00
  -0.34700000E+01           0.00000000E+00
  -0.34600000E+01           0.00000000E+00
  -0.34500000E+01           0.00000000E+00
  -0.34400000E+01           0.00000000E+00
  -0.34300000E+01           0.00000000E+00
  -0.34200000E+01           0.00000000E+00
  -0.34100000E+01           0.00000000E+00
  -0.34000000E+01           0.00000000E+00
  -0.33900000E+01           0.00000000E+00
  -0.33800000E+01           0.00000000E+00
  -0.33700000E+01           0.00000000E+00
  -0.33600000E+01           0.00000000E+00
  -0.33500000E+01           0.00000000E+00
  -0.33400000E+01           0.00000000E+00
  -0.33300000E+01           0.00000000E+00
  -0.33200000E+01           0.00000000E+00
  -0.33100000E+01           0.00000000E+00
  -0.33000000E+01           0.00000000E+00
  -0.32900000E+01           0.00000000E+00
  -0.32800000E+01           0.00000000E+00
  -0.32700000E+01           0.00000000E+00
  -0.32600000E+01           0.00000000E+00
  -0.32500000E+01           0.00000000E+00
  -0.32400000E+01           0.00000000E+00
  -0.32300000E+01           0.00000000E+00
  -0.32200000E+01           0.00000000E+00
  -0.32100000E+01           0.00000000E+00
  -0.32000000E+01           0.00000000E+00
  -0.31900000E+01           0.00000000E+00
  -0.31800000E+01           0.00000000E+00
  -0.31700000E+01           0.00000000E+00
  -0.31600000E+01           0.00000000E+00
  -0.31500000E+01           0.00000000E+00
  -0.31400000E+01           0.00000000E+00
  -0.31300000E+01           0.00000000E+00
  -0.31200000E+01           0.00000000E+00
  -0.31100000E+01           0.00000000E+00
  -0.31000000E+01           0.00000000E+00
  -0.30900000E+01           0.00000000E+00
  -0.30800000E+01           0.00000000E+00
  -0.30700000E+01           0.00000000E+00
  -0.30600000E+01           0.00000000E+00
  -0.30500000E+01           0.00000000E+00
  -0.30400000E+01           0.00000000E+00
  -0.30300000E+01           0.00000000E+00
  -0.30200000E+01           0.00000000E+00
  -0.30100000E+01           0.00000000E+00
  -0.30000000E+01           0.00000000E+00
  -0.29900000E+01           0.00000000E+00
  -0.29800000E+01           0.00000000E+00
  -0.29700000E+01           0.00000000E+00
  -0.29600000E+01           0.00000000E+00
  -0.29500000E+01           0.00000000E+00
  -0.29400000E+01           0.00000000E+00
  -0.29300000E+01           0.00000000E+00
  -0.29200000E+01           0.00000000E+00
  -0.29100000E+01           0.00000000E+00
  -0.29000000E+01           0.00000000E+00
  -0.28900000E+01           0.00000000E+00
  -0.28800000E+01           0.00000000E+00
  -0.28700000E+01           0.00000000E+00
  -0.28600000E+01           0.00000000E+00
  -0.28500000E+01           0.00000000E+00
  -0.28400000E+01           0.00000000E+00
  -0.28300000E+01           0.00000000E+00
  -0.28200000E+01           0.00000000E+00
  -0.28100000E+01           0.00000000E+00
  -0.28000000E+01           0.00000000E+00
  -0.27900000E+01           0.00000000E+00
  -0.27800000E+01           0.00000000E+00
  -0.27700000E+01           0.00000000E+00
  -0.27600000E+01           0.00000000E+00
  -0.27500000E+01           0.00000000E+00
  -0.27400000E+01           0.00000000E+00
  -0.27300000E+01           0.00000000E+00
  -0.27200000E+01           0.00000000E+00
  -0.27100000E+01           0.00000000E+00
  -0.27000000E+01           0.00000000E+00
  -0.26900000E+01           0.00000000E+00
  -0.26800000E+01           0.00000000E+00
  -0.26700000E+01           0.00000000E+00
  -0.26600000E+01           0.00000000E+00
  -0.26500000E+01           0.00000000E+00
  -0.26400000E+01           0.00000000E+00
  -0.26300000E+01           0.00000000E+00
  -0.26200000E+01           0.00000000E+00
  -0.26100000E+01           0.00000000E+00
  -0.26000000E+01           0.00000000E+00
  -0.25900000E+01           0.00000000E+00
  -0.25800000E+01           0.00000000E+00
  -0.25700000E+01           0.00000000E+00
  -0.25600000E+01           0.00000000E+00
  -0.25500000E+01           0.00000000E+00
  -0.25400000E+01           0.00000000E+00
  -0.25300000E+01           0.00000000E+00
  -0.25200000E+01           0.00000000E+00
  -0.25100000E+01           0.00000000E+00
  -0.25000000E+01           0.00000000E+00
  -0.24900000E+01           0.00000000E+00
  -0.24800000E+01           0.00000000E+00
  -0.24700000E+01           0.00000000E+00
  -0.24600000E+01           0.00000000E+00
  -0.24500000E+01           0.00000000E+00
  -0.24400000E+01           0.00000000E+00
  -0.24300000E+01           0.00000000E+00
  -0.24200000E+01           0.00000000E+00
  -0.24100000E+01           0.00000000E+00
  -0.24000000E+01           0.00000000E+00
  -0.23900000E+01           0.00000000E+00
  -0.23800000E+01           0.00000000E+00
  -0.23700000E+01           0.00000000E+00
  -0.23600000E+01           0.00000000E+00
  -0.23500000E+01           0.00000000E+00
  -0.23400000E+01           0.00000000E+00
  -0.23300000E+01           0.00000000E+00
  -0.23200000E+01           0.00000000E+00
  -0.23100000E+01           0.00000000E+00
  -0.23000000E+01           0.00000000E+00
  -0.22900000E+01           0.00000000E+00
  -0.22800000E+01           0.00000000E+00
  -0.22700000E+01           0.00000000E+00
  -0.22600000E+01           0.00000000E+00
  -0.22500000E+01           0.00000000E+00
  -0.22400000E+01           0.00000000E+00
  -0.22300000E+01           0.00000000E+00
  -0.22200000E+01           0.00000000E+00
  -0.22100000E+01           0.00000000E+00
  -0.22000000E+01           0.00000000E+00
  -0.21900000E+01           0.00000000E+00
  -0.21800000E+01           0.00000000E+00
  -0.21700000E+01           0.00000000E+00
  -0.21600000E+01           0.00000000E+00
  -0.21500000E+01           0.00000000E+00
  -0.21400000E+01           0.00000000E+00
  -0.21300000E+01           0.00000000E+00
  -0.21200000E+01           0.00000000E+00
  -0.21100000E+01           0.00000000E+00
  -0.21000000E+01           0.00000000E+00
  -0.20900000E+01           0.00000000E+00
  -0.20800000E+01           0.00000000E+00
  -0.20700000E+01           0.00000000E+00
  -0.20600000E+01           0.00000000E+00
  -0.20500000E+01           0.00000000E+00
  -0.20400000E+01           0.00000000E+00
  -0.20300000E+01           0.00000000E+00
  -0.20200000E+01           0.00000000E+00
  -0.20100000E+01           0.00000000E+00
  -0.20000000E+01           0.00000000E+00
  -0.19900000E+01           0.00000000E+00
  -0.19800000E+01           0.00000000E+00
  -0.19700000E+01           0.00000000E+00
  -0.19600000E+01           0.00000000E+00
  -0.19500000E+01           0.00000000E+00
  -0.19400000E+01           0.00000000E+00
  -0.19300000E+01           0.00000000E+00
  -0.19200000E+01           0.00000000E+00
  -0.19100000E+01           0.00000000E+00
  -0.19000000E+01           0.00000000E+00
  -0.18900000E+01           0.00000000E+00
  -0.18800000E+01           0.00000000E+00
  -0.18700000E+01           0.00000000E+00
  -0.18600000E+01           0.00000000E+00
  -0.18500000E+01           0.00000000E+00
  -0.18400000E+01           0.00000000E+00
  -0.18300000E+01           0.00000000E+00
  -0.18200000E+01           0.00000000E+00
  -0.18100000E+01           0.00000000E+00
  -0.18000000E+01           0.00000000E+00
  -0.17900000E+01           0.00000000E+00
  -0.17800000E+01           0.00000000E+00
  -0.17700000E+01           0.00000000E+00
  -0.17600000E+01           0.00000000E+00
  -0.17500000E+01           0.00000000E+00
  -0.17400000E+01           0.00000000E+00
  -0.17300000E+01           0.00000000E+00
  -0.17200000E+01           0.00000000E+00
  -0.17100000E+01           0.00000000E+00
  -0.17000000E+01           0.00000000E+00
  -0.16900000E+01           0.00000000E+00
  -0.16800000E+01           0.00000000E+00
  -0.16700000E+01           0.00000000E+00
  -0.16600000E+01           0.00000000E+00
  -0.16500000E+01           0.00000000E+00
  -0.16400000E+01           0.00000000E+00
  -0.16300000E+01           0.00000000E+00
  -0.16200000E+01           0.00000000E+00
  -0.16100000E+01           0.00000000E+00
  -0.16000000E+01           0.00000000E+00
  -0.15900000E+01           0.00000000E+00
  -0.15800000E+01           0.00000000E+00
  -0.15700000E+01           0.00000000E+00
  -0.15600000E+01           0.00000000E+00
  -0.15500000E+01           0.00000000E+00
  -0.15400000E+01           0.00000000E+00
  -0.15300000E+01           0.00000000E+00
  -0.15200000E+01           0.00000000E+00
  -0.15100000E+01           0.00000000E+00
  -0.15000000E+01           0.00000000E+00
  -0.14900000E+01           0.00000000E+00
  -0.14800000E+01           0.00000000E+00
  -0.14700000E+01           0.00000000E+00
  -0.14600000E+01           0.00000000E+00
  -0.14500000E+01           0.00000000E+00
  -0.14400000E+01           0.00000000E+00
  -0.14300000E+01           0.00000000E+00
  -0.14200000E+01           0.00000000E+00
  -0.14100000E+01           0.00000000E+00
  -0.14000000E+01           0.00000000E+00
  -0.13900000E+01           0.00000000E+00
  -0.13800000E+01           0.00000000E+00
  -0.13700000E+01           0.00000000E+00
  -0.13600000E+01           0.00000000E+00
  -0.13500000E+01           0.00000000E+00
  -0.13400000E+01           0.00000000E+00
  -0.13300000E+01           0.00000000E+00
  -0.13200000E+01           0.00000000E+00
  -0.13100000E+01           0.00000000E+00
  -0.13000000E+01           0.00000000E+00
  -0.12900000E+01           0.00000000E+00
  -0.12800000E+01           0.00000000E+00
  -0.12700000E+01           0.00000000E+00
  -0.12600000E+01           0.00000000E+00
  -0.12500000E+01           0.00000000E+00
  -0.12400000E+01           0.00000000E+00
  -0.12300000E+01           0.00000000E+00
  -0.12200000E+01           0.00000000E+00
  -0.12100000E+01           0.00000000E+00
  -0.12000000E+01           0.00000000E+00
  -0.11900000E+01           0.00000000E+00
  -0.11800000E+01           0.00000000E+00
  -0.11700000E+01           0.00000000E+00
  -0.11600000E+01           0.00000000E+00
  -0.11500000E+01           0.00000000E+00
  -0.11400000E+01           0.00000000E+00
  -0.11300000E+01           0.00000000E+00
  -0.11200000E+01           0.00000000E+00
  -0.11100000E+01           0.00000000E+00
  -0.11000000E+01           0.00000000E+00
  -0.10900000E+01           0.00000000E+00
  -0.10800000E+01           0.00000000E+00
  -0.10700000E+01           0.00000000E+00
  -0.10600000E+01           0.00000000E+00
  -0.10500000E+01           0.00000000E+00
  -0.10400000E+01           0.00000000E+00
  -0.10300000E+01           0.00000000E+00
  -0.10200000E+01           0.00000000E+00
  -0.10100000E+01           0.00000000E+00
  -0.10000000E+01           0.00000000E+00
  -0.99000000E+00           0.00000000E+00
  -0.98000000E+00           0.00000000E+00
  -0.97000000E+00           0.00000000E+00
  -0.96000000E+00           0.00000000E+00
  -0.95000000E+00           0.00000000E+00
  -0.94000000E+00           0.00000000E+00
  -0.93000000E+00           0.00000000E+00
  -0.92000000E+00           0.00000000E+00
  -0.91000000E+00           0.00000000E+00
  -0.90000000E+00           0.00000000E+00
  -0.89000000E+00           0.00000000E+00
  -0.88000000E+00           0.00000000E+00
  -0.87000000E+00           0.00000000E+00
  -0.86000000E+00           0.00000000E+00
  -0.85000000E+00           0.00000000E+00
  -0.84000000E+00           0.00000000E+00
  -0.83000000E+00           0.00000000E+00
  -0.82000000E+00           0.00000000E+00
  -0.81000000E+00           0.00000000E+00
  -0.80000000E+00           0.00000000E+00
  -0.79000000E+00           0.00000000E+00
  -0.78000000E+00           0.00000000E+00
  -0.77000000E+00           0.00000000E+00
  -0.76000000E+00           0.00000000E+00
  -0.75000000E+00           0.00000000E+00
  -0.74000000E+00           0.00000000E+00
  -0.73000000E+00           0.00000000E+00
  -0.72000000E+00           0.00000000E+00
  -0.71000000E+00           0.00000000E+00
  -0.70000000E+00           0.00000000E+00
  -0.69000000E+00           0.00000000E+00
  -0.68000000E+00           0.00000000E+00
  -0.67000000E+00           0.00000000E+00
  -0.66000000E+00           0.00000000E+00
  -0.65000000E+00           0.00000000E+00
  -0.64000000E+00           0.00000000E+00
  -0.63000000E+00           0.00000000E+00
  -0.62000000E+00           0.00000000E+00
  -0.61000000E+00           0.00000000E+00
  -0.60000000E+00           0.00000000E+00
  -0.59000000E+00           0.00000000E+00
  -0.58000000E+00           0.00000000E+00
  -0.57000000E+00           0.00000000E+00
  -0.56000000E+00           0.00000000E+00
  -0.55000000E+00           0.00000000E+00
  -0.54000000E+00           0.00000000E+00
  -0.53000000E+00           0.00000000E+00
  -0.52000000E+00           0.00000000E+00
  -0.51000000E+00           0.00000000E+00
  -0.50000000E+00           0.00000000E+00
  -0.49000000E+00           0.00000000E+00
  -0.48000000E+00           0.00000000E+00
  -0.47000000E+00           0.00000000E+00
  -0.46000000E+00           0.00000000E+00
  -0.45000000E+00           0.00000000E+00
  -0.44000000E+00           0.00000000E+00
  -0.43000000E+00           0.00000000E+00
  -0.42000000E+00           0.00000000E+00
  -0.41000000E+00           0.00000000E+00
  -0.40000000E+00           0.00000000E+00
  -0.39000000E+00           0.00000000E+00
  -0.38000000E+00           0.00000000E+00
  -0.37000000E+00           0.00000000E+00
  -0.36000000E+00           0.00000000E+00
  -0.35000000E+00           0.00000000E+00
  -0.34000000E+00           0.00000000E+00
  -0.33000000E+00           0.00000000E+00
  -0.32000000E+00           0.00000000E+00
  -0.31000000E+00           0.00000000E+00
  -0.30000000E+00           0.00000000E+00
  -0.29000000E+00           0.00000000E+00
  -0.28000000E+00           0.00000000E+00
  -0.27000000E+00           0.00000000E+00
  -0.26000000E+00           0.00000000E+00
  -0.25000000E+00           0.00000000E+00
  -0.24000000E+00           0.00000000E+00
  -0.23000000E+00           0.00000000E+00
  -0.22000000E+00           0.00000000E+00
  -0.21000000E+00           0.00000000E+00
  -0.20000000E+00           0.00000000E+00
  -0.19000000E+00           0.00000000E+00
  -0.18000000E+00           0.00000000E+00
  -0.17000000E+00           0.00000000E+00
  -0.16000000E+00           0.00000000E+00
  -0.15000000E+00           0.00000000E+00
  -0.14000000E+00           0.00000000E+00
  -0.13000000E+00           0.00000000E+00
  -0.12000000E+00           0.00000000E+00
  -0.11000000E+00           0.00000000E+00
  -0.10000000E+00           0.00000000E+00
  -0.90000000E-01           0.00000000E+00
  -0.80000000E-01           0.00000000E+00
  -0.70000000E-01           0.00000000E+00
  -0.60000000E-01           0.00000000E+00
  -0.50000000E-01           0.00000000E+00
  -0.40000000E-01           0.00000000E+00
  -0.30000000E-01           0.00000000E+00
  -0.20000000E-01           0.00000000E+00
  -0.10000000E-01           0.00000000E+00
   0.00000000E+00           0.14761905E-04
   0.10000000E-01           0.36841270E-03
   0.20000000E-01           0.14525397E-02
   0.30000000E-01           0.31493651E-02
   0.40000000E-01           0.55033333E-02
   0.50000000E-01           0.84396825E-02
   0.60000000E-01           0.12048254E-01
   0.70000000E-01           0.16183968E-01
   0.80000000E-01           0.20888571E-01
   0.90000000E-01           0.26022857E-01
   0.10000000E+00           0.31498730E-01
   0.11000000E+00           0.37560000E-01
   0.12000000E+00           0.44238571E-01
   0.13000000E+00           0.50967778E-01
   0.14000000E+00           0.58533968E-01
   0.15000000E+00           0.66311270E-01
   0.16000000E+00           0.74592857E-01
   0.17000000E+00           0.82806667E-01
   0.18000000E+00           0.91664603E-01
   0.19000000E+00           0.10049524E+00
   0.20000000E+00           0.11005476E+00
   0.21000000E+00           0.11945286E+00
   0.22000000E+00           0.12945778E+00
   0.23000000E+00           0.13946635E+00
   0.24000000E+00           0.14982571E+00
   0.25000000E+00           0.15990317E+00
   0.26000000E+00           0.17065349E+00
   0.27000000E+00           0.18134032E+00
   0.28000000E+00           0.19241365E+00
   0.29000000E+00           0.20350063E+00
   0.30000000E+00           0.21481524E+00
   0.31000000E+00           0.22580841E+00
   0.32000000E+00           0.23749921E+00
   0.33000000E+00           0.24880032E+00
   0.34000000E+00           0.26017111E+00
   0.35000000E+00           0.27152317E+00
   0.36000000E+00           0.28314698E+00
   0.37000000E+00           0.29526810E+00
   0.38000000E+00           0.30669857E+00
   0.39000000E+00           0.31751238E+00
   0.40000000E+00           0.32979730E+00
   0.41000000E+00           0.34106905E+00
   0.42000000E+00           0.35261460E+00
   0.43000000E+00           0.36338492E+00
   0.44000000E+00           0.37541540E+00
   0.45000000E+00           0.38641937E+00
   0.46000000E+00           0.39775365E+00
   0.47000000E+00           0.40889238E+00
   0.48000000E+00           0.41967333E+00
   0.49000000E+00           0.43078952E+00
   0.50000000E+00           0.44163603E+00
   0.51000000E+00           0.45240619E+00
   0.52000000E+00           0.46327349E+00
   0.53000000E+00           0.47294698E+00
   0.54000000E+00           0.48382429E+00
   0.55000000E+00           0.49416778E+00
   0.56000000E+00           0.50374889E+00
   0.57000000E+00           0.51392603E+00
   0.58000000E+00           0.52342968E+00
   0.59000000E+00           0.53320794E+00
   0.60000000E+00           0.54233921E+00
   0.61000000E+00           0.55140302E+00
   0.62000000E+00           0.56060365E+00
   0.63000000E+00           0.56898714E+00
   0.64000000E+00           0.57798825E+00
   0.65000000E+00           0.58633206E+00
   0.66000000E+00           0.59455492E+00
   0.67000000E+00           0.60238365E+00
   0.68000000E+00           0.60927175E+00
   0.69000000E+00           0.61742794E+00
   0.70000000E+00           0.62474794E+00
   0.71000000E+00           0.63128921E+00
   0.72000000E+00           0.63822317E+00
   0.73000000E+00           0.64554825E+00
   0.74000000E+00           0.65150714E+00
   0.75000000E+00           0.65789270E+00
   0.76000000E+00           0.66280143E+00
   0.77000000E+00           0.66896603E+00
   0.78000000E+00           0.67471222E+00
   0.79000000E+00           0.67980048E+00
   0.80000000E+00           0.68473683E+00
   0.81000000E+00           0.68990000E+00
   0.82000000E+00           0.69416222E+00
   0.83000000E+00           0.69788587E+00
   0.84000000E+00           0.70185063E+00
   0.85000000E+00           0.70635175E+00
   0.86000000E+00           0.70959810E+00
   0.87000000E+00           0.71259635E+00
   0.88000000E+00           0.71582857E+00
   0.89000000E+00           0.71852492E+00
   0.90000000E+00           0.72102302E+00
   0.91000000E+00           0.72302397E+00
   0.92000000E+00           0.72536698E+00
   0.93000000E+00           0.72765079E+00
   0.94000000E+00           0.72922762E+00
   0.95000000E+00           0.73089333E+00
   0.96000000E+00           0.73218079E+00
   0.97000000E+00           0.73245921E+00
   0.98000000E+00           0.73297762E+00
   0.99000000E+00           0.73380825E+00
   0.10000000E+01           0.73412127E+00
   0.10100000E+01           0.73456413E+00
   0.10200000E+01           0.73455905E+00
   0.10300000E+01           0.73395016E+00
   0.10400000E+01           0.73300794E+00
   0.10500000E+01           0.73183429E+00
   0.10600000E+01           0.73146841E+00
   0.10700000E+01           0.73044651E+00
   0.10800000E+01           0.72866730E+00
   0.10900000E+01           0.72684635E+00
   0.11000000E+01           0.72480206E+00
   0.11100000E+01           0.72312730E+00
   0.11200000E+01           0.72151032E+00
   0.11300000E+01           0.71875317E+00
   0.11400000E+01           0.71629349E+00
   0.11500000E+01           0.71342206E+00
   0.11600000E+01           0.71093921E+00
   0.11700000E+01           0.70807111E+00
   0.11800000E+01           0.70510698E+00
   0.11900000E+01           0.70089127E+00
   0.12000000E+01           0.69751778E+00
   0.12100000E+01           0.69407095E+00
   0.12200000E+01           0.68997540E+00
   0.12300000E+01           0.68633714E+00
   0.12400000E+01           0.68221905E+00
   0.12500000E+01           0.67779095E+00
   0.12600000E+01           0.67302873E+00
   0.12700000E+01           0.66843508E+00
   0.12800000E+01           0.66414429E+00
   0.12900000E+01           0.65971619E+00
   0.13000000E+01           0.65435619E+00
   0.13100000E+01           0.64907492E+00
   0.13200000E+01           0.64398905E+00
   0.13300000E+01           0.63946190E+00
   0.13400000E+01           0.63322698E+00
   0.13500000E+01           0.62814016E+00
   0.13600000E+01           0.62176921E+00
   0.13700000E+01           0.61607524E+00
   0.13800000E+01           0.61103444E+00
   0.13900000E+01           0.60489825E+00
   0.14000000E+01           0.59912429E+00
   0.14100000E+01           0.59322270E+00
   0.14200000E+01           0.58742698E+00
   0.14300000E+01           0.58118683E+00
   0.14400000E+01           0.57495524E+00
   0.14500000E+01           0.56889524E+00
   0.14600000E+01           0.56222349E+00
   0.14700000E+01           0.55634810E+00
   0.14800000E+01           0.54954762E+00
   0.14900000E+01           0.54338730E+00
   0.15000000E+01           0.53670032E+00
   0.15100000E+01           0.53070349E+00
   0.15200000E+01           0.52358730E+00
   0.15300000E+01           0.51715238E+00
   0.15400000E+01           0.51009175E+00
   0.15500000E+01           0.50378698E+00
   0.15600000E+01           0.49670349E+00
   0.15700000E+01           0.49015079E+00
   0.15800000E+01           0.48317984E+00
   0.15900000E+01           0.47680794E+00
   0.16000000E+01           0.47053762E+00
   0.16100000E+01           0.46315857E+00
   0.16200000E+01           0.45650016E+00
   0.16300000E+01           0.44930333E+00
   0.16400000E+01           0.44326381E+00
   0.16500000E+01           0.43614095E+00
   0.16600000E+01           0.42934381E+00
   0.16700000E+01           0.42355635E+00
   0.16800000E+01           0.41661175E+00
   0.16900000E+01           0.40959603E+00
   0.17000000E+01           0.40292492E+00
   0.17100000E+01           0.39614889E+00
   0.17200000E+01           0.38945381E+00
   0.17300000E+01           0.38311286E+00
   0.17400000E+01           0.37601016E+00
   0.17500000E+01           0.36979984E+00
   0.17600000E+01           0.36322063E+00
   0.17700000E+01           0.35656286E+00
   0.17800000E+01           0.35086492E+00
   0.17900000E+01           0.34456619E+00
   0.18000000E+01           0.33766175E+00
   0.18100000E+01           0.33120667E+00
   0.18200000E+01           0.32498603E+00
   0.18300000E+01           0.31882444E+00
   0.18400000E+01           0.31266635E+00
   0.18500000E+01           0.30662810E+00
   0.18600000E+01           0.30053476E+00
   0.18700000E+01           0.29420111E+00
   0.18800000E+01           0.28824444E+00
   0.18900000E+01           0.28235032E+00
   0.19000000E+01           0.27642175E+00
   0.19100000E+01           0.27052206E+00
   0.19200000E+01           0.26480460E+00
   0.19300000E+01           0.25890746E+00
   0.19400000E+01           0.25335667E+00
   0.19500000E+01           0.24785381E+00
   0.19600000E+01           0.24234254E+00
   0.19700000E+01           0.23696683E+00
   0.19800000E+01           0.23146587E+00
   0.19900000E+01           0.22648365E+00
   0.20000000E+01           0.22081429E+00
   0.20100000E+01           0.21589095E+00
   0.20200000E+01           0.21081889E+00
   0.20300000E+01           0.20535810E+00
   0.20400000E+01           0.20019746E+00
   0.20500000E+01           0.19551841E+00
   0.20600000E+01           0.19106000E+00
   0.20700000E+01           0.18601873E+00
   0.20800000E+01           0.18140127E+00
   0.20900000E+01           0.17704111E+00
   0.21000000E+01           0.17288143E+00
   0.21100000E+01           0.16809381E+00
   0.21200000E+01           0.16382349E+00
   0.21300000E+01           0.15961746E+00
   0.21400000E+01           0.15540095E+00
   0.21500000E+01           0.15124905E+00
   0.21600000E+01           0.14763857E+00
   0.21700000E+01           0.14393302E+00
   0.21800000E+01           0.13987492E+00
   0.21900000E+01           0.13609937E+00
   0.22000000E+01           0.13247095E+00
   0.22100000E+01           0.12885175E+00
   0.22200000E+01           0.12548222E+00
   0.22300000E+01           0.12165429E+00
   0.22400000E+01           0.11842698E+00
   0.22500000E+01           0.11517873E+00
   0.22600000E+01           0.11228683E+00
   0.22700000E+01           0.10891540E+00
   0.22800000E+01           0.10611952E+00
   0.22900000E+01           0.10276333E+00
   0.23000000E+01           0.99738571E-01
   0.23100000E+01           0.96890794E-01
   0.23200000E+01           0.94156825E-01
   0.23300000E+01           0.91340317E-01
   0.23400000E+01           0.88765238E-01
   0.23500000E+01           0.85814921E-01
   0.23600000E+01           0.83374603E-01
   0.23700000E+01           0.80675079E-01
   0.23800000E+01           0.78527143E-01
   0.23900000E+01           0.76141587E-01
   0.24000000E+01           0.73788254E-01
   0.24100000E+01           0.71305397E-01
   0.24200000E+01           0.69232857E-01
   0.24300000E+01           0.67092698E-01
   0.24400000E+01           0.64938571E-01
   0.24500000E+01           0.62975873E-01
   0.24600000E+01           0.60872540E-01
   0.24700000E+01           0.58936667E-01
   0.24800000E+01           0.57107937E-01
   0.24900000E+01           0.55196984E-01
   0.25000000E+01           0.53340635E-01
   0.25100000E+01           0.51635873E-01
   0.25200000E+01           0.50172381E-01
   0.25300000E+01           0.48330476E-01
   0.25400000E+01           0.46678254E-01
   0.25500000E+01           0.45159841E-01
   0.25600000E+01           0.43695714E-01
   0.25700000E+01           0.42265556E-01
   0.25800000E+01           0.40628571E-01
   0.25900000E+01           0.39246984E-01
   0.26000000E+01           0.37921111E-01
   0.26100000E+01           0.36606508E-01
   0.26200000E+01           0.35205079E-01
   0.26300000E+01           0.34032222E-01
   0.26400000E+01           0.32868413E-01
   0.26500000E+01           0.31553333E-01
   0.26600000E+01           0.30471905E-01
   0.26700000E+01           0.29471746E-01
   0.26800000E+01           0.28344127E-01
   0.26900000E+01           0.27245397E-01
   0.27000000E+01           0.26297778E-01
   0.27100000E+01           0.25335079E-01
   0.27200000E+01           0.24386508E-01
   0.27300000E+01           0.23571746E-01
   0.27400000E+01           0.22671111E-01
   0.27500000E+01           0.21783968E-01
   0.27600000E+01           0.20851270E-01
   0.27700000E+01           0.20186349E-01
   0.27800000E+01           0.19307778E-01
   0.27900000E+01           0.18490794E-01
   0.28000000E+01           0.17831587E-01
   0.28100000E+01           0.17042698E-01
   0.28200000E+01           0.16429206E-01
   0.28300000E+01           0.15739683E-01
   0.28400000E+01           0.15119048E-01
   0.28500000E+01           0.14516984E-01
   0.28600000E+01           0.13958730E-01
   0.28700000E+01           0.13417302E-01
   0.28800000E+01           0.12851746E-01
   0.28900000E+01           0.12275238E-01
   0.29000000E+01           0.11781746E-01
   0.29100000E+01           0.11303175E-01
   0.29200000E+01           0.10769365E-01
   0.29300000E+01           0.10372063E-01
   0.29400000E+01           0.99773016E-02
   0.29500000E+01           0.94687302E-02
   0.29600000E+01           0.91017460E-02
   0.29700000E+01           0.87087302E-02
   0.29800000E+01           0.83396825E-02
   0.29900000E+01           0.78560317E-02
   0.30000000E+01           0.76001587E-02
   0.30100000E+01           0.72390476E-02
   0.30200000E+01           0.69653968E-02
   0.30300000E+01           0.66579365E-02
   0.30400000E+01           0.62677778E-02
   0.30500000E+01           0.60615873E-02
   0.30600000E+01           0.57839683E-02
   0.30700000E+01           0.55180952E-02
   0.30800000E+01           0.51931746E-02
   0.30900000E+01           0.50014286E-02
   0.31000000E+01           0.47065079E-02
   0.31100000E+01           0.44692063E-02
   0.31200000E+01           0.43122222E-02
   0.31300000E+01           0.41139683E-02
   0.31400000E+01           0.38838095E-02
   0.31500000E+01           0.36871429E-02
   0.31600000E+01           0.34950794E-02
   0.31700000E+01           0.33560317E-02
   0.31800000E+01           0.31547619E-02
   0.31900000E+01           0.30250794E-02
   0.32000000E+01           0.28257143E-02
   0.32100000E+01           0.27207937E-02
   0.32200000E+01           0.25604762E-02
   0.32300000E+01           0.24331746E-02
   0.32400000E+01           0.22966667E-02
   0.32500000E+01           0.21830159E-02
   0.32600000E+01           0.20906349E-02
   0.32700000E+01           0.19401587E-02
   0.32800000E+01           0.18630159E-02
   0.32900000E+01           0.17469841E-02
   0.33000000E+01           0.16704762E-02
   0.33100000E+01           0.15711111E-02
   0.33200000E+01           0.14688889E-02
   0.33300000E+01           0.13776190E-02
   0.33400000E+01           0.13261905E-02
   0.33500000E+01           0.12095238E-02
   0.33600000E+01           0.11549206E-02
   0.33700000E+01           0.10850794E-02
   0.33800000E+01           0.98904762E-03
   0.33900000E+01           0.98047619E-03
   0.34000000E+01           0.90761905E-03
   0.34100000E+01           0.84396825E-03
   0.34200000E+01           0.79460317E-03
   0.34300000E+01           0.72825397E-03
   0.34400000E+01           0.68079365E-03
   0.34500000E+01           0.65428571E-03
   0.34600000E+01           0.60968254E-03
   0.34700000E+01           0.56873016E-03
   0.34800000E+01           0.55174603E-03
   0.34900000E+01           0.50142857E-03
   0.35000000E+01           0.46142857E-03
   0.35100000E+01           0.42349206E-03
   0.35200000E+01           0.39793651E-03
   0.35300000E+01           0.35634921E-03
   0.35400000E+01           0.34317460E-03
   0.35500000E+01           0.32571429E-03
   0.35600000E+01           0.29682540E-03
   0.35700000E+01           0.26809524E-03
   0.35800000E+01           0.25761905E-03
   0.35900000E+01           0.23746032E-03
   0.36000000E+01           0.20984127E-03
   0.36100000E+01           0.19730159E-03
   0.36200000E+01           0.18698413E-03
   0.36300000E+01           0.15920635E-03
   0.36400000E+01           0.15095238E-03
   0.36500000E+01           0.14634921E-03
   0.36600000E+01           0.12079365E-03
   0.36700000E+01           0.12619048E-03
   0.36800000E+01           0.10587302E-03
   0.36900000E+01           0.96666667E-04
   0.37000000E+01           0.88571429E-04
   0.37100000E+01           0.77777778E-04
   0.37200000E+01           0.65396825E-04
   0.37300000E+01           0.63809524E-04
   0.37400000E+01           0.57619048E-04
   0.37500000E+01           0.52857143E-04
   0.37600000E+01           0.42857143E-04
   0.37700000E+01           0.40952381E-04
   0.37800000E+01           0.41269841E-04
   0.37900000E+01           0.34920635E-04
   0.38000000E+01           0.30000000E-04
   0.38100000E+01           0.25555556E-04
   0.38200000E+01           0.20317460E-04
   0.38300000E+01           0.17142857E-04
   0.38400000E+01           0.16507937E-04
   0.38500000E+01           0.13015873E-04
   0.38600000E+01           0.95238095E-05
   0.38700000E+01           0.87301587E-05
   0.38800000E+01           0.87301587E-05
   0.38900000E+01           0.61904762E-05
   0.39000000E+01           0.53968254E-05
   0.39100000E+01           0.42857143E-05
   0.39200000E+01           0.33333333E-05
   0.39300000E+01           0.19047619E-05
   0.39400000E+01           0.22222222E-05
   0.39500000E+01           0.14285714E-05
   0.39600000E+01           0.11111111E-05
   0.39700000E+01           0.47619048E-06
   0.39800000E+01           0.31746032E-06
   0.39900000E+01           0.15873016E-06
   0.40000000E+01           0.00000000E+00
 #T=   401.0000
  -0.40000000E+01           0.00000000E+00
  -0.39900000E+01           0.00000000E+00
  -0.39800000E+01           0.00000000E+00
  -0.39700000E+01           0.00000000E+00
  -0.39600000E+01           0.00000000E+00
  -0.39500000E+01           0.00000000E+00
  -0.39400000E+01           0.00000000E+00
  -0.39300000E+01           0.00000000E+00
  -0.39200000E+01           0.00000000E+00
  -0.39100000E+01           0.00000000E+00
  -0.39000000E+01           0.00000000E+00
  -0.38900000E+01           0.00000000E+00
  -0.38800000E+01           0.00000000E+00
  -0.38700000E+01           0.00000000E+00
  -0.38600000E+01           0.00000000E+00
  -0.38500000E+01           0.00000000E+00
  -0.38400000E+01           0.00000000E+00
  -0.38300000E+01           0.00000000E+00
  -0.38200000E+01           0.00000000E+00
  -0.38100000E+01           0.00000000E+00
  -0.38000000E+01           0.00000000E+00
  -0.37900000E+01           0.00000000E+00
  -0.37800000E+01           0.00000000E+00
  -0.37700000E+01           0.00000000E+00
  -0.37600000E+01           0.00000000E+00
  -0.37500000E+01           0.00000000E+00
  -0.37400000E+01           0.00000000E+00
  -0.37300000E+01           0.00000000E+00
  -0.37200000E+01           0.00000000E+00
  -0.37100000E+01           0.00000000E+00
  -0.37000000E+01           0.00000000E+00
  -0.36900000E+01           0.00000000E+00
  -0.36800000E+01           0.00000000E+00
  -0.36700000E+01           0.00000000E+00
  -0.36600000E+01           0.00000000E+00
  -0.36500000E+01           0.00000000E+00
  -0.36400000E+01           0.00000000E+00
  -0.36300000E+01           0.00000000E+00
  -0.36200000E+01           0.00000000E+00
  -0.36100000E+01           0.00000000E+00
  -0.36000000E+01           0.00000000E+00
  -0.35900000E+01           0.00000000E+00
  -0.35800000E+01           0.00000000E+00
  -0.35700000E+01           0.00000000E+00
  -0.35600000E+01           0.00000000E+00
  -0.35500000E+01           0.00000000E+00
  -0.35400000E+01           0.00000000E+00
  -0.35300000E+01           0.00000000E+00
  -0.35200000E+01           0.00000000E+00
  -0.35100000E+01           0.00000000E+00
  -0.35000000E+01           0.00000000E+00
  -0.34900000E+01           0.00000000E+00
  -0.34800000E+01           0.00000000E+00
  -0.34700000E+01           0.00000000E+00
  -0.34600000E+01           0.00000000E+00
  -0.34500000E+01           0.00000000E+00
  -0.34400000E+01           0.00000000E+00
  -0.34300000E+01           0.00000000E+00
  -0.34200000E+01           0.00000000E+00
  -0.34100000E+01           0.00000000E+00
  -0.34000000E+01           0.00000000E+00
  -0.33900000E+01           0.00000000E+00
  -0.33800000E+01           0.00000000E+00
  -0.33700000E+01           0.00000000E+00
  -0.33600000E+01           0.00000000E+00
  -0.33500000E+01           0.00000000E+00
  -0.33400000E+01           0.00000000E+00
  -0.33300000E+01           0.00000000E+00
  -0.33200000E+01           0.00000000E+00
  -0.33100000E+01           0.00000000E+00
  -0.33000000E+01           0.00000000E+00
  -0.32900000E+01           0.00000000E+00
  -0.32800000E+01           0.00000000E+00
  -0.32700000E+01           0.00000000E+00
  -0.32600000E+01           0.00000000E+00
  -0.32500000E+01           0.00000000E+00
  -0.32400000E+01           0.00000000E+00
  -0.32300000E+01           0.00000000E+00
  -0.32200000E+01           0.00000000E+00
  -0.32100000E+01           0.00000000E+00
  -0.32000000E+01           0.00000000E+00
  -0.31900000E+01           0.00000000E+00
  -0.31800000E+01           0.00000000E+00
  -0.31700000E+01           0.00000000E+00
  -0.31600000E+01           0.00000000E+00
  -0.31500000E+01           0.00000000E+00
  -0.31400000E+01           0.00000000E+00
  -0.31300000E+01           0.00000000E+00
  -0.31200000E+01           0.00000000E+00
  -0.31100000E+01           0.00000000E+00
  -0.31000000E+01           0.00000000E+00
  -0.30900000E+01           0.00000000E+00
  -0.30800000E+01           0.00000000E+00
  -0.30700000E+01           0.00000000E+00
  -0.30600000E+01           0.00000000E+00
  -0.30500000E+01           0.00000000E+00
  -0.30400000E+01           0.00000000E+00
  -0.30300000E+01           0.00000000E+00
  -0.30200000E+01           0.00000000E+00
  -0.30100000E+01           0.00000000E+00
  -0.30000000E+01           0.00000000E+00
  -0.29900000E+01           0.00000000E+00
  -0.29800000E+01           0.00000000E+00
  -0.29700000E+01           0.00000000E+00
  -0.29600000E+01           0.00000000E+00
  -0.29500000E+01           0.00000000E+00
  -0.29400000E+01           0.00000000E+00
  -0.29300000E+01           0.00000000E+00
  -0.29200000E+01           0.00000000E+00
  -0.29100000E+01           0.00000000E+00
  -0.29000000E+01           0.00000000E+00
  -0.28900000E+01           0.00000000E+00
  -0.28800000E+01           0.00000000E+00
  -0.28700000E+01           0.00000000E+00
  -0.28600000E+01           0.00000000E+00
  -0.28500000E+01           0.00000000E+00
  -0.28400000E+01           0.00000000E+00
  -0.28300000E+01           0.00000000E+00
  -0.28200000E+01           0.00000000E+00
  -0.28100000E+01           0.00000000E+00
  -0.28000000E+01           0.00000000E+00
  -0.27900000E+01           0.00000000E+00
  -0.27800000E+01           0.00000000E+00
  -0.27700000E+01           0.00000000E+00
  -0.27600000E+01           0.00000000E+00
  -0.27500000E+01           0.00000000E+00
  -0.27400000E+01           0.00000000E+00
  -0.27300000E+01           0.00000000E+00
  -0.27200000E+01           0.00000000E+00
  -0.27100000E+01           0.00000000E+00
  -0.27000000E+01           0.00000000E+00
  -0.26900000E+01           0.00000000E+00
  -0.26800000E+01           0.00000000E+00
  -0.26700000E+01           0.00000000E+00
  -0.26600000E+01           0.00000000E+00
  -0.26500000E+01           0.00000000E+00
  -0.26400000E+01           0.00000000E+00
  -0.26300000E+01           0.00000000E+00
  -0.26200000E+01           0.00000000E+00
  -0.26100000E+01           0.00000000E+00
  -0.26000000E+01           0.00000000E+00
  -0.25900000E+01           0.00000000E+00
  -0.25800000E+01           0.00000000E+00
  -0.25700000E+01           0.00000000E+00
  -0.25600000E+01           0.00000000E+00
  -0.25500000E+01           0.00000000E+00
  -0.25400000E+01           0.00000000E+00
  -0.25300000E+01           0.00000000E+00
  -0.25200000E+01           0.00000000E+00
  -0.25100000E+01           0.00000000E+00
  -0.25000000E+01           0.00000000E+00
  -0.24900000E+01           0.00000000E+00
  -0.24800000E+01           0.00000000E+00
  -0.24700000E+01           0.00000000E+00
  -0.24600000E+01           0.00000000E+00
  -0.24500000E+01           0.00000000E+00
  -0.24400000E+01           0.00000000E+00
  -0.24300000E+01           0.00000000E+00
  -0.24200000E+01           0.00000000E+00
  -0.24100000E+01           0.00000000E+00
  -0.24000000E+01           0.00000000E+00
  -0.23900000E+01           0.00000000E+00
  -0.23800000E+01           0.00000000E+00
  -0.23700000E+01           0.00000000E+00
  -0.23600000E+01           0.00000000E+00
  -0.23500000E+01           0.00000000E+00
  -0.23400000E+01           0.00000000E+00
  -0.23300000E+01           0.00000000E+00
  -0.23200000E+01           0.00000000E+00
  -0.23100000E+01           0.00000000E+00
  -0.23000000E+01           0.00000000E+00
  -0.22900000E+01           0.00000000E+00
  -0.22800000E+01           0.00000000E+00
  -0.22700000E+01           0.00000000E+00
  -0.22600000E+01           0.00000000E+00
  -0.22500000E+01           0.00000000E+00
  -0.22400000E+01           0.00000000E+00
  -0.22300000E+01           0.00000000E+00
  -0.22200000E+01           0.00000000E+00
  -0.22100000E+01           0.00000000E+00
  -0.22000000E+01           0.00000000E+00
  -0.21900000E+01           0.00000000E+00
  -0.21800000E+01           0.00000000E+00
  -0.21700000E+01           0.00000000E+00
  -0.21600000E+01           0.00000000E+00
  -0.21500000E+01           0.00000000E+00
  -0.21400000E+01           0.00000000E+00
  -0.21300000E+01           0.00000000E+00
  -0.21200000E+01           0.00000000E+00
  -0.21100000E+01           0.00000000E+00
  -0.21000000E+01           0.00000000E+00
  -0.20900000E+01           0.00000000E+00
  -0.20800000E+01           0.00000000E+00
  -0.20700000E+01           0.00000000E+00
  -0.20600000E+01           0.00000000E+00
  -0.20500000E+01           0.00000000E+00
  -0.20400000E+01           0.00000000E+00
  -0.20300000E+01           0.00000000E+00
  -0.20200000E+01           0.00000000E+00
  -0.20100000E+01           0.00000000E+00
  -0.20000000E+01           0.00000000E+00
  -0.19900000E+01           0.00000000E+00
  -0.19800000E+01           0.00000000E+00
  -0.19700000E+01           0.00000000E+00
  -0.19600000E+01           0.00000000E+00
  -0.19500000E+01           0.00000000E+00
  -0.19400000E+01           0.00000000E+00
  -0.19300000E+01           0.00000000E+00
  -0.19200000E+01           0.00000000E+00
  -0.19100000E+01           0.00000000E+00
  -0.19000000E+01           0.00000000E+00
  -0.18900000E+01           0.00000000E+00
  -0.18800000E+01           0.00000000E+00
  -0.18700000E+01           0.00000000E+00
  -0.18600000E+01           0.00000000E+00
  -0.18500000E+01           0.00000000E+00
  -0.18400000E+01           0.00000000E+00
  -0.18300000E+01           0.00000000E+00
  -0.18200000E+01           0.00000000E+00
  -0.18100000E+01           0.00000000E+00
  -0.18000000E+01           0.00000000E+00
  -0.17900000E+01           0.00000000E+00
  -0.17800000E+01           0.00000000E+00
  -0.17700000E+01           0.00000000E+00
  -0.17600000E+01           0.00000000E+00
  -0.17500000E+01           0.00000000E+00
  -0.17400000E+01           0.00000000E+00
  -0.17300000E+01           0.00000000E+00
  -0.17200000E+01           0.00000000E+00
  -0.17100000E+01           0.00000000E+00
  -0.17000000E+01           0.00000000E+00
  -0.16900000E+01           0.00000000E+00
  -0.16800000E+01           0.00000000E+00
  -0.16700000E+01           0.00000000E+00
  -0.16600000E+01           0.00000000E+00
  -0.16500000E+01           0.00000000E+00
  -0.16400000E+01           0.00000000E+00
  -0.16300000E+01           0.00000000E+00
  -0.16200000E+01           0.00000000E+00
  -0.16100000E+01           0.00000000E+00
  -0.16000000E+01           0.00000000E+00
  -0.15900000E+01           0.00000000E+00
  -0.15800000E+01           0.00000000E+00
  -0.15700000E+01           0.00000000E+00
  -0.15600000E+01           0.00000000E+00
  -0.15500000E+01           0.00000000E+00
  -0.15400000E+01           0.00000000E+00
  -0.15300000E+01           0.00000000E+00
  -0.15200000E+01           0.00000000E+00
  -0.15100000E+01           0.00000000E+00
  -0.15000000E+01           0.00000000E+00
  -0.14900000E+01           0.00000000E+00
  -0.14800000E+01           0.00000000E+00
  -0.14700000E+01           0.00000000E+00
  -0.14600000E+01           0.00000000E+00
  -0.14500000E+01           0.00000000E+00
  -0.14400000E+01           0.00000000E+00
  -0.14300000E+01           0.00000000E+00
  -0.14200000E+01           0.00000000E+00
  -0.14100000E+01           0.00000000E+00
  -0.14000000E+01           0.00000000E+00
  -0.13900000E+01           0.00000000E+00
  -0.13800000E+01           0.00000000E+00
  -0.13700000E+01           0.00000000E+00
  -0.13600000E+01           0.00000000E+00
  -0.13500000E+01           0.00000000E+00
  -0.13400000E+01           0.00000000E+00
  -0.13300000E+01           0.00000000E+00
  -0.13200000E+01           0.00000000E+00
  -0.13100000E+01           0.00000000E+00
  -0.13000000E+01           0.00000000E+00
  -0.12900000E+01           0.00000000E+00
  -0.12800000E+01           0.00000000E+00
  -0.12700000E+01           0.00000000E+00
  -0.12600000E+01           0.00000000E+00
  -0.12500000E+01           0.00000000E+00
  -0.12400000E+01           0.00000000E+00
  -0.12300000E+01           0.00000000E+00
  -0.12200000E+01           0.00000000E+00
  -0.12100000E+01           0.00000000E+00
  -0.12000000E+01           0.00000000E+00
  -0.11900000E+01           0.00000000E+00
  -0.11800000E+01           0.00000000E+00
  -0.11700000E+01           0.00000000E+00
  -0.11600000E+01           0.00000000E+00
  -0.11500000E+01           0.00000000E+00
  -0.11400000E+01           0.00000000E+00
  -0.11300000E+01           0.00000000E+00
  -0.11200000E+01           0.00000000E+00
  -0.11100000E+01           0.00000000E+00
  -0.11000000E+01           0.00000000E+00
  -0.10900000E+01           0.00000000E+00
  -0.10800000E+01           0.00000000E+00
  -0.10700000E+01           0.00000000E+00
  -0.10600000E+01           0.00000000E+00
  -0.10500000E+01           0.00000000E+00
  -0.10400000E+01           0.00000000E+00
  -0.10300000E+01           0.00000000E+00
  -0.10200000E+01           0.00000000E+00
  -0.10100000E+01           0.00000000E+00
  -0.10000000E+01           0.00000000E+00
  -0.99000000E+00           0.00000000E+00
  -0.98000000E+00           0.00000000E+00
  -0.97000000E+00           0.00000000E+00
  -0.96000000E+00           0.00000000E+00
  -0.95000000E+00           0.00000000E+00
  -0.94000000E+00           0.00000000E+00
  -0.93000000E+00           0.00000000E+00
  -0.92000000E+00           0.00000000E+00
  -0.91000000E+00           0.00000000E+00
  -0.90000000E+00           0.00000000E+00
  -0.89000000E+00           0.00000000E+00
  -0.88000000E+00           0.00000000E+00
  -0.87000000E+00           0.00000000E+00
  -0.86000000E+00           0.00000000E+00
  -0.85000000E+00           0.00000000E+00
  -0.84000000E+00           0.00000000E+00
  -0.83000000E+00           0.00000000E+00
  -0.82000000E+00           0.00000000E+00
  -0.81000000E+00           0.00000000E+00
  -0.80000000E+00           0.00000000E+00
  -0.79000000E+00           0.00000000E+00
  -0.78000000E+00           0.00000000E+00
  -0.77000000E+00           0.00000000E+00
  -0.76000000E+00           0.00000000E+00
  -0.75000000E+00           0.00000000E+00
  -0.74000000E+00           0.00000000E+00
  -0.73000000E+00           0.00000000E+00
  -0.72000000E+00           0.00000000E+00
  -0.71000000E+00           0.00000000E+00
  -0.70000000E+00           0.00000000E+00
  -0.69000000E+00           0.00000000E+00
  -0.68000000E+00           0.00000000E+00
  -0.67000000E+00           0.00000000E+00
  -0.66000000E+00           0.00000000E+00
  -0.65000000E+00           0.00000000E+00
  -0.64000000E+00           0.00000000E+00
  -0.63000000E+00           0.00000000E+00
  -0.62000000E+00           0.00000000E+00
  -0.61000000E+00           0.00000000E+00
  -0.60000000E+00           0.00000000E+00
  -0.59000000E+00           0.00000000E+00
  -0.58000000E+00           0.00000000E+00
  -0.57000000E+00           0.00000000E+00
  -0.56000000E+00           0.00000000E+00
  -0.55000000E+00           0.00000000E+00
  -0.54000000E+00           0.00000000E+00
  -0.53000000E+00           0.00000000E+00
  -0.52000000E+00           0.00000000E+00
  -0.51000000E+00           0.00000000E+00
  -0.50000000E+00           0.00000000E+00
  -0.49000000E+00           0.00000000E+00
  -0.48000000E+00           0.00000000E+00
  -0.47000000E+00           0.00000000E+00
  -0.46000000E+00           0.00000000E+00
  -0.45000000E+00           0.00000000E+00
  -0.44000000E+00           0.00000000E+00
  -0.43000000E+00           0.00000000E+00
  -0.42000000E+00           0.00000000E+00
  -0.41000000E+00           0.00000000E+00
  -0.40000000E+00           0.00000000E+00
  -0.39000000E+00           0.00000000E+00
  -0.38000000E+00           0.00000000E+00
  -0.37000000E+00           0.00000000E+00
  -0.36000000E+00           0.00000000E+00
  -0.35000000E+00           0.00000000E+00
  -0.34000000E+00           0.00000000E+00
  -0.33000000E+00           0.00000000E+00
  -0.32000000E+00           0.00000000E+00
  -0.31000000E+00           0.00000000E+00
  -0.30000000E+00           0.00000000E+00
  -0.29000000E+00           0.00000000E+00
  -0.28000000E+00           0.00000000E+00
  -0.27000000E+00           0.00000000E+00
  -0.26000000E+00           0.00000000E+00
  -0.25000000E+00           0.00000000E+00
  -0.24000000E+00           0.00000000E+00
  -0.23000000E+00           0.00000000E+00
  -0.22000000E+00           0.00000000E+00
  -0.21000000E+00           0.00000000E+00
  -0.20000000E+00           0.00000000E+00
  -0.19000000E+00           0.00000000E+00
  -0.18000000E+00           0.00000000E+00
  -0.17000000E+00           0.00000000E+00
  -0.16000000E+00           0.00000000E+00
  -0.15000000E+00           0.00000000E+00
  -0.14000000E+00           0.00000000E+00
  -0.13000000E+00           0.00000000E+00
  -0.12000000E+00           0.00000000E+00
  -0.11000000E+00           0.00000000E+00
  -0.10000000E+00           0.00000000E+00
  -0.90000000E-01           0.00000000E+00
  -0.80000000E-01           0.00000000E+00
  -0.70000000E-01           0.00000000E+00
  -0.60000000E-01           0.00000000E+00
  -0.50000000E-01           0.00000000E+00
  -0.40000000E-01           0.00000000E+00
  -0.30000000E-01           0.00000000E+00
  -0.20000000E-01           0.00000000E+00
  -0.10000000E-01           0.00000000E+00
   0.00000000E+00           0.13650794E-04
   0.10000000E-01           0.37968254E-03
   0.20000000E-01           0.14036508E-02
   0.30000000E-01           0.31333333E-02
   0.40000000E-01           0.54549206E-02
   0.50000000E-01           0.83436508E-02
   0.60000000E-01           0.11943175E-01
   0.70000000E-01           0.16012540E-01
   0.80000000E-01           0.20593175E-01
   0.90000000E-01           0.25753333E-01
   0.10000000E+00           0.31240952E-01
   0.11000000E+00           0.37376349E-01
   0.12000000E+00           0.43901270E-01
   0.13000000E+00           0.50758889E-01
   0.14000000E+00           0.58175397E-01
   0.15000000E+00           0.65949048E-01
   0.16000000E+00           0.73964127E-01
   0.17000000E+00           0.82121587E-01
   0.18000000E+00           0.90992698E-01
   0.19000000E+00           0.10010349E+00
   0.20000000E+00           0.10920762E+00
   0.21000000E+00           0.11898635E+00
   0.22000000E+00           0.12870794E+00
   0.23000000E+00           0.13828444E+00
   0.24000000E+00           0.14893952E+00
   0.25000000E+00           0.15931952E+00
   0.26000000E+00           0.16983381E+00
   0.27000000E+00           0.18035810E+00
   0.28000000E+00           0.19133016E+00
   0.29000000E+00           0.20250810E+00
   0.30000000E+00           0.21337889E+00
   0.31000000E+00           0.22445540E+00
   0.32000000E+00           0.23567111E+00
   0.33000000E+00           0.24730095E+00
   0.34000000E+00           0.25839476E+00
   0.35000000E+00           0.27041270E+00
   0.36000000E+00           0.28130651E+00
   0.37000000E+00           0.29311127E+00
   0.38000000E+00           0.30463397E+00
   0.39000000E+00           0.31625127E+00
   0.40000000E+00           0.32755222E+00
   0.41000000E+00           0.33918683E+00
   0.42000000E+00           0.35108635E+00
   0.43000000E+00           0.36246524E+00
   0.44000000E+00           0.37330429E+00
   0.45000000E+00           0.38461857E+00
   0.46000000E+00           0.39557333E+00
   0.47000000E+00           0.40681524E+00
   0.48000000E+00           0.41804254E+00
   0.49000000E+00           0.42888730E+00
   0.50000000E+00           0.43969238E+00
   0.51000000E+00           0.45026968E+00
   0.52000000E+00           0.46063635E+00
   0.53000000E+00           0.47093127E+00
   0.54000000E+00           0.48155175E+00
   0.55000000E+00           0.49204238E+00
   0.56000000E+00           0.50139794E+00
   0.57000000E+00           0.51215460E+00
   0.58000000E+00           0.52066746E+00
   0.59000000E+00           0.53029429E+00
   0.60000000E+00           0.54020794E+00
   0.61000000E+00           0.54879063E+00
   0.62000000E+00           0.55806603E+00
   0.63000000E+00           0.56627095E+00
   0.64000000E+00           0.57494492E+00
   0.65000000E+00           0.58335762E+00
   0.66000000E+00           0.59200714E+00
   0.67000000E+00           0.59965540E+00
   0.68000000E+00           0.60725190E+00
   0.69000000E+00           0.61500651E+00
   0.70000000E+00           0.62204683E+00
   0.71000000E+00           0.62955476E+00
   0.72000000E+00           0.63679286E+00
   0.73000000E+00           0.64310032E+00
   0.74000000E+00           0.64907810E+00
   0.75000000E+00           0.65589444E+00
   0.76000000E+00           0.66156302E+00
   0.77000000E+00           0.66663841E+00
   0.78000000E+00           0.67153524E+00
   0.79000000E+00           0.67724444E+00
   0.80000000E+00           0.68274095E+00
   0.81000000E+00           0.68768127E+00
   0.82000000E+00           0.69267429E+00
   0.83000000E+00           0.69712571E+00
   0.84000000E+00           0.70039778E+00
   0.85000000E+00           0.70441190E+00
   0.86000000E+00           0.70770127E+00
   0.87000000E+00           0.71062143E+00
   0.88000000E+00           0.71373206E+00
   0.89000000E+00           0.71606238E+00
   0.90000000E+00           0.71959651E+00
   0.91000000E+00           0.72206000E+00
   0.92000000E+00           0.72376540E+00
   0.93000000E+00           0.72542476E+00
   0.94000000E+00           0.72761714E+00
   0.95000000E+00           0.72903333E+00
   0.96000000E+00           0.72981444E+00
   0.97000000E+00           0.73124286E+00
   0.98000000E+00           0.73273032E+00
   0.99000000E+00           0.73237651E+00
   0.10000000E+01           0.73346730E+00
   0.10100000E+01           0.73309571E+00
   0.10200000E+01           0.73267127E+00
   0.10300000E+01           0.73264952E+00
   0.10400000E+01           0.73225286E+00
   0.10500000E+01           0.73177571E+00
   0.10600000E+01           0.73036175E+00
   0.10700000E+01           0.72939857E+00
   0.10800000E+01           0.72769683E+00
   0.10900000E+01           0.72649460E+00
   0.11000000E+01           0.72474952E+00
   0.11100000E+01           0.72262730E+00
   0.11200000E+01           0.72090841E+00
   0.11300000E+01           0.71825175E+00
   0.11400000E+01           0.71656238E+00
   0.11500000E+01           0.71352429E+00
   0.11600000E+01           0.71116190E+00
   0.11700000E+01           0.70707302E+00
   0.11800000E+01           0.70446889E+00
   0.11900000E+01           0.70047159E+00
   0.12000000E+01           0.69724238E+00
   0.12100000E+01           0.69343651E+00
   0.12200000E+01           0.69064841E+00
   0.12300000E+01           0.68553143E+00
   0.12400000E+01           0.68198778E+00
   0.12500000E+01           0.67771270E+00
   0.12600000E+01           0.67300778E+00
   0.12700000E+01           0.66861937E+00
   0.12800000E+01           0.66417175E+00
   0.12900000E+01           0.65981159E+00
   0.13000000E+01           0.65480175E+00
   0.13100000E+01           0.64962286E+00
   0.13200000E+01           0.64399857E+00
   0.13300000E+01           0.63984683E+00
   0.13400000E+01           0.63368698E+00
   0.13500000E+01           0.62851063E+00
   0.13600000E+01           0.62250270E+00
   0.13700000E+01           0.61725683E+00
   0.13800000E+01           0.61159492E+00
   0.13900000E+01           0.60591905E+00
   0.14000000E+01           0.60001429E+00
   0.14100000E+01           0.59409667E+00
   0.14200000E+01           0.58798349E+00
   0.14300000E+01           0.58200413E+00
   0.14400000E+01           0.57573397E+00
   0.14500000E+01           0.56942413E+00
   0.14600000E+01           0.56379937E+00
   0.14700000E+01           0.55706111E+00
   0.14800000E+01           0.55099270E+00
   0.14900000E+01           0.54415683E+00
   0.15000000E+01           0.53838111E+00
   0.15100000E+01           0.53093619E+00
   0.15200000E+01           0.52434571E+00
   0.15300000E+01           0.51825508E+00
   0.15400000E+01           0.51115603E+00
   0.15500000E+01           0.50491603E+00
   0.15600000E+01           0.49839873E+00
   0.15700000E+01           0.49151714E+00
   0.15800000E+01           0.48527603E+00
   0.15900000E+01           0.47853302E+00
   0.16000000E+01           0.47123254E+00
   0.16100000E+01           0.46464175E+00
   0.16200000E+01           0.45809746E+00
   0.16300000E+01           0.45203556E+00
   0.16400000E+01           0.44451540E+00
   0.16500000E+01           0.43787746E+00
   0.16600000E+01           0.43104127E+00
   0.16700000E+01           0.42479825E+00
   0.16800000E+01           0.41719873E+00
   0.16900000E+01           0.41107460E+00
   0.17000000E+01           0.40431619E+00
   0.17100000E+01           0.39795952E+00
   0.17200000E+01           0.39133556E+00
   0.17300000E+01           0.38506444E+00
   0.17400000E+01           0.37785111E+00
   0.17500000E+01           0.37165714E+00
   0.17600000E+01           0.36467762E+00
   0.17700000E+01           0.35886143E+00
   0.17800000E+01           0.35207206E+00
   0.17900000E+01           0.34576683E+00
   0.18000000E+01           0.33968857E+00
   0.18100000E+01           0.33284190E+00
   0.18200000E+01           0.32656889E+00
   0.18300000E+01           0.32049683E+00
   0.18400000E+01           0.31423619E+00
   0.18500000E+01           0.30826952E+00
   0.18600000E+01           0.30193270E+00
   0.18700000E+01           0.29591000E+00
   0.18800000E+01           0.28973873E+00
   0.18900000E+01           0.28415667E+00
   0.19000000E+01           0.27831016E+00
   0.19100000E+01           0.27205063E+00
   0.19200000E+01           0.26657254E+00
   0.19300000E+01           0.26082095E+00
   0.19400000E+01           0.25534016E+00
   0.19500000E+01           0.24942952E+00
   0.19600000E+01           0.24407206E+00
   0.19700000E+01           0.23856810E+00
   0.19800000E+01           0.23268524E+00
   0.19900000E+01           0.22783143E+00
   0.20000000E+01           0.22242190E+00
   0.20100000E+01           0.21736111E+00
   0.20200000E+01           0.21212651E+00
   0.20300000E+01           0.20659413E+00
   0.20400000E+01           0.20168270E+00
   0.20500000E+01           0.19687524E+00
   0.20600000E+01           0.19203429E+00
   0.20700000E+01           0.18764921E+00
   0.20800000E+01           0.18280603E+00
   0.20900000E+01           0.17848889E+00
   0.21000000E+01           0.17398492E+00
   0.21100000E+01           0.16966762E+00
   0.21200000E+01           0.16534556E+00
   0.21300000E+01           0.16100683E+00
   0.21400000E+01           0.15678270E+00
   0.21500000E+01           0.15289540E+00
   0.21600000E+01           0.14872206E+00
   0.21700000E+01           0.14483413E+00
   0.21800000E+01           0.14088460E+00
   0.21900000E+01           0.13724984E+00
   0.22000000E+01           0.13347063E+00
   0.22100000E+01           0.12982524E+00
   0.22200000E+01           0.12669175E+00
   0.22300000E+01           0.12301143E+00
   0.22400000E+01           0.11956476E+00
   0.22500000E+01           0.11640175E+00
   0.22600000E+01           0.11302476E+00
   0.22700000E+01           0.11007032E+00
   0.22800000E+01           0.10689746E+00
   0.22900000E+01           0.10376841E+00
   0.23000000E+01           0.10061238E+00
   0.23100000E+01           0.97911905E-01
   0.23200000E+01           0.94898095E-01
   0.23300000E+01           0.91942540E-01
   0.23400000E+01           0.89401111E-01
   0.23500000E+01           0.86632540E-01
   0.23600000E+01           0.84321111E-01
   0.23700000E+01           0.81901746E-01
   0.23800000E+01           0.79230159E-01
   0.23900000E+01           0.76803810E-01
   0.24000000E+01           0.74441270E-01
   0.24100000E+01           0.72347460E-01
   0.24200000E+01           0.70082222E-01
   0.24300000E+01           0.67896190E-01
   0.24400000E+01           0.65725714E-01
   0.24500000E+01           0.63667937E-01
   0.24600000E+01           0.61614762E-01
   0.24700000E+01           0.59810794E-01
   0.24800000E+01           0.57834127E-01
   0.24900000E+01           0.55908889E-01
   0.25000000E+01           0.54083810E-01
   0.25100000E+01           0.52373016E-01
   0.25200000E+01           0.50460794E-01
   0.25300000E+01           0.48910952E-01
   0.25400000E+01           0.47270000E-01
   0.25500000E+01           0.45669365E-01
   0.25600000E+01           0.44150794E-01
   0.25700000E+01           0.42461429E-01
   0.25800000E+01           0.41135714E-01
   0.25900000E+01           0.39792698E-01
   0.26000000E+01           0.38467460E-01
   0.26100000E+01           0.37021587E-01
   0.26200000E+01           0.35805556E-01
   0.26300000E+01           0.34586984E-01
   0.26400000E+01           0.33189365E-01
   0.26500000E+01           0.32078254E-01
   0.26600000E+01           0.31064603E-01
   0.26700000E+01           0.29827937E-01
   0.26800000E+01           0.28672381E-01
   0.26900000E+01           0.27761746E-01
   0.27000000E+01           0.26679524E-01
   0.27100000E+01           0.25644127E-01
   0.27200000E+01           0.24661905E-01
   0.27300000E+01           0.23771111E-01
   0.27400000E+01           0.22991429E-01
   0.27500000E+01           0.22026032E-01
   0.27600000E+01           0.21293968E-01
   0.27700000E+01           0.20312063E-01
   0.27800000E+01           0.19633175E-01
   0.27900000E+01           0.18816032E-01
   0.28000000E+01           0.18185556E-01
   0.28100000E+01           0.17387937E-01
   0.28200000E+01           0.16688413E-01
   0.28300000E+01           0.16111587E-01
   0.28400000E+01           0.15435556E-01
   0.28500000E+01           0.14861270E-01
   0.28600000E+01           0.14309683E-01
   0.28700000E+01           0.13535714E-01
   0.28800000E+01           0.13057937E-01
   0.28900000E+01           0.12510952E-01
   0.29000000E+01           0.12046825E-01
   0.29100000E+01           0.11506349E-01
   0.29200000E+01           0.10971905E-01
   0.29300000E+01           0.10547937E-01
   0.29400000E+01           0.10146667E-01
   0.29500000E+01           0.96587302E-02
   0.29600000E+01           0.92292063E-02
   0.29700000E+01           0.88623810E-02
   0.29800000E+01           0.84706349E-02
   0.29900000E+01           0.81144444E-02
   0.30000000E+01           0.78088889E-02
   0.30100000E+01           0.73290476E-02
   0.30200000E+01           0.70931746E-02
   0.30300000E+01           0.67671429E-02
   0.30400000E+01           0.64558730E-02
   0.30500000E+01           0.61044444E-02
   0.30600000E+01           0.58207937E-02
   0.30700000E+01           0.55877778E-02
   0.30800000E+01           0.53030159E-02
   0.30900000E+01           0.50876190E-02
   0.31000000E+01           0.48301587E-02
   0.31100000E+01           0.45920635E-02
   0.31200000E+01           0.43365079E-02
   0.31300000E+01           0.41928571E-02
   0.31400000E+01           0.39230159E-02
   0.31500000E+01           0.37631746E-02
   0.31600000E+01           0.35755556E-02
   0.31700000E+01           0.34088889E-02
   0.31800000E+01           0.32049206E-02
   0.31900000E+01           0.30625397E-02
   0.32000000E+01           0.29431746E-02
   0.32100000E+01           0.27765079E-02
   0.32200000E+01           0.26147619E-02
   0.32300000E+01           0.24939683E-02
   0.32400000E+01           0.23434921E-02
   0.32500000E+01           0.22252381E-02
   0.32600000E+01           0.21039683E-02
   0.32700000E+01           0.19992063E-02
   0.32800000E+01           0.18658730E-02
   0.32900000E+01           0.17874603E-02
   0.33000000E+01           0.16865079E-02
   0.33100000E+01           0.15965079E-02
   0.33200000E+01           0.14777778E-02
   0.33300000E+01           0.13982540E-02
   0.33400000E+01           0.13326984E-02
   0.33500000E+01           0.12758730E-02
   0.33600000E+01           0.11925397E-02
   0.33700000E+01           0.11101587E-02
   0.33800000E+01           0.10506349E-02
   0.33900000E+01           0.99730159E-03
   0.34000000E+01           0.94079365E-03
   0.34100000E+01           0.88269841E-03
   0.34200000E+01           0.83619048E-03
   0.34300000E+01           0.75682540E-03
   0.34400000E+01           0.72492063E-03
   0.34500000E+01           0.68650794E-03
   0.34600000E+01           0.63507937E-03
   0.34700000E+01           0.59761905E-03
   0.34800000E+01           0.55126984E-03
   0.34900000E+01           0.50920635E-03
   0.35000000E+01           0.47761905E-03
   0.35100000E+01           0.45285714E-03
   0.35200000E+01           0.41428571E-03
   0.35300000E+01           0.37777778E-03
   0.35400000E+01           0.35317460E-03
   0.35500000E+01           0.32650794E-03
   0.35600000E+01           0.30301587E-03
   0.35700000E+01           0.27634921E-03
   0.35800000E+01           0.24777778E-03
   0.35900000E+01           0.24190476E-03
   0.36000000E+01           0.21333333E-03
   0.36100000E+01           0.20714286E-03
   0.36200000E+01           0.18015873E-03
   0.36300000E+01           0.18047619E-03
   0.36400000E+01           0.15952381E-03
   0.36500000E+01           0.14396825E-03
   0.36600000E+01           0.13825397E-03
   0.36700000E+01           0.12428571E-03
   0.36800000E+01           0.11079365E-03
   0.36900000E+01           0.98412698E-04
   0.37000000E+01           0.92063492E-04
   0.37100000E+01           0.92380952E-04
   0.37200000E+01           0.84126984E-04
   0.37300000E+01           0.61269841E-04
   0.37400000E+01           0.62222222E-04
   0.37500000E+01           0.57619048E-04
   0.37600000E+01           0.53174603E-04
   0.37700000E+01           0.46825397E-04
   0.37800000E+01           0.40952381E-04
   0.37900000E+01           0.32857143E-04
   0.38000000E+01           0.28095238E-04
   0.38100000E+01           0.23333333E-04
   0.38200000E+01           0.25555556E-04
   0.38300000E+01           0.16507937E-04
   0.38400000E+01           0.19682540E-04
   0.38500000E+01           0.13333333E-04
   0.38600000E+01           0.13333333E-04
   0.38700000E+01           0.98412698E-05
   0.38800000E+01           0.87301587E-05
   0.38900000E+01           0.61904762E-05
   0.39000000E+01           0.55555556E-05
   0.39100000E+01           0.44444444E-05
   0.39200000E+01           0.39682540E-05
   0.39300000E+01           0.25396825E-05
   0.39400000E+01           0.95238095E-06
   0.39500000E+01           0.79365079E-06
   0.39600000E+01           0.47619048E-06
   0.39700000E+01           0.15873016E-06
   0.39800000E+01           0.00000000E+00
   0.39900000E+01           0.00000000E+00
   0.40000000E+01           0.00000000E+00
 #T=   402.0000
  -0.40000000E+01           0.00000000E+00
  -0.39900000E+01           0.00000000E+00
  -0.39800000E+01           0.00000000E+00
  -0.39700000E+01           0.00000000E+00
  -0.39600000E+01           0.00000000E+00
  -0.39500000E+01           0.00000000E+00
  -0.39400000E+01           0.00000000E+00
  -0.39300000E+01           0.00000000E+00
  -0.39200000E+01           0.00000000E+00
  -0.39100000E+01           0.00000000E+00
  -0.39000000E+01           0.00000000E+00
  -0.38900000E+01           0.00000000E+00
  -0.38800000E+01           0.00000000E+00
  -0.38700000E+01           0.00000000E+00
  -0.38600000E+01           0.00000000E+00
  -0.38500000E+01           0.00000000E+00
  -0.38400000E+01           0.00000000E+00
  -0.38300000E+01           0.00000000E+00
  -0.38200000E+01           0.00000000E+00
  -0.38100000E+01           0.00000000E+00
  -0.38000000E+01           0.00000000E+00
  -0.37900000E+01           0.00000000E+00
  -0.37800000E+01           0.00000000E+00
  -0.37700000E+01           0.00000000E+00
  -0.37600000E+01           0.00000000E+00
  -0.37500000E+01           0.00000000E+00
  -0.37400000E+01           0.00000000E+00
  -0.37300000E+01           0.00000000E+00
  -0.37200000E+01           0.00000000E+00
  -0.37100000E+01           0.00000000E+00
  -0.37000000E+01           0.00000000E+00
  -0.36900000E+01           0.00000000E+00
  -0.36800000E+01           0.00000000E+00
  -0.36700000E+01           0.00000000E+00
  -0.36600000E+01           0.00000000E+00
  -0.36500000E+01           0.00000000E+00
  -0.36400000E+01           0.00000000E+00
  -0.36300000E+01           0.00000000E+00
  -0.36200000E+01           0.00000000E+00
  -0.36100000E+01           0.00000000E+00
  -0.36000000E+01           0.00000000E+00
  -0.35900000E+01           0.00000000E+00
  -0.35800000E+01           0.00000000E+00
  -0.35700000E+01           0.00000000E+00
  -0.35600000E+01           0.00000000E+00
  -0.35500000E+01           0.00000000E+00
  -0.35400000E+01           0.00000000E+00
  -0.35300000E+01           0.00000000E+00
  -0.35200000E+01           0.00000000E+00
  -0.35100000E+01           0.00000000E+00
  -0.35000000E+01           0.00000000E+00
  -0.34900000E+01           0.00000000E+00
  -0.34800000E+01           0.00000000E+00
  -0.34700000E+01           0.00000000E+00
  -0.34600000E+01           0.00000000E+00
  -0.34500000E+01           0.00000000E+00
  -0.34400000E+01           0.00000000E+00
  -0.34300000E+01           0.00000000E+00
  -0.34200000E+01           0.00000000E+00
  -0.34100000E+01           0.00000000E+00
  -0.34000000E+01           0.00000000E+00
  -0.33900000E+01           0.00000000E+00
  -0.33800000E+01           0.00000000E+00
  -0.33700000E+01           0.00000000E+00
  -0.33600000E+01           0.00000000E+00
  -0.33500000E+01           0.00000000E+00
  -0.33400000E+01           0.00000000E+00
  -0.33300000E+01           0.00000000E+00
  -0.33200000E+01           0.00000000E+00
  -0.33100000E+01           0.00000000E+00
  -0.33000000E+01           0.00000000E+00
  -0.32900000E+01           0.00000000E+00
  -0.32800000E+01           0.00000000E+00
  -0.32700000E+01           0.00000000E+00
  -0.32600000E+01           0.00000000E+00
  -0.32500000E+01           0.00000000E+00
  -0.32400000E+01           0.00000000E+00
  -0.32300000E+01           0.00000000E+00
  -0.32200000E+01           0.00000000E+00
  -0.32100000E+01           0.00000000E+00
  -0.32000000E+01           0.00000000E+00
  -0.31900000E+01           0.00000000E+00
  -0.31800000E+01           0.00000000E+00
  -0.31700000E+01           0.00000000E+00
  -0.31600000E+01           0.00000000E+00
  -0.31500000E+01           0.00000000E+00
  -0.31400000E+01           0.00000000E+00
  -0.31300000E+01           0.00000000E+00
  -0.31200000E+01           0.00000000E+00
  -0.31100000E+01           0.00000000E+00
  -0.31000000E+01           0.00000000E+00
  -0.30900000E+01           0.00000000E+00
  -0.30800000E+01           0.00000000E+00
  -0.30700000E+01           0.00000000E+00
  -0.30600000E+01           0.00000000E+00
  -0.30500000E+01           0.00000000E+00
  -0.30400000E+01           0.00000000E+00
  -0.30300000E+01           0.00000000E+00
  -0.30200000E+01           0.00000000E+00
  -0.30100000E+01           0.00000000E+00
  -0.30000000E+01           0.00000000E+00
  -0.29900000E+01           0.00000000E+00
  -0.29800000E+01           0.00000000E+00
  -0.29700000E+01           0.00000000E+00
  -0.29600000E+01           0.00000000E+00
  -0.29500000E+01           0.00000000E+00
  -0.29400000E+01           0.00000000E+00
  -0.29300000E+01           0.00000000E+00
  -0.29200000E+01           0.00000000E+00
  -0.29100000E+01           0.00000000E+00
  -0.29000000E+01           0.00000000E+00
  -0.28900000E+01           0.00000000E+00
  -0.28800000E+01           0.00000000E+00
  -0.28700000E+01           0.00000000E+00
  -0.28600000E+01           0.00000000E+00
  -0.28500000E+01           0.00000000E+00
  -0.28400000E+01           0.00000000E+00
  -0.28300000E+01           0.00000000E+00
  -0.28200000E+01           0.00000000E+00
  -0.28100000E+01           0.00000000E+00
  -0.28000000E+01           0.00000000E+00
  -0.27900000E+01           0.00000000E+00
  -0.27800000E+01           0.00000000E+00
  -0.27700000E+01           0.00000000E+00
  -0.27600000E+01           0.00000000E+00
  -0.27500000E+01           0.00000000E+00
  -0.27400000E+01           0.00000000E+00
  -0.27300000E+01           0.00000000E+00
  -0.27200000E+01           0.00000000E+00
  -0.27100000E+01           0.00000000E+00
  -0.27000000E+01           0.00000000E+00
  -0.26900000E+01           0.00000000E+00
  -0.26800000E+01           0.00000000E+00
  -0.26700000E+01           0.00000000E+00
  -0.26600000E+01           0.00000000E+00
  -0.26500000E+01           0.00000000E+00
  -0.26400000E+01           0.00000000E+00
  -0.26300000E+01           0.00000000E+00
  -0.26200000E+01           0.00000000E+00
  -0.26100000E+01           0.00000000E+00
  -0.26000000E+01           0.00000000E+00
  -0.25900000E+01           0.00000000E+00
  -0.25800000E+01           0.00000000E+00
  -0.25700000E+01           0.00000000E+00
  -0.25600000E+01           0.00000000E+00
  -0.25500000E+01           0.00000000E+00
  -0.25400000E+01           0.00000000E+00
  -0.25300000E+01           0.00000000E+00
  -0.25200000E+01           0.00000000E+00
  -0.25100000E+01           0.00000000E+00
  -0.25000000E+01           0.00000000E+00
  -0.24900000E+01           0.00000000E+00
  -0.24800000E+01           0.00000000E+00
  -0.24700000E+01           0.00000000E+00
  -0.24600000E+01           0.00000000E+00
  -0.24500000E+01           0.00000000E+00
  -0.24400000E+01           0.00000000E+00
  -0.24300000E+01           0.00000000E+00
  -0.24200000E+01           0.00000000E+00
  -0.24100000E+01           0.00000000E+00
  -0.24000000E+01           0.00000000E+00
  -0.23900000E+01           0.00000000E+00
  -0.23800000E+01           0.00000000E+00
  -0.23700000E+01           0.00000000E+00
  -0.23600000E+01           0.00000000E+00
  -0.23500000E+01           0.00000000E+00
  -0.23400000E+01           0.00000000E+00
  -0.23300000E+01           0.00000000E+00
  -0.23200000E+01           0.00000000E+00
  -0.23100000E+01           0.00000000E+00
  -0.23000000E+01           0.00000000E+00
  -0.22900000E+01           0.00000000E+00
  -0.22800000E+01           0.00000000E+00
  -0.22700000E+01           0.00000000E+00
  -0.22600000E+01           0.00000000E+00
  -0.22500000E+01           0.00000000E+00
  -0.22400000E+01           0.00000000E+00
  -0.22300000E+01           0.00000000E+00
  -0.22200000E+01           0.00000000E+00
  -0.22100000E+01           0.00000000E+00
  -0.22000000E+01           0.00000000E+00
  -0.21900000E+01           0.00000000E+00
  -0.21800000E+01           0.00000000E+00
  -0.21700000E+01           0.00000000E+00
  -0.21600000E+01           0.00000000E+00
  -0.21500000E+01           0.00000000E+00
  -0.21400000E+01           0.00000000E+00
  -0.21300000E+01           0.00000000E+00
  -0.21200000E+01           0.00000000E+00
  -0.21100000E+01           0.00000000E+00
  -0.21000000E+01           0.00000000E+00
  -0.20900000E+01           0.00000000E+00
  -0.20800000E+01           0.00000000E+00
  -0.20700000E+01           0.00000000E+00
  -0.20600000E+01           0.00000000E+00
  -0.20500000E+01           0.00000000E+00
  -0.20400000E+01           0.00000000E+00
  -0.20300000E+01           0.00000000E+00
  -0.20200000E+01           0.00000000E+00
  -0.20100000E+01           0.00000000E+00
  -0.20000000E+01           0.00000000E+00
  -0.19900000E+01           0.00000000E+00
  -0.19800000E+01           0.00000000E+00
  -0.19700000E+01           0.00000000E+00
  -0.19600000E+01           0.00000000E+00
  -0.19500000E+01           0.00000000E+00
  -0.19400000E+01           0.00000000E+00
  -0.19300000E+01           0.00000000E+00
  -0.19200000E+01           0.00000000E+00
  -0.19100000E+01           0.00000000E+00
  -0.19000000E+01           0.00000000E+00
  -0.18900000E+01           0.00000000E+00
  -0.18800000E+01           0.00000000E+00
  -0.18700000E+01           0.00000000E+00
  -0.18600000E+01           0.00000000E+00
  -0.18500000E+01           0.00000000E+00
  -0.18400000E+01           0.00000000E+00
  -0.18300000E+01           0.00000000E+00
  -0.18200000E+01           0.00000000E+00
  -0.18100000E+01           0.00000000E+00
  -0.18000000E+01           0.00000000E+00
  -0.17900000E+01           0.00000000E+00
  -0.17800000E+01           0.00000000E+00
  -0.17700000E+01           0.00000000E+00
  -0.17600000E+01           0.00000000E+00
  -0.17500000E+01           0.00000000E+00
  -0.17400000E+01           0.00000000E+00
  -0.17300000E+01           0.00000000E+00
  -0.17200000E+01           0.00000000E+00
  -0.17100000E+01           0.00000000E+00
  -0.17000000E+01           0.00000000E+00
  -0.16900000E+01           0.00000000E+00
  -0.16800000E+01           0.00000000E+00
  -0.16700000E+01           0.00000000E+00
  -0.16600000E+01           0.00000000E+00
  -0.16500000E+01           0.00000000E+00
  -0.16400000E+01           0.00000000E+00
  -0.16300000E+01           0.00000000E+00
  -0.16200000E+01           0.00000000E+00
  -0.16100000E+01           0.00000000E+00
  -0.16000000E+01           0.00000000E+00
  -0.15900000E+01           0.00000000E+00
  -0.15800000E+01           0.00000000E+00
  -0.15700000E+01           0.00000000E+00
  -0.15600000E+01           0.00000000E+00
  -0.15500000E+01           0.00000000E+00
  -0.15400000E+01           0.00000000E+00
  -0.15300000E+01           0.00000000E+00
  -0.15200000E+01           0.00000000E+00
  -0.15100000E+01           0.00000000E+00
  -0.15000000E+01           0.00000000E+00
  -0.14900000E+01           0.00000000E+00
[...]
  -0.64000000E+00           0.00000000E+00
  -0.63000000E+00           0.00000000E+00
  -0.62000000E+00           0.00000000E+00
  -0.61000000E+00           0.00000000E+00
  -0.60000000E+00           0.00000000E+00
  -0.59000000E+00           0.00000000E+00
  -0.58000000E+00           0.00000000E+00
  -0.57000000E+00           0.00000000E+00
  -0.56000000E+00           0.00000000E+00
  -0.55000000E+00           0.00000000E+00
  -0.54000000E+00           0.00000000E+00
  -0.53000000E+00           0.00000000E+00
  -0.52000000E+00           0.00000000E+00
  -0.51000000E+00           0.00000000E+00
  -0.50000000E+00           0.00000000E+00
  -0.49000000E+00           0.00000000E+00
  -0.48000000E+00           0.00000000E+00
  -0.47000000E+00           0.00000000E+00
  -0.46000000E+00           0.00000000E+00
  -0.45000000E+00           0.00000000E+00
  -0.44000000E+00           0.00000000E+00
  -0.43000000E+00           0.00000000E+00
  -0.42000000E+00           0.00000000E+00
  -0.41000000E+00           0.00000000E+00
  -0.40000000E+00           0.00000000E+00
  -0.39000000E+00           0.00000000E+00
  -0.38000000E+00           0.00000000E+00
  -0.37000000E+00           0.00000000E+00
  -0.36000000E+00           0.00000000E+00
  -0.35000000E+00           0.00000000E+00
  -0.34000000E+00           0.00000000E+00
  -0.33000000E+00           0.00000000E+00
  -0.32000000E+00           0.00000000E+00
  -0.31000000E+00           0.00000000E+00
  -0.30000000E+00           0.00000000E+00
  -0.29000000E+00           0.00000000E+00
  -0.28000000E+00           0.00000000E+00
  -0.27000000E+00           0.00000000E+00
  -0.26000000E+00           0.00000000E+00
  -0.25000000E+00           0.00000000E+00
  -0.24000000E+00           0.00000000E+00
  -0.23000000E+00           0.00000000E+00
  -0.22000000E+00           0.00000000E+00
  -0.21000000E+00           0.00000000E+00
  -0.20000000E+00           0.00000000E+00
  -0.19000000E+00           0.00000000E+00
  -0.18000000E+00           0.00000000E+00
  -0.17000000E+00           0.00000000E+00
  -0.16000000E+00           0.00000000E+00
  -0.15000000E+00           0.00000000E+00
  -0.14000000E+00           0.00000000E+00
  -0.13000000E+00           0.00000000E+00
  -0.12000000E+00           0.00000000E+00
  -0.11000000E+00           0.00000000E+00
  -0.10000000E+00           0.00000000E+00
  -0.90000000E-01           0.00000000E+00
  -0.80000000E-01           0.00000000E+00
  -0.70000000E-01           0.00000000E+00
  -0.60000000E-01           0.00000000E+00
  -0.50000000E-01           0.00000000E+00
  -0.40000000E-01           0.00000000E+00
  -0.30000000E-01           0.00000000E+00
  -0.20000000E-01           0.00000000E+00
  -0.10000000E-01           0.00000000E+00
   0.00000000E+00           0.84126984E-05
   0.10000000E-01           0.17253968E-03
   0.20000000E-01           0.64825397E-03
   0.30000000E-01           0.14503175E-02
   0.40000000E-01           0.25396825E-02
   0.50000000E-01           0.39852381E-02
   0.60000000E-01           0.56241270E-02
   0.70000000E-01           0.76498413E-02
   0.80000000E-01           0.99266667E-02
   0.90000000E-01           0.12494603E-01
   0.10000000E+00           0.15314127E-01
   0.11000000E+00           0.18232063E-01
   0.12000000E+00           0.21616667E-01
   0.13000000E+00           0.25104444E-01
   0.14000000E+00           0.28817460E-01
   0.15000000E+00           0.33003810E-01
   0.16000000E+00           0.37125714E-01
   0.17000000E+00           0.41581270E-01
   0.18000000E+00           0.46124921E-01
   0.19000000E+00           0.51085397E-01
   0.20000000E+00           0.56071111E-01
   0.21000000E+00           0.61266032E-01
   0.22000000E+00           0.66856984E-01
   0.23000000E+00           0.72426508E-01
   0.24000000E+00           0.78222222E-01
   0.25000000E+00           0.83978095E-01
   0.26000000E+00           0.90290159E-01
   0.27000000E+00           0.96180000E-01
   0.28000000E+00           0.10286413E+00
   0.29000000E+00           0.10941905E+00
   0.30000000E+00           0.11582635E+00
   0.31000000E+00           0.12276508E+00
   0.32000000E+00           0.12960825E+00
   0.33000000E+00           0.13652317E+00
   0.34000000E+00           0.14400413E+00
   0.35000000E+00           0.15096508E+00
   0.36000000E+00           0.15812159E+00
   0.37000000E+00           0.16561333E+00
   0.38000000E+00           0.17311571E+00
   0.39000000E+00           0.18066524E+00
   0.40000000E+00           0.18828190E+00
   0.41000000E+00           0.19596397E+00
   0.42000000E+00           0.20374302E+00
   0.43000000E+00           0.21173667E+00
   0.44000000E+00           0.21906984E+00
   0.45000000E+00           0.22705952E+00
   0.46000000E+00           0.23516841E+00
   0.47000000E+00           0.24293127E+00
   0.48000000E+00           0.25095492E+00
   0.49000000E+00           0.25889810E+00
   0.50000000E+00           0.26710825E+00
   0.51000000E+00           0.27491667E+00
   0.52000000E+00           0.28299571E+00
   0.53000000E+00           0.29135111E+00
   0.54000000E+00           0.29891714E+00
   0.55000000E+00           0.30708762E+00
   0.56000000E+00           0.31484413E+00
   0.57000000E+00           0.32285762E+00
   0.58000000E+00           0.33095968E+00
   0.59000000E+00           0.33883413E+00
   0.60000000E+00           0.34678079E+00
   0.61000000E+00           0.35450952E+00
   0.62000000E+00           0.36258841E+00
   0.63000000E+00           0.37044508E+00
   0.64000000E+00           0.37771825E+00
   0.65000000E+00           0.38547556E+00
   0.66000000E+00           0.39316540E+00
   0.67000000E+00           0.40079746E+00
   0.68000000E+00           0.40814429E+00
   0.69000000E+00           0.41501984E+00
   0.70000000E+00           0.42300905E+00
   0.71000000E+00           0.43032143E+00
   0.72000000E+00           0.43750810E+00
   0.73000000E+00           0.44393302E+00
   0.74000000E+00           0.45160000E+00
   0.75000000E+00           0.45857127E+00
   0.76000000E+00           0.46553778E+00
   0.77000000E+00           0.47215587E+00
   0.78000000E+00           0.47861349E+00
   0.79000000E+00           0.48516905E+00
   0.80000000E+00           0.49192714E+00
   0.81000000E+00           0.49715635E+00
   0.82000000E+00           0.50434603E+00
   0.83000000E+00           0.51001000E+00
   0.84000000E+00           0.51636159E+00
   0.85000000E+00           0.52234571E+00
   0.86000000E+00           0.52790175E+00
   0.87000000E+00           0.53399825E+00
   0.88000000E+00           0.53883571E+00
   0.89000000E+00           0.54409381E+00
   0.90000000E+00           0.54960619E+00
   0.91000000E+00           0.55531349E+00
   0.92000000E+00           0.56019540E+00
   0.93000000E+00           0.56472143E+00
   0.94000000E+00           0.56969032E+00
   0.95000000E+00           0.57402413E+00
   0.96000000E+00           0.57850810E+00
   0.97000000E+00           0.58274159E+00
   0.98000000E+00           0.58752127E+00
   0.99000000E+00           0.59144619E+00
   0.10000000E+01           0.59478016E+00
   0.10100000E+01           0.59961571E+00
   0.10200000E+01           0.60259286E+00
   0.10300000E+01           0.60648190E+00
   0.10400000E+01           0.60920556E+00
   0.10500000E+01           0.61208349E+00
   0.10600000E+01           0.61546508E+00
   0.10700000E+01           0.61833587E+00
   0.10800000E+01           0.62154810E+00
   0.10900000E+01           0.62449286E+00
   0.11000000E+01           0.62647778E+00
   0.11100000E+01           0.62892968E+00
   0.11200000E+01           0.63095032E+00
   0.11300000E+01           0.63235794E+00
   0.11400000E+01           0.63479127E+00
   0.11500000E+01           0.63633667E+00
   0.11600000E+01           0.63786619E+00
   0.11700000E+01           0.63991476E+00
   0.11800000E+01           0.64029460E+00
   0.11900000E+01           0.64203048E+00
   0.12000000E+01           0.64244873E+00
   0.12100000E+01           0.64329952E+00
   0.12200000E+01           0.64413063E+00
   0.12300000E+01           0.64479143E+00
   0.12400000E+01           0.64516587E+00
   0.12500000E+01           0.64559762E+00
   0.12600000E+01           0.64607238E+00
   0.12700000E+01           0.64557095E+00
   0.12800000E+01           0.64500206E+00
   0.12900000E+01           0.64505635E+00
   0.13000000E+01           0.64459492E+00
   0.13100000E+01           0.64374286E+00
   0.13200000E+01           0.64383825E+00
   0.13300000E+01           0.64205683E+00
   0.13400000E+01           0.64136730E+00
   0.13500000E+01           0.64060111E+00
   0.13600000E+01           0.63895667E+00
   0.13700000E+01           0.63755429E+00
   0.13800000E+01           0.63665968E+00
   0.13900000E+01           0.63446810E+00
   0.14000000E+01           0.63331444E+00
   0.14100000E+01           0.63096333E+00
   0.14200000E+01           0.62895825E+00
   0.14300000E+01           0.62698921E+00
   0.14400000E+01           0.62403778E+00
   0.14500000E+01           0.62181476E+00
   0.14600000E+01           0.61965032E+00
   0.14700000E+01           0.61754698E+00
   0.14800000E+01           0.61414857E+00
   0.14900000E+01           0.61118778E+00
   0.15000000E+01           0.60847825E+00
   0.15100000E+01           0.60477794E+00
   0.15200000E+01           0.60176730E+00
   0.15300000E+01           0.59864841E+00
   0.15400000E+01           0.59540175E+00
   0.15500000E+01           0.59203048E+00
   0.15600000E+01           0.58790317E+00
   0.15700000E+01           0.58404381E+00
   0.15800000E+01           0.58022921E+00
   0.15900000E+01           0.57647063E+00
   0.16000000E+01           0.57269365E+00
   0.16100000E+01           0.56858794E+00
   0.16200000E+01           0.56464365E+00
   0.16300000E+01           0.56017810E+00
   0.16400000E+01           0.55584873E+00
   0.16500000E+01           0.55149413E+00
   0.16600000E+01           0.54672762E+00
   0.16700000E+01           0.54244048E+00
   0.16800000E+01           0.53815619E+00
   0.16900000E+01           0.53255302E+00
   0.17000000E+01           0.52803063E+00
   0.17100000E+01           0.52333302E+00
   0.17200000E+01           0.51822063E+00
   0.17300000E+01           0.51318937E+00
   0.17400000E+01           0.50872730E+00
   0.17500000E+01           0.50329698E+00
   0.17600000E+01           0.49828381E+00
   0.17700000E+01           0.49282889E+00
   0.17800000E+01           0.48689635E+00
   0.17900000E+01           0.48166143E+00
   0.18000000E+01           0.47653635E+00
   0.18100000E+01           0.47123651E+00
   0.18200000E+01           0.46625492E+00
   0.18300000E+01           0.46039381E+00
   0.18400000E+01           0.45472349E+00
   0.18500000E+01           0.44875492E+00
   0.18600000E+01           0.44362794E+00
   0.18700000E+01           0.43725952E+00
   0.18800000E+01           0.43163778E+00
   0.18900000E+01           0.42627937E+00
   0.19000000E+01           0.42053238E+00
   0.19100000E+01           0.41453333E+00
   0.19200000E+01           0.40873079E+00
   0.19300000E+01           0.40292635E+00
   0.19400000E+01           0.39721317E+00
   0.19500000E+01           0.39103143E+00
   0.19600000E+01           0.38475778E+00
   0.19700000E+01           0.37898381E+00
   0.19800000E+01           0.37346794E+00
   0.19900000E+01           0.36738381E+00
   0.20000000E+01           0.36100079E+00
   0.20100000E+01           0.35524333E+00
   0.20200000E+01           0.34922381E+00
   0.20300000E+01           0.34306095E+00
   0.20400000E+01           0.33788841E+00
   0.20500000E+01           0.33179143E+00
   0.20600000E+01           0.32561222E+00
   0.20700000E+01           0.32046746E+00
   0.20800000E+01           0.31493397E+00
   0.20900000E+01           0.30936159E+00
   0.21000000E+01           0.30365841E+00
   0.21100000E+01           0.29834016E+00
   0.21200000E+01           0.29311333E+00
   0.21300000E+01           0.28739730E+00
   0.21400000E+01           0.28232317E+00
   0.21500000E+01           0.27691333E+00
   0.21600000E+01           0.27177683E+00
   0.21700000E+01           0.26674333E+00
   0.21800000E+01           0.26176524E+00
   0.21900000E+01           0.25674762E+00
   0.22000000E+01           0.25196206E+00
   0.22100000E+01           0.24703762E+00
   0.22200000E+01           0.24227016E+00
   0.22300000E+01           0.23764095E+00
   0.22400000E+01           0.23297063E+00
   0.22500000E+01           0.22797254E+00
   0.22600000E+01           0.22365063E+00
   0.22700000E+01           0.21914571E+00
   0.22800000E+01           0.21503063E+00
   0.22900000E+01           0.21051889E+00
   0.23000000E+01           0.20617270E+00
   0.23100000E+01           0.20163508E+00
   0.23200000E+01           0.19742857E+00
   0.23300000E+01           0.19318635E+00
   0.23400000E+01           0.18922968E+00
   0.23500000E+01           0.18509270E+00
   0.23600000E+01           0.18132016E+00
   0.23700000E+01           0.17704444E+00
   0.23800000E+01           0.17381667E+00
   0.23900000E+01           0.16994238E+00
   0.24000000E+01           0.16633667E+00
   0.24100000E+01           0.16238825E+00
   0.24200000E+01           0.15902143E+00
   0.24300000E+01           0.15539746E+00
   0.24400000E+01           0.15143111E+00
   0.24500000E+01           0.14835556E+00
   0.24600000E+01           0.14498698E+00
   0.24700000E+01           0.14148032E+00
   0.24800000E+01           0.13837317E+00
   0.24900000E+01           0.13482016E+00
   0.25000000E+01           0.13186667E+00
   0.25100000E+01           0.12867889E+00
   0.25200000E+01           0.12582984E+00
   0.25300000E+01           0.12278857E+00
   0.25400000E+01           0.11953000E+00
   0.25500000E+01           0.11668794E+00
   0.25600000E+01           0.11399317E+00
   0.25700000E+01           0.11096460E+00
   0.25800000E+01           0.10827079E+00
   0.25900000E+01           0.10547333E+00
   0.26000000E+01           0.10301159E+00
   0.26100000E+01           0.10057619E+00
   0.26200000E+01           0.98048889E-01
   0.26300000E+01           0.95275397E-01
   0.26400000E+01           0.92541905E-01
   0.26500000E+01           0.90592381E-01
   0.26600000E+01           0.88126825E-01
   0.26700000E+01           0.85683810E-01
   0.26800000E+01           0.83417619E-01
   0.26900000E+01           0.81442698E-01
   0.27000000E+01           0.78860952E-01
   0.27100000E+01           0.77125238E-01
   0.27200000E+01           0.74779206E-01
   0.27300000E+01           0.72792063E-01
   0.27400000E+01           0.70893016E-01
   0.27500000E+01           0.68810000E-01
   0.27600000E+01           0.66915873E-01
   0.27700000E+01           0.65050635E-01
   0.27800000E+01           0.63023016E-01
   0.27900000E+01           0.61250794E-01
   0.28000000E+01           0.59484127E-01
   0.28100000E+01           0.57920000E-01
   0.28200000E+01           0.56072063E-01
   0.28300000E+01           0.54427778E-01
   0.28400000E+01           0.52925556E-01
   0.28500000E+01           0.51356825E-01
   0.28600000E+01           0.49679048E-01
   0.28700000E+01           0.48390159E-01
   0.28800000E+01           0.46805397E-01
   0.28900000E+01           0.45409841E-01
   0.29000000E+01           0.44079048E-01
   0.29100000E+01           0.42669365E-01
   0.29200000E+01           0.41202540E-01
   0.29300000E+01           0.39872857E-01
   0.29400000E+01           0.38568413E-01
   0.29500000E+01           0.37492698E-01
   0.29600000E+01           0.36245714E-01
   0.29700000E+01           0.35036984E-01
   0.29800000E+01           0.33798571E-01
   0.29900000E+01           0.32687302E-01
   0.30000000E+01           0.31611270E-01
   0.30100000E+01           0.30754603E-01
   0.30200000E+01           0.29624921E-01
   0.30300000E+01           0.28620952E-01
   0.30400000E+01           0.27570000E-01
   0.30500000E+01           0.26593810E-01
   0.30600000E+01           0.25685873E-01
   0.30700000E+01           0.24934127E-01
   0.30800000E+01           0.24025556E-01
   0.30900000E+01           0.23016825E-01
   0.31000000E+01           0.22199206E-01
   0.31100000E+01           0.21386984E-01
   0.31200000E+01           0.20640476E-01
   0.31300000E+01           0.19876032E-01
   0.31400000E+01           0.19265238E-01
   0.31500000E+01           0.18426349E-01
   0.31600000E+01           0.17736667E-01
   0.31700000E+01           0.17002381E-01
   0.31800000E+01           0.16274762E-01
   0.31900000E+01           0.15783492E-01
   0.32000000E+01           0.15051905E-01
   0.32100000E+01           0.14504762E-01
   0.32200000E+01           0.13902540E-01
   0.32300000E+01           0.13356667E-01
   0.32400000E+01           0.12864444E-01
   0.32500000E+01           0.12348095E-01
   0.32600000E+01           0.11863651E-01
   0.32700000E+01           0.11295397E-01
   0.32800000E+01           0.10836349E-01
   0.32900000E+01           0.10346508E-01
   0.33000000E+01           0.99477778E-02
   0.33100000E+01           0.96023810E-02
   0.33200000E+01           0.90803175E-02
   0.33300000E+01           0.86773016E-02
   0.33400000E+01           0.82650794E-02
   0.33500000E+01           0.78809524E-02
   0.33600000E+01           0.75574603E-02
   0.33700000E+01           0.71642857E-02
   0.33800000E+01           0.68182540E-02
   0.33900000E+01           0.65165079E-02
   0.34000000E+01           0.61634921E-02
   0.34100000E+01           0.59052381E-02
   0.34200000E+01           0.55990476E-02
   0.34300000E+01           0.52784127E-02
   0.34400000E+01           0.50800000E-02
   0.34500000E+01           0.47561905E-02
   0.34600000E+01           0.46060317E-02
   0.34700000E+01           0.42841270E-02
   0.34800000E+01           0.40657143E-02
   0.34900000E+01           0.38438095E-02
   0.35000000E+01           0.36358730E-02
   0.35100000E+01           0.34555556E-02
   0.35200000E+01           0.32871429E-02
   0.35300000E+01           0.30468254E-02
   0.35400000E+01           0.28634921E-02
   0.35500000E+01           0.27317460E-02
   0.35600000E+01           0.25323810E-02
   0.35700000E+01           0.23923810E-02
   0.35800000E+01           0.22473016E-02
   0.35900000E+01           0.20866667E-02
   0.36000000E+01           0.19519048E-02
   0.36100000E+01           0.18363492E-02
   0.36200000E+01           0.16930159E-02
   0.36300000E+01           0.16033333E-02
   0.36400000E+01           0.15109524E-02
   0.36500000E+01           0.13607937E-02
   0.36600000E+01           0.12782540E-02
   0.36700000E+01           0.11714286E-02
   0.36800000E+01           0.10826984E-02
   0.36900000E+01           0.98666667E-03
   0.37000000E+01           0.93126984E-03
   0.37100000E+01           0.86222222E-03
   0.37200000E+01           0.77317460E-03
   0.37300000E+01           0.73222222E-03
   0.37400000E+01           0.64634921E-03
   0.37500000E+01           0.57730159E-03
   0.37600000E+01           0.52333333E-03
   0.37700000E+01           0.47253968E-03
   0.37800000E+01           0.43825397E-03
   0.37900000E+01           0.38984127E-03
   0.38000000E+01           0.34619048E-03
   0.38100000E+01           0.30015873E-03
   0.38200000E+01           0.25730159E-03
   0.38300000E+01           0.23809524E-03
   0.38400000E+01           0.19904762E-03
   0.38500000E+01           0.17428571E-03
   0.38600000E+01           0.14587302E-03
   0.38700000E+01           0.11952381E-03
   0.38800000E+01           0.10492063E-03
   0.38900000E+01           0.86666667E-04
   0.39000000E+01           0.74126984E-04
   0.39100000E+01           0.56031746E-04
   0.39200000E+01           0.49523810E-04
   0.39300000E+01           0.28571429E-04
   0.39400000E+01           0.19841270E-04
   0.39500000E+01           0.17460317E-04
   0.39600000E+01           0.10793651E-04
   0.39700000E+01           0.47619048E-05
   0.39800000E+01           0.17460317E-05
   0.39900000E+01           0.95238095E-06
   0.40000000E+01           0.00000000E+00
