 #written on  4Sep2024 at 15:04:44 
 #----------------- MONTECARLO -------------------#
 #        M                      P(M)             #
 #------------------------------------------------#
 #T=    11.0000
  -0.40000000E+01           0.00000000E+00
  -0.39900000E+01           0.00000000E+00
  -0.39800000E+01           0.00000000E+00
  -0.39700000E+01           0.00000000E+00
  -0.39600000E+01           0.00000000E+00
  -0.39500000E+01           0.00000000E+00
  -0.39400000E+01           0.00000000E+00
  -0.39300000E+01           0.00000000E+00
  -0.39200000E+01           0.00000000E+00
  -0.39100000E+01           0.00000000E+00
  -0.39000000E+01           0.00000000E+00
  -0.38900000E+01           0.00000000E+00
  -0.38800000E+01           0.00000000E+00
  -0.38700000E+01           0.00000000E+00
  -0.38600000E+01           0.00000000E+00
  -0.38500000E+01           0.00000000E+00
  -0.38400000E+01           0.00000000E+00
  -0.38300000E+01           0.00000000E+00
  -0.38200000E+01           0.00000000E+00
  -0.38100000E+01           0.00000000E+00
  -0.38000000E+01           0.00000000E+00
  -0.37900000E+01           0.00000000E+00
  -0.37800000E+01           0.00000000E+00
  -0.37700000E+01           0.00000000E+00
  -0.37600000E+01           0.00000000E+00
  -0.37500000E+01           0.00000000E+00
  -0.37400000E+01           0.00000000E+00
  -0.37300000E+01           0.00000000E+00
  -0.37200000E+01           0.00000000E+00
  -0.37100000E+01           0.00000000E+00
  -0.37000000E+01           0.00000000E+00
  -0.36900000E+01           0.00000000E+00
  -0.36800000E+01           0.00000000E+00
  -0.36700000E+01           0.00000000E+00
  -0.36600000E+01           0.00000000E+00
  -0.36500000E+01           0.00000000E+00
  -0.36400000E+01           0.00000000E+00
  -0.36300000E+01           0.00000000E+00
  -0.36200000E+01           0.00000000E+00
  -0.36100000E+01           0.00000000E+00
  -0.36000000E+01           0.00000000E+00
  -0.35900000E+01           0.00000000E+00
  -0.35800000E+01           0.00000000E+00
  -0.35700000E+01           0.00000000E+00
  -0.35600000E+01           0.00000000E+00
  -0.35500000E+01           0.00000000E+00
  -0.35400000E+01           0.00000000E+00
  -0.35300000E+01           0.00000000E+00
  -0.35200000E+01           0.00000000E+00
  -0.35100000E+01           0.00000000E+00
  -0.35000000E+01           0.00000000E+00
  -0.34900000E+01           0.00000000E+00
  -0.34800000E+01           0.00000000E+00
  -0.34700000E+01           0.00000000E+00
  -0.34600000E+01           0.00000000E+00
  -0.34500000E+01           0.00000000E+00
  -0.34400000E+01           0.00000000E+00
  -0.34300000E+01           0.00000000E+00
  -0.34200000E+01           0.00000000E+00
  -0.34100000E+01           0.00000000E+00
  -0.34000000E+01           0.00000000E+00
  -0.33900000E+01           0.00000000E+00
  -0.33800000E+01           0.00000000E+00
  -0.33700000E+01           0.00000000E+00
  -0.33600000E+01           0.00000000E+00
  -0.33500000E+01           0.00000000E+00
  -0.33400000E+01           0.00000000E+00
  -0.33300000E+01           0.00000000E+00
  -0.33200000E+01           0.00000000E+00
  -0.33100000E+01           0.00000000E+00
  -0.33000000E+01           0.00000000E+00
  -0.32900000E+01           0.00000000E+00
  -0.32800000E+01           0.00000000E+00
  -0.32700000E+01           0.00000000E+00
  -0.32600000E+01           0.00000000E+00
  -0.32500000E+01           0.00000000E+00
  -0.32400000E+01           0.00000000E+00
  -0.32300000E+01           0.00000000E+00
  -0.32200000E+01           0.00000000E+00
  -0.32100000E+01           0.00000000E+00
  -0.32000000E+01           0.00000000E+00
  -0.31900000E+01           0.00000000E+00
  -0.31800000E+01           0.00000000E+00
  -0.31700000E+01           0.00000000E+00
  -0.31600000E+01           0.00000000E+00
  -0.31500000E+01           0.00000000E+00
  -0.31400000E+01           0.00000000E+00
  -0.31300000E+01           0.00000000E+00
  -0.31200000E+01           0.00000000E+00
  -0.31100000E+01           0.00000000E+00
  -0.31000000E+01           0.00000000E+00
  -0.30900000E+01           0.00000000E+00
  -0.30800000E+01           0.00000000E+00
  -0.30700000E+01           0.00000000E+00
  -0.30600000E+01           0.00000000E+00
  -0.30500000E+01           0.00000000E+00
  -0.30400000E+01           0.00000000E+00
  -0.30300000E+01           0.00000000E+00
  -0.30200000E+01           0.00000000E+00
  -0.30100000E+01           0.00000000E+00
  -0.30000000E+01           0.00000000E+00
  -0.29900000E+01           0.00000000E+00
  -0.29800000E+01           0.00000000E+00
  -0.29700000E+01           0.00000000E+00
  -0.29600000E+01           0.00000000E+00
  -0.29500000E+01           0.00000000E+00
  -0.29400000E+01           0.00000000E+00
  -0.29300000E+01           0.00000000E+00
  -0.29200000E+01           0.00000000E+00
  -0.29100000E+01           0.00000000E+00
  -0.29000000E+01           0.00000000E+00
  -0.28900000E+01           0.00000000E+00
  -0.28800000E+01           0.00000000E+00
  -0.28700000E+01           0.00000000E+00
  -0.28600000E+01           0.00000000E+00
  -0.28500000E+01           0.00000000E+00
  -0.28400000E+01           0.00000000E+00
  -0.28300000E+01           0.00000000E+00
  -0.28200000E+01           0.00000000E+00
  -0.28100000E+01           0.00000000E+00
  -0.28000000E+01           0.00000000E+00
  -0.27900000E+01           0.00000000E+00
  -0.27800000E+01           0.00000000E+00
  -0.27700000E+01           0.00000000E+00
  -0.27600000E+01           0.00000000E+00
  -0.27500000E+01           0.00000000E+00
  -0.27400000E+01           0.00000000E+00
  -0.27300000E+01           0.00000000E+00
  -0.27200000E+01           0.00000000E+00
  -0.27100000E+01           0.00000000E+00
  -0.27000000E+01           0.00000000E+00
  -0.26900000E+01           0.00000000E+00
  -0.26800000E+01           0.00000000E+00
  -0.26700000E+01           0.00000000E+00
  -0.26600000E+01           0.00000000E+00
  -0.26500000E+01           0.00000000E+00
  -0.26400000E+01           0.00000000E+00
  -0.26300000E+01           0.00000000E+00
  -0.26200000E+01           0.00000000E+00
  -0.26100000E+01           0.00000000E+00
  -0.26000000E+01           0.00000000E+00
  -0.25900000E+01           0.00000000E+00
  -0.25800000E+01           0.00000000E+00
  -0.25700000E+01           0.00000000E+00
  -0.25600000E+01           0.00000000E+00
  -0.25500000E+01           0.00000000E+00
  -0.25400000E+01           0.00000000E+00
  -0.25300000E+01           0.00000000E+00
  -0.25200000E+01           0.00000000E+00
  -0.25100000E+01           0.00000000E+00
  -0.25000000E+01           0.00000000E+00
  -0.24900000E+01           0.00000000E+00
  -0.24800000E+01           0.00000000E+00
  -0.24700000E+01           0.00000000E+00
  -0.24600000E+01           0.00000000E+00
  -0.24500000E+01           0.00000000E+00
  -0.24400000E+01           0.00000000E+00
  -0.24300000E+01           0.00000000E+00
  -0.24200000E+01           0.00000000E+00
  -0.24100000E+01           0.00000000E+00
  -0.24000000E+01           0.00000000E+00
  -0.23900000E+01           0.00000000E+00
  -0.23800000E+01           0.00000000E+00
  -0.23700000E+01           0.00000000E+00
  -0.23600000E+01           0.00000000E+00
  -0.23500000E+01           0.00000000E+00
  -0.23400000E+01           0.00000000E+00
  -0.23300000E+01           0.00000000E+00
  -0.23200000E+01           0.00000000E+00
  -0.23100000E+01           0.00000000E+00
  -0.23000000E+01           0.00000000E+00
  -0.22900000E+01           0.00000000E+00
  -0.22800000E+01           0.00000000E+00
  -0.22700000E+01           0.00000000E+00
  -0.22600000E+01           0.00000000E+00
  -0.22500000E+01           0.00000000E+00
  -0.22400000E+01           0.00000000E+00
  -0.22300000E+01           0.00000000E+00
  -0.22200000E+01           0.00000000E+00
  -0.22100000E+01           0.00000000E+00
  -0.22000000E+01           0.00000000E+00
  -0.21900000E+01           0.00000000E+00
  -0.21800000E+01           0.00000000E+00
  -0.21700000E+01           0.00000000E+00
  -0.21600000E+01           0.00000000E+00
  -0.21500000E+01           0.00000000E+00
  -0.21400000E+01           0.00000000E+00
  -0.21300000E+01           0.00000000E+00
  -0.21200000E+01           0.00000000E+00
  -0.21100000E+01           0.00000000E+00
  -0.21000000E+01           0.00000000E+00
  -0.20900000E+01           0.00000000E+00
  -0.20800000E+01           0.00000000E+00
  -0.20700000E+01           0.00000000E+00
  -0.20600000E+01           0.00000000E+00
  -0.20500000E+01           0.00000000E+00
  -0.20400000E+01           0.00000000E+00
  -0.20300000E+01           0.00000000E+00
  -0.20200000E+01           0.00000000E+00
  -0.20100000E+01           0.00000000E+00
  -0.20000000E+01           0.00000000E+00
  -0.19900000E+01           0.00000000E+00
  -0.19800000E+01           0.00000000E+00
  -0.19700000E+01           0.00000000E+00
  -0.19600000E+01           0.00000000E+00
  -0.19500000E+01           0.00000000E+00
  -0.19400000E+01           0.00000000E+00
  -0.19300000E+01           0.00000000E+00
  -0.19200000E+01           0.00000000E+00
  -0.19100000E+01           0.00000000E+00
  -0.19000000E+01           0.00000000E+00
  -0.18900000E+01           0.00000000E+00
  -0.18800000E+01           0.00000000E+00
  -0.18700000E+01           0.00000000E+00
  -0.18600000E+01           0.00000000E+00
  -0.18500000E+01           0.00000000E+00
  -0.18400000E+01           0.00000000E+00
  -0.18300000E+01           0.00000000E+00
  -0.18200000E+01           0.00000000E+00
  -0.18100000E+01           0.00000000E+00
  -0.18000000E+01           0.00000000E+00
  -0.17900000E+01           0.00000000E+00
  -0.17800000E+01           0.00000000E+00
  -0.17700000E+01           0.00000000E+00
  -0.17600000E+01           0.00000000E+00
  -0.17500000E+01           0.00000000E+00
  -0.17400000E+01           0.00000000E+00
  -0.17300000E+01           0.00000000E+00
  -0.17200000E+01           0.00000000E+00
  -0.17100000E+01           0.00000000E+00
  -0.17000000E+01           0.00000000E+00
  -0.16900000E+01           0.00000000E+00
  -0.16800000E+01           0.00000000E+00
  -0.16700000E+01           0.00000000E+00
  -0.16600000E+01           0.00000000E+00
  -0.16500000E+01           0.00000000E+00
  -0.16400000E+01           0.00000000E+00
  -0.16300000E+01           0.00000000E+00
  -0.16200000E+01           0.00000000E+00
  -0.16100000E+01           0.00000000E+00
  -0.16000000E+01           0.00000000E+00
  -0.15900000E+01           0.00000000E+00
  -0.15800000E+01           0.00000000E+00
  -0.15700000E+01           0.00000000E+00
  -0.15600000E+01           0.00000000E+00
  -0.15500000E+01           0.00000000E+00
  -0.15400000E+01           0.00000000E+00
  -0.15300000E+01           0.00000000E+00
  -0.15200000E+01           0.00000000E+00
  -0.15100000E+01           0.00000000E+00
  -0.15000000E+01           0.00000000E+00
  -0.14900000E+01           0.00000000E+00
  -0.14800000E+01           0.00000000E+00
  -0.14700000E+01           0.00000000E+00
  -0.14600000E+01           0.00000000E+00
  -0.14500000E+01           0.00000000E+00
  -0.14400000E+01           0.00000000E+00
  -0.14300000E+01           0.00000000E+00
  -0.14200000E+01           0.00000000E+00
  -0.14100000E+01           0.00000000E+00
  -0.14000000E+01           0.00000000E+00
  -0.13900000E+01           0.00000000E+00
  -0.13800000E+01           0.00000000E+00
  -0.13700000E+01           0.00000000E+00
  -0.13600000E+01           0.00000000E+00
  -0.13500000E+01           0.00000000E+00
  -0.13400000E+01           0.00000000E+00
  -0.13300000E+01           0.00000000E+00
  -0.13200000E+01           0.00000000E+00
  -0.13100000E+01           0.00000000E+00
  -0.13000000E+01           0.00000000E+00
  -0.12900000E+01           0.00000000E+00
  -0.12800000E+01           0.00000000E+00
  -0.12700000E+01           0.00000000E+00
  -0.12600000E+01           0.00000000E+00
  -0.12500000E+01           0.00000000E+00
  -0.12400000E+01           0.00000000E+00
  -0.12300000E+01           0.00000000E+00
  -0.12200000E+01           0.00000000E+00
  -0.12100000E+01           0.00000000E+00
  -0.12000000E+01           0.00000000E+00
  -0.11900000E+01           0.00000000E+00
  -0.11800000E+01           0.00000000E+00
  -0.11700000E+01           0.00000000E+00
  -0.11600000E+01           0.00000000E+00
  -0.11500000E+01           0.00000000E+00
  -0.11400000E+01           0.00000000E+00
  -0.11300000E+01           0.00000000E+00
  -0.11200000E+01           0.00000000E+00
  -0.11100000E+01           0.00000000E+00
  -0.11000000E+01           0.00000000E+00
  -0.10900000E+01           0.00000000E+00
  -0.10800000E+01           0.00000000E+00
  -0.10700000E+01           0.00000000E+00
  -0.10600000E+01           0.00000000E+00
  -0.10500000E+01           0.00000000E+00
  -0.10400000E+01           0.00000000E+00
  -0.10300000E+01           0.00000000E+00
  -0.10200000E+01           0.00000000E+00
  -0.10100000E+01           0.00000000E+00
  -0.10000000E+01           0.00000000E+00
  -0.99000000E+00           0.00000000E+00
  -0.98000000E+00           0.00000000E+00
  -0.97000000E+00           0.00000000E+00
  -0.96000000E+00           0.00000000E+00
  -0.95000000E+00           0.00000000E+00
  -0.94000000E+00           0.00000000E+00
  -0.93000000E+00           0.00000000E+00
  -0.92000000E+00           0.00000000E+00
  -0.91000000E+00           0.00000000E+00
  -0.90000000E+00           0.00000000E+00
  -0.89000000E+00           0.00000000E+00
  -0.88000000E+00           0.00000000E+00
  -0.87000000E+00           0.00000000E+00
  -0.86000000E+00           0.00000000E+00
  -0.85000000E+00           0.00000000E+00
  -0.84000000E+00           0.00000000E+00
  -0.83000000E+00           0.00000000E+00
  -0.82000000E+00           0.00000000E+00
  -0.81000000E+00           0.00000000E+00
  -0.80000000E+00           0.00000000E+00
  -0.79000000E+00           0.00000000E+00
  -0.78000000E+00           0.00000000E+00
  -0.77000000E+00           0.00000000E+00
  -0.76000000E+00           0.00000000E+00
  -0.75000000E+00           0.00000000E+00
  -0.74000000E+00           0.00000000E+00
  -0.73000000E+00           0.00000000E+00
  -0.72000000E+00           0.00000000E+00
  -0.71000000E+00           0.00000000E+00
  -0.70000000E+00           0.00000000E+00
  -0.69000000E+00           0.00000000E+00
  -0.68000000E+00           0.00000000E+00
  -0.67000000E+00           0.00000000E+00
  -0.66000000E+00           0.00000000E+00
  -0.65000000E+00           0.00000000E+00
  -0.64000000E+00           0.00000000E+00
  -0.63000000E+00           0.00000000E+00
  -0.62000000E+00           0.00000000E+00
  -0.61000000E+00           0.00000000E+00
  -0.60000000E+00           0.00000000E+00
  -0.59000000E+00           0.00000000E+00
  -0.58000000E+00           0.00000000E+00
  -0.57000000E+00           0.00000000E+00
  -0.56000000E+00           0.00000000E+00
  -0.55000000E+00           0.00000000E+00
  -0.54000000E+00           0.00000000E+00
  -0.53000000E+00           0.00000000E+00
  -0.52000000E+00           0.00000000E+00
  -0.51000000E+00           0.00000000E+00
  -0.50000000E+00           0.00000000E+00
  -0.49000000E+00           0.00000000E+00
  -0.48000000E+00           0.00000000E+00
  -0.47000000E+00           0.00000000E+00
  -0.46000000E+00           0.00000000E+00
  -0.45000000E+00           0.00000000E+00
  -0.44000000E+00           0.00000000E+00
  -0.43000000E+00           0.00000000E+00
  -0.42000000E+00           0.00000000E+00
  -0.41000000E+00           0.00000000E+00
  -0.40000000E+00           0.00000000E+00
  -0.39000000E+00           0.00000000E+00
  -0.38000000E+00           0.00000000E+00
  -0.37000000E+00           0.00000000E+00
  -0.36000000E+00           0.00000000E+00
  -0.35000000E+00           0.00000000E+00
  -0.34000000E+00           0.00000000E+00
  -0.33000000E+00           0.00000000E+00
  -0.32000000E+00           0.00000000E+00
  -0.31000000E+00           0.00000000E+00
  -0.30000000E+00           0.00000000E+00
  -0.29000000E+00           0.00000000E+00
  -0.28000000E+00           0.00000000E+00
  -0.27000000E+00           0.00000000E+00
  -0.26000000E+00           0.00000000E+00
  -0.25000000E+00           0.00000000E+00
  -0.24000000E+00           0.00000000E+00
  -0.23000000E+00           0.00000000E+00
  -0.22000000E+00           0.00000000E+00
  -0.21000000E+00           0.00000000E+00
  -0.20000000E+00           0.00000000E+00
  -0.19000000E+00           0.00000000E+00
  -0.18000000E+00           0.00000000E+00
  -0.17000000E+00           0.00000000E+00
  -0.16000000E+00           0.00000000E+00
  -0.15000000E+00           0.00000000E+00
  -0.14000000E+00           0.00000000E+00
  -0.13000000E+00           0.00000000E+00
  -0.12000000E+00           0.00000000E+00
  -0.11000000E+00           0.00000000E+00
  -0.10000000E+00           0.00000000E+00
  -0.90000000E-01           0.00000000E+00
  -0.80000000E-01           0.00000000E+00
  -0.70000000E-01           0.00000000E+00
  -0.60000000E-01           0.00000000E+00
  -0.50000000E-01           0.00000000E+00
  -0.40000000E-01           0.00000000E+00
  -0.30000000E-01           0.00000000E+00
  -0.20000000E-01           0.00000000E+00
  -0.10000000E-01           0.00000000E+00
   0.00000000E+00           0.31518519E-03
   0.10000000E-01           0.76390741E-02
   0.20000000E-01           0.27076481E-01
   0.30000000E-01           0.56574630E-01
   0.40000000E-01           0.93663704E-01
   0.50000000E-01           0.13612778E+00
   0.60000000E-01           0.18406074E+00
   0.70000000E-01           0.23397833E+00
   0.80000000E-01           0.28713815E+00
   0.90000000E-01           0.34153519E+00
   0.10000000E+00           0.39741741E+00
   0.11000000E+00           0.45212074E+00
   0.12000000E+00           0.50699130E+00
   0.13000000E+00           0.56139963E+00
   0.14000000E+00           0.61541778E+00
   0.15000000E+00           0.66582630E+00
   0.16000000E+00           0.71894463E+00
   0.17000000E+00           0.76919000E+00
   0.18000000E+00           0.81762556E+00
   0.19000000E+00           0.86371907E+00
   0.20000000E+00           0.90810333E+00
   0.21000000E+00           0.95169222E+00
   0.22000000E+00           0.99267278E+00
   0.23000000E+00           0.10330267E+01
   0.24000000E+00           0.10714522E+01
   0.25000000E+00           0.11058324E+01
   0.26000000E+00           0.11395063E+01
   0.27000000E+00           0.11708072E+01
   0.28000000E+00           0.12004772E+01
   0.29000000E+00           0.12296885E+01
   0.30000000E+00           0.12553385E+01
   0.31000000E+00           0.12785446E+01
   0.32000000E+00           0.13004719E+01
   0.33000000E+00           0.13197611E+01
   0.34000000E+00           0.13406424E+01
   0.35000000E+00           0.13563511E+01
   0.36000000E+00           0.13698894E+01
   0.37000000E+00           0.13834341E+01
   0.38000000E+00           0.13930881E+01
   0.39000000E+00           0.14040861E+01
   0.40000000E+00           0.14122194E+01
   0.41000000E+00           0.14157117E+01
   0.42000000E+00           0.14204963E+01
   0.43000000E+00           0.14226078E+01
   0.44000000E+00           0.14247122E+01
   0.45000000E+00           0.14243144E+01
   0.46000000E+00           0.14213996E+01
   0.47000000E+00           0.14178215E+01
   0.48000000E+00           0.14129248E+01
   0.49000000E+00           0.14061622E+01
   0.50000000E+00           0.13978981E+01
   0.51000000E+00           0.13911626E+01
   0.52000000E+00           0.13793483E+01
   0.53000000E+00           0.13674263E+01
   0.54000000E+00           0.13549070E+01
   0.55000000E+00           0.13418398E+01
   0.56000000E+00           0.13268024E+01
   0.57000000E+00           0.13111556E+01
   0.58000000E+00           0.12963228E+01
   0.59000000E+00           0.12775106E+01
   0.60000000E+00           0.12579006E+01
   0.61000000E+00           0.12410383E+01
   0.62000000E+00           0.12202193E+01
   0.63000000E+00           0.12014337E+01
   0.64000000E+00           0.11789998E+01
   0.65000000E+00           0.11593972E+01
   0.66000000E+00           0.11369341E+01
   0.67000000E+00           0.11136939E+01
   0.68000000E+00           0.10915261E+01
   0.69000000E+00           0.10671163E+01
   0.70000000E+00           0.10448100E+01
   0.71000000E+00           0.10210498E+01
   0.72000000E+00           0.99648944E+00
   0.73000000E+00           0.97335333E+00
   0.74000000E+00           0.94877037E+00
   0.75000000E+00           0.92499074E+00
   0.76000000E+00           0.90044352E+00
   0.77000000E+00           0.87722426E+00
   0.78000000E+00           0.85349000E+00
   0.79000000E+00           0.82846130E+00
   0.80000000E+00           0.80432537E+00
   0.81000000E+00           0.78076426E+00
   0.82000000E+00           0.75686778E+00
   0.83000000E+00           0.73440981E+00
   0.84000000E+00           0.71093056E+00
   0.85000000E+00           0.68819648E+00
   0.86000000E+00           0.66476259E+00
   0.87000000E+00           0.64293704E+00
   0.88000000E+00           0.62154907E+00
   0.89000000E+00           0.59985759E+00
   0.90000000E+00           0.57821907E+00
   0.91000000E+00           0.55850648E+00
   0.92000000E+00           0.53740667E+00
   0.93000000E+00           0.51690537E+00
   0.94000000E+00           0.49723537E+00
   0.95000000E+00           0.47805667E+00
   0.96000000E+00           0.45927981E+00
   0.97000000E+00           0.44110019E+00
   0.98000000E+00           0.42332481E+00
   0.99000000E+00           0.40541093E+00
   0.10000000E+01           0.38880111E+00
   0.10100000E+01           0.37238722E+00
   0.10200000E+01           0.35643611E+00
   0.10300000E+01           0.34097574E+00
   0.10400000E+01           0.32575500E+00
   0.10500000E+01           0.31096833E+00
   0.10600000E+01           0.29714093E+00
   0.10700000E+01           0.28318630E+00
   0.10800000E+01           0.27031481E+00
   0.10900000E+01           0.25781056E+00
   0.11000000E+01           0.24527981E+00
   0.11100000E+01           0.23327185E+00
   0.11200000E+01           0.22178222E+00
   0.11300000E+01           0.21092111E+00
   0.11400000E+01           0.20072056E+00
   0.11500000E+01           0.19000796E+00
   0.11600000E+01           0.18028241E+00
   0.11700000E+01           0.17136148E+00
   0.11800000E+01           0.16187537E+00
   0.11900000E+01           0.15344296E+00
   0.12000000E+01           0.14492130E+00
   0.12100000E+01           0.13681333E+00
   0.12200000E+01           0.12925944E+00
   0.12300000E+01           0.12235093E+00
   0.12400000E+01           0.11574352E+00
   0.12500000E+01           0.10910519E+00
   0.12600000E+01           0.10268111E+00
   0.12700000E+01           0.96761852E-01
   0.12800000E+01           0.91047037E-01
   0.12900000E+01           0.85647778E-01
   0.13000000E+01           0.80864444E-01
   0.13100000E+01           0.75534074E-01
   0.13200000E+01           0.71019444E-01
   0.13300000E+01           0.66687222E-01
   0.13400000E+01           0.62461481E-01
   0.13500000E+01           0.58735370E-01
   0.13600000E+01           0.54995741E-01
   0.13700000E+01           0.51636296E-01
   0.13800000E+01           0.48243519E-01
   0.13900000E+01           0.44925741E-01
   0.14000000E+01           0.42234074E-01
   0.14100000E+01           0.39296481E-01
   0.14200000E+01           0.36523519E-01
   0.14300000E+01           0.34186111E-01
   0.14400000E+01           0.31722778E-01
   0.14500000E+01           0.29620556E-01
   0.14600000E+01           0.27591667E-01
   0.14700000E+01           0.25622778E-01
   0.14800000E+01           0.23872037E-01
   0.14900000E+01           0.22258519E-01
   0.15000000E+01           0.20477778E-01
   0.15100000E+01           0.19119444E-01
   0.15200000E+01           0.17723519E-01
   0.15300000E+01           0.16359630E-01
   0.15400000E+01           0.15257593E-01
   0.15500000E+01           0.14060741E-01
   0.15600000E+01           0.13022037E-01
   0.15700000E+01           0.12050000E-01
   0.15800000E+01           0.11105741E-01
   0.15900000E+01           0.10231667E-01
   0.16000000E+01           0.95409259E-02
   0.16100000E+01           0.87437037E-02
   0.16200000E+01           0.81277778E-02
   0.16300000E+01           0.74977778E-02
   0.16400000E+01           0.68720370E-02
   0.16500000E+01           0.63751852E-02
   0.16600000E+01           0.58407407E-02
   0.16700000E+01           0.53353704E-02
   0.16800000E+01           0.49020370E-02
   0.16900000E+01           0.45272222E-02
   0.17000000E+01           0.41214815E-02
   0.17100000E+01           0.37112963E-02
   0.17200000E+01           0.34453704E-02
   0.17300000E+01           0.31611111E-02
   0.17400000E+01           0.28944444E-02
   0.17500000E+01           0.26568519E-02
   0.17600000E+01           0.24203704E-02
   0.17700000E+01           0.22188889E-02
   0.17800000E+01           0.19761111E-02
   0.17900000E+01           0.18624074E-02
   0.18000000E+01           0.16716667E-02
   0.18100000E+01           0.15240741E-02
   0.18200000E+01           0.13694444E-02
   0.18300000E+01           0.12655556E-02
   0.18400000E+01           0.11394444E-02
   0.18500000E+01           0.10114815E-02
   0.18600000E+01           0.93722222E-03
   0.18700000E+01           0.82962963E-03
   0.18800000E+01           0.78740741E-03
   0.18900000E+01           0.68240741E-03
   0.19000000E+01           0.62444444E-03
   0.19100000E+01           0.58740741E-03
   0.19200000E+01           0.51407407E-03
   0.19300000E+01           0.47240741E-03
   0.19400000E+01           0.42222222E-03
   0.19500000E+01           0.37000000E-03
   0.19600000E+01           0.36370370E-03
   0.19700000E+01           0.31240741E-03
   0.19800000E+01           0.27851852E-03
   0.19900000E+01           0.24370370E-03
   0.20000000E+01           0.23074074E-03
   0.20100000E+01           0.20259259E-03
   0.20200000E+01           0.17925926E-03
   0.20300000E+01           0.15740741E-03
   0.20400000E+01           0.14240741E-03
   0.20500000E+01           0.12870370E-03
   0.20600000E+01           0.11000000E-03
   0.20700000E+01           0.10296296E-03
   0.20800000E+01           0.96111111E-04
   0.20900000E+01           0.84629630E-04
   0.21000000E+01           0.72962963E-04
   0.21100000E+01           0.68703704E-04
   0.21200000E+01           0.60000000E-04
   0.21300000E+01           0.57962963E-04
   0.21400000E+01           0.49259259E-04
   0.21500000E+01           0.36666667E-04
   0.21600000E+01           0.41481481E-04
   0.21700000E+01           0.28148148E-04
   0.21800000E+01           0.32962963E-04
   0.21900000E+01           0.23518519E-04
   0.22000000E+01           0.20370370E-04
   0.22100000E+01           0.18888889E-04
   0.22200000E+01           0.20555556E-04
   0.22300000E+01           0.16851852E-04
   0.22400000E+01           0.15185185E-04
   0.22500000E+01           0.10740741E-04
   0.22600000E+01           0.14814815E-04
   0.22700000E+01           0.94444444E-05
   0.22800000E+01           0.96296296E-05
   0.22900000E+01           0.98148148E-05
   0.23000000E+01           0.59259259E-05
   0.23100000E+01           0.74074074E-05
   0.23200000E+01           0.51851852E-05
   0.23300000E+01           0.46296296E-05
   0.23400000E+01           0.48148148E-05
   0.23500000E+01           0.37037037E-05
   0.23600000E+01           0.37037037E-05
   0.23700000E+01           0.22222222E-05
   0.23800000E+01           0.31481481E-05
   0.23900000E+01           0.18518519E-05
   0.24000000E+01           0.16666667E-05
   0.24100000E+01           0.16666667E-05
   0.24200000E+01           0.12962963E-05
   0.24300000E+01           0.25925926E-05
   0.24400000E+01           0.74074074E-06
   0.24500000E+01           0.18518519E-05
   0.24600000E+01           0.37037037E-06
   0.24700000E+01           0.74074074E-06
   0.24800000E+01           0.37037037E-06
   0.24900000E+01           0.00000000E+00
   0.25000000E+01           0.00000000E+00
   0.25100000E+01           0.18518519E-06
   0.25200000E+01           0.18518519E-06
   0.25300000E+01           0.18518519E-06
   0.25400000E+01           0.18518519E-06
   0.25500000E+01           0.37037037E-06
   0.25600000E+01           0.00000000E+00
   0.25700000E+01           0.00000000E+00
   0.25800000E+01           0.37037037E-06
   0.25900000E+01           0.55555556E-06
   0.26000000E+01           0.18518519E-06
   0.26100000E+01           0.00000000E+00
   0.26200000E+01           0.00000000E+00
   0.26300000E+01           0.00000000E+00
   0.26400000E+01           0.00000000E+00
   0.26500000E+01           0.00000000E+00
   0.26600000E+01           0.00000000E+00
   0.26700000E+01           0.00000000E+00
   0.26800000E+01           0.00000000E+00
   0.26900000E+01           0.00000000E+00
   0.27000000E+01           0.00000000E+00
   0.27100000E+01           0.00000000E+00
   0.27200000E+01           0.00000000E+00
   0.27300000E+01           0.00000000E+00
   0.27400000E+01           0.00000000E+00
   0.27500000E+01           0.00000000E+00
   0.27600000E+01           0.00000000E+00
   0.27700000E+01           0.00000000E+00
   0.27800000E+01           0.00000000E+00
   0.27900000E+01           0.00000000E+00
   0.28000000E+01           0.00000000E+00
   0.28100000E+01           0.00000000E+00
   0.28200000E+01           0.00000000E+00
   0.28300000E+01           0.00000000E+00
   0.28400000E+01           0.00000000E+00
   0.28500000E+01           0.00000000E+00
   0.28600000E+01           0.00000000E+00
   0.28700000E+01           0.00000000E+00
   0.28800000E+01           0.00000000E+00
   0.28900000E+01           0.00000000E+00
   0.29000000E+01           0.00000000E+00
   0.29100000E+01           0.00000000E+00
   0.29200000E+01           0.00000000E+00
   0.29300000E+01           0.00000000E+00
   0.29400000E+01           0.00000000E+00
   0.29500000E+01           0.00000000E+00
   0.29600000E+01           0.00000000E+00
   0.29700000E+01           0.00000000E+00
   0.29800000E+01           0.00000000E+00
   0.29900000E+01           0.00000000E+00
   0.30000000E+01           0.00000000E+00
   0.30100000E+01           0.00000000E+00
   0.30200000E+01           0.00000000E+00
   0.30300000E+01           0.00000000E+00
   0.30400000E+01           0.00000000E+00
   0.30500000E+01           0.00000000E+00
   0.30600000E+01           0.00000000E+00
   0.30700000E+01           0.00000000E+00
   0.30800000E+01           0.00000000E+00
   0.30900000E+01           0.00000000E+00
   0.31000000E+01           0.00000000E+00
   0.31100000E+01           0.00000000E+00
   0.31200000E+01           0.00000000E+00
   0.31300000E+01           0.00000000E+00
   0.31400000E+01           0.00000000E+00
   0.31500000E+01           0.00000000E+00
   0.31600000E+01           0.00000000E+00
   0.31700000E+01           0.00000000E+00
   0.31800000E+01           0.00000000E+00
   0.31900000E+01           0.00000000E+00
   0.32000000E+01           0.00000000E+00
   0.32100000E+01           0.00000000E+00
   0.32200000E+01           0.00000000E+00
   0.32300000E+01           0.00000000E+00
   0.32400000E+01           0.00000000E+00
   0.32500000E+01           0.00000000E+00
   0.32600000E+01           0.00000000E+00
   0.32700000E+01           0.00000000E+00
   0.32800000E+01           0.00000000E+00
   0.32900000E+01           0.00000000E+00
   0.33000000E+01           0.00000000E+00
   0.33100000E+01           0.00000000E+00
   0.33200000E+01           0.00000000E+00
   0.33300000E+01           0.00000000E+00
   0.33400000E+01           0.00000000E+00
   0.33500000E+01           0.00000000E+00
   0.33600000E+01           0.00000000E+00
   0.33700000E+01           0.00000000E+00
   0.33800000E+01           0.00000000E+00
   0.33900000E+01           0.00000000E+00
   0.34000000E+01           0.00000000E+00
   0.34100000E+01           0.00000000E+00
   0.34200000E+01           0.00000000E+00
   0.34300000E+01           0.00000000E+00
   0.34400000E+01           0.00000000E+00
   0.34500000E+01           0.00000000E+00
   0.34600000E+01           0.00000000E+00
   0.34700000E+01           0.00000000E+00
   0.34800000E+01           0.00000000E+00
   0.34900000E+01           0.00000000E+00
   0.35000000E+01           0.00000000E+00
   0.35100000E+01           0.00000000E+00
   0.35200000E+01           0.00000000E+00
   0.35300000E+01           0.00000000E+00
   0.35400000E+01           0.00000000E+00
   0.35500000E+01           0.00000000E+00
   0.35600000E+01           0.00000000E+00
   0.35700000E+01           0.00000000E+00
   0.35800000E+01           0.00000000E+00
   0.35900000E+01           0.00000000E+00
   0.36000000E+01           0.00000000E+00
   0.36100000E+01           0.00000000E+00
   0.36200000E+01           0.00000000E+00
   0.36300000E+01           0.00000000E+00
   0.36400000E+01           0.00000000E+00
   0.36500000E+01           0.00000000E+00
   0.36600000E+01           0.00000000E+00
   0.36700000E+01           0.00000000E+00
   0.36800000E+01           0.00000000E+00
   0.36900000E+01           0.00000000E+00
   0.37000000E+01           0.00000000E+00
   0.37100000E+01           0.00000000E+00
   0.37200000E+01           0.00000000E+00
   0.37300000E+01           0.00000000E+00
   0.37400000E+01           0.00000000E+00
   0.37500000E+01           0.00000000E+00
   0.37600000E+01           0.00000000E+00
   0.37700000E+01           0.00000000E+00
   0.37800000E+01           0.00000000E+00
   0.37900000E+01           0.00000000E+00
   0.38000000E+01           0.00000000E+00
   0.38100000E+01           0.00000000E+00
   0.38200000E+01           0.00000000E+00
   0.38300000E+01           0.00000000E+00
   0.38400000E+01           0.00000000E+00
   0.38500000E+01           0.00000000E+00
   0.38600000E+01           0.00000000E+00
   0.38700000E+01           0.00000000E+00
   0.38800000E+01           0.00000000E+00
   0.38900000E+01           0.00000000E+00
   0.39000000E+01           0.00000000E+00
   0.39100000E+01           0.00000000E+00
   0.39200000E+01           0.00000000E+00
   0.39300000E+01           0.00000000E+00
   0.39400000E+01           0.00000000E+00
   0.39500000E+01           0.00000000E+00
   0.39600000E+01           0.00000000E+00
   0.39700000E+01           0.00000000E+00
   0.39800000E+01           0.00000000E+00
   0.39900000E+01           0.00000000E+00
   0.40000000E+01           0.00000000E+00
 #T=    12.0000
  -0.40000000E+01           0.00000000E+00
  -0.39900000E+01           0.00000000E+00
  -0.39800000E+01           0.00000000E+00
  -0.39700000E+01           0.00000000E+00
  -0.39600000E+01           0.00000000E+00
  -0.39500000E+01           0.00000000E+00
  -0.39400000E+01           0.00000000E+00
  -0.39300000E+01           0.00000000E+00
  -0.39200000E+01           0.00000000E+00
  -0.39100000E+01           0.00000000E+00
  -0.39000000E+01           0.00000000E+00
  -0.38900000E+01           0.00000000E+00
  -0.38800000E+01           0.00000000E+00
  -0.38700000E+01           0.00000000E+00
  -0.38600000E+01           0.00000000E+00
  -0.38500000E+01           0.00000000E+00
  -0.38400000E+01           0.00000000E+00
  -0.38300000E+01           0.00000000E+00
  -0.38200000E+01           0.00000000E+00
  -0.38100000E+01           0.00000000E+00
  -0.38000000E+01           0.00000000E+00
  -0.37900000E+01           0.00000000E+00
  -0.37800000E+01           0.00000000E+00
  -0.37700000E+01           0.00000000E+00
  -0.37600000E+01           0.00000000E+00
  -0.37500000E+01           0.00000000E+00
  -0.37400000E+01           0.00000000E+00
  -0.37300000E+01           0.00000000E+00
  -0.37200000E+01           0.00000000E+00
  -0.37100000E+01           0.00000000E+00
  -0.37000000E+01           0.00000000E+00
  -0.36900000E+01           0.00000000E+00
  -0.36800000E+01           0.00000000E+00
  -0.36700000E+01           0.00000000E+00
  -0.36600000E+01           0.00000000E+00
  -0.36500000E+01           0.00000000E+00
  -0.36400000E+01           0.00000000E+00
  -0.36300000E+01           0.00000000E+00
  -0.36200000E+01           0.00000000E+00
  -0.36100000E+01           0.00000000E+00
  -0.36000000E+01           0.00000000E+00
  -0.35900000E+01           0.00000000E+00
  -0.35800000E+01           0.00000000E+00
  -0.35700000E+01           0.00000000E+00
  -0.35600000E+01           0.00000000E+00
  -0.35500000E+01           0.00000000E+00
  -0.35400000E+01           0.00000000E+00
  -0.35300000E+01           0.00000000E+00
  -0.35200000E+01           0.00000000E+00
  -0.35100000E+01           0.00000000E+00
  -0.35000000E+01           0.00000000E+00
  -0.34900000E+01           0.00000000E+00
  -0.34800000E+01           0.00000000E+00
  -0.34700000E+01           0.00000000E+00
  -0.34600000E+01           0.00000000E+00
  -0.34500000E+01           0.00000000E+00
  -0.34400000E+01           0.00000000E+00
  -0.34300000E+01           0.00000000E+00
  -0.34200000E+01           0.00000000E+00
  -0.34100000E+01           0.00000000E+00
  -0.34000000E+01           0.00000000E+00
  -0.33900000E+01           0.00000000E+00
  -0.33800000E+01           0.00000000E+00
  -0.33700000E+01           0.00000000E+00
  -0.33600000E+01           0.00000000E+00
  -0.33500000E+01           0.00000000E+00
  -0.33400000E+01           0.00000000E+00
  -0.33300000E+01           0.00000000E+00
  -0.33200000E+01           0.00000000E+00
  -0.33100000E+01           0.00000000E+00
  -0.33000000E+01           0.00000000E+00
  -0.32900000E+01           0.00000000E+00
  -0.32800000E+01           0.00000000E+00
  -0.32700000E+01           0.00000000E+00
  -0.32600000E+01           0.00000000E+00
  -0.32500000E+01           0.00000000E+00
  -0.32400000E+01           0.00000000E+00
  -0.32300000E+01           0.00000000E+00
  -0.32200000E+01           0.00000000E+00
  -0.32100000E+01           0.00000000E+00
  -0.32000000E+01           0.00000000E+00
  -0.31900000E+01           0.00000000E+00
  -0.31800000E+01           0.00000000E+00
  -0.31700000E+01           0.00000000E+00
  -0.31600000E+01           0.00000000E+00
  -0.31500000E+01           0.00000000E+00
  -0.31400000E+01           0.00000000E+00
  -0.31300000E+01           0.00000000E+00
  -0.31200000E+01           0.00000000E+00
  -0.31100000E+01           0.00000000E+00
  -0.31000000E+01           0.00000000E+00
  -0.30900000E+01           0.00000000E+00
  -0.30800000E+01           0.00000000E+00
  -0.30700000E+01           0.00000000E+00
  -0.30600000E+01           0.00000000E+00
  -0.30500000E+01           0.00000000E+00
  -0.30400000E+01           0.00000000E+00
  -0.30300000E+01           0.00000000E+00
  -0.30200000E+01           0.00000000E+00
  -0.30100000E+01           0.00000000E+00
  -0.30000000E+01           0.00000000E+00
  -0.29900000E+01           0.00000000E+00
  -0.29800000E+01           0.00000000E+00
  -0.29700000E+01           0.00000000E+00
  -0.29600000E+01           0.00000000E+00
  -0.29500000E+01           0.00000000E+00
  -0.29400000E+01           0.00000000E+00
  -0.29300000E+01           0.00000000E+00
  -0.29200000E+01           0.00000000E+00
  -0.29100000E+01           0.00000000E+00
  -0.29000000E+01           0.00000000E+00
  -0.28900000E+01           0.00000000E+00
  -0.28800000E+01           0.00000000E+00
  -0.28700000E+01           0.00000000E+00
  -0.28600000E+01           0.00000000E+00
  -0.28500000E+01           0.00000000E+00
  -0.28400000E+01           0.00000000E+00
  -0.28300000E+01           0.00000000E+00
  -0.28200000E+01           0.00000000E+00
  -0.28100000E+01           0.00000000E+00
  -0.28000000E+01           0.00000000E+00
  -0.27900000E+01           0.00000000E+00
  -0.27800000E+01           0.00000000E+00
  -0.27700000E+01           0.00000000E+00
  -0.27600000E+01           0.00000000E+00
  -0.27500000E+01           0.00000000E+00
  -0.27400000E+01           0.00000000E+00
  -0.27300000E+01           0.00000000E+00
  -0.27200000E+01           0.00000000E+00
  -0.27100000E+01           0.00000000E+00
  -0.27000000E+01           0.00000000E+00
  -0.26900000E+01           0.00000000E+00
  -0.26800000E+01           0.00000000E+00
  -0.26700000E+01           0.00000000E+00
  -0.26600000E+01           0.00000000E+00
  -0.26500000E+01           0.00000000E+00
  -0.26400000E+01           0.00000000E+00
  -0.26300000E+01           0.00000000E+00
  -0.26200000E+01           0.00000000E+00
  -0.26100000E+01           0.00000000E+00
  -0.26000000E+01           0.00000000E+00
  -0.25900000E+01           0.00000000E+00
  -0.25800000E+01           0.00000000E+00
  -0.25700000E+01           0.00000000E+00
  -0.25600000E+01           0.00000000E+00
  -0.25500000E+01           0.00000000E+00
  -0.25400000E+01           0.00000000E+00
  -0.25300000E+01           0.00000000E+00
  -0.25200000E+01           0.00000000E+00
  -0.25100000E+01           0.00000000E+00
  -0.25000000E+01           0.00000000E+00
  -0.24900000E+01           0.00000000E+00
  -0.24800000E+01           0.00000000E+00
  -0.24700000E+01           0.00000000E+00
  -0.24600000E+01           0.00000000E+00
  -0.24500000E+01           0.00000000E+00
  -0.24400000E+01           0.00000000E+00
  -0.24300000E+01           0.00000000E+00
  -0.24200000E+01           0.00000000E+00
  -0.24100000E+01           0.00000000E+00
  -0.24000000E+01           0.00000000E+00
  -0.23900000E+01           0.00000000E+00
  -0.23800000E+01           0.00000000E+00
  -0.23700000E+01           0.00000000E+00
  -0.23600000E+01           0.00000000E+00
  -0.23500000E+01           0.00000000E+00
  -0.23400000E+01           0.00000000E+00
  -0.23300000E+01           0.00000000E+00
  -0.23200000E+01           0.00000000E+00
  -0.23100000E+01           0.00000000E+00
  -0.23000000E+01           0.00000000E+00
  -0.22900000E+01           0.00000000E+00
  -0.22800000E+01           0.00000000E+00
  -0.22700000E+01           0.00000000E+00
  -0.22600000E+01           0.00000000E+00
  -0.22500000E+01           0.00000000E+00
  -0.22400000E+01           0.00000000E+00
  -0.22300000E+01           0.00000000E+00
  -0.22200000E+01           0.00000000E+00
  -0.22100000E+01           0.00000000E+00
  -0.22000000E+01           0.00000000E+00
  -0.21900000E+01           0.00000000E+00
  -0.21800000E+01           0.00000000E+00
  -0.21700000E+01           0.00000000E+00
  -0.21600000E+01           0.00000000E+00
  -0.21500000E+01           0.00000000E+00
  -0.21400000E+01           0.00000000E+00
  -0.21300000E+01           0.00000000E+00
  -0.21200000E+01           0.00000000E+00
  -0.21100000E+01           0.00000000E+00
  -0.21000000E+01           0.00000000E+00
  -0.20900000E+01           0.00000000E+00
  -0.20800000E+01           0.00000000E+00
  -0.20700000E+01           0.00000000E+00
  -0.20600000E+01           0.00000000E+00
  -0.20500000E+01           0.00000000E+00
  -0.20400000E+01           0.00000000E+00
  -0.20300000E+01           0.00000000E+00
  -0.20200000E+01           0.00000000E+00
  -0.20100000E+01           0.00000000E+00
  -0.20000000E+01           0.00000000E+00
  -0.19900000E+01           0.00000000E+00
  -0.19800000E+01           0.00000000E+00
  -0.19700000E+01           0.00000000E+00
  -0.19600000E+01           0.00000000E+00
  -0.19500000E+01           0.00000000E+00
  -0.19400000E+01           0.00000000E+00
  -0.19300000E+01           0.00000000E+00
  -0.19200000E+01           0.00000000E+00
  -0.19100000E+01           0.00000000E+00
  -0.19000000E+01           0.00000000E+00
  -0.18900000E+01           0.00000000E+00
  -0.18800000E+01           0.00000000E+00
  -0.18700000E+01           0.00000000E+00
  -0.18600000E+01           0.00000000E+00
  -0.18500000E+01           0.00000000E+00
  -0.18400000E+01           0.00000000E+00
  -0.18300000E+01           0.00000000E+00
  -0.18200000E+01           0.00000000E+00
  -0.18100000E+01           0.00000000E+00
  -0.18000000E+01           0.00000000E+00
  -0.17900000E+01           0.00000000E+00
  -0.17800000E+01           0.00000000E+00
  -0.17700000E+01           0.00000000E+00
  -0.17600000E+01           0.00000000E+00
  -0.17500000E+01           0.00000000E+00
  -0.17400000E+01           0.00000000E+00
  -0.17300000E+01           0.00000000E+00
  -0.17200000E+01           0.00000000E+00
  -0.17100000E+01           0.00000000E+00
  -0.17000000E+01           0.00000000E+00
  -0.16900000E+01           0.00000000E+00
  -0.16800000E+01           0.00000000E+00
  -0.16700000E+01           0.00000000E+00
  -0.16600000E+01           0.00000000E+00
  -0.16500000E+01           0.00000000E+00
  -0.16400000E+01           0.00000000E+00
  -0.16300000E+01           0.00000000E+00
  -0.16200000E+01           0.00000000E+00
  -0.16100000E+01           0.00000000E+00
  -0.16000000E+01           0.00000000E+00
  -0.15900000E+01           0.00000000E+00
  -0.15800000E+01           0.00000000E+00
  -0.15700000E+01           0.00000000E+00
  -0.15600000E+01           0.00000000E+00
  -0.15500000E+01           0.00000000E+00
  -0.15400000E+01           0.00000000E+00
  -0.15300000E+01           0.00000000E+00
  -0.15200000E+01           0.00000000E+00
  -0.15100000E+01           0.00000000E+00
  -0.15000000E+01           0.00000000E+00
  -0.14900000E+01           0.00000000E+00
  -0.14800000E+01           0.00000000E+00
  -0.14700000E+01           0.00000000E+00
  -0.14600000E+01           0.00000000E+00
  -0.14500000E+01           0.00000000E+00
  -0.14400000E+01           0.00000000E+00
  -0.14300000E+01           0.00000000E+00
  -0.14200000E+01           0.00000000E+00
  -0.14100000E+01           0.00000000E+00
  -0.14000000E+01           0.00000000E+00
  -0.13900000E+01           0.00000000E+00
  -0.13800000E+01           0.00000000E+00
  -0.13700000E+01           0.00000000E+00
  -0.13600000E+01           0.00000000E+00
  -0.13500000E+01           0.00000000E+00
  -0.13400000E+01           0.00000000E+00
  -0.13300000E+01           0.00000000E+00
  -0.13200000E+01           0.00000000E+00
  -0.13100000E+01           0.00000000E+00
  -0.13000000E+01           0.00000000E+00
  -0.12900000E+01           0.00000000E+00
  -0.12800000E+01           0.00000000E+00
  -0.12700000E+01           0.00000000E+00
  -0.12600000E+01           0.00000000E+00
  -0.12500000E+01           0.00000000E+00
  -0.12400000E+01           0.00000000E+00
  -0.12300000E+01           0.00000000E+00
  -0.12200000E+01           0.00000000E+00
  -0.12100000E+01           0.00000000E+00
  -0.12000000E+01           0.00000000E+00
  -0.11900000E+01           0.00000000E+00
  -0.11800000E+01           0.00000000E+00
  -0.11700000E+01           0.00000000E+00
  -0.11600000E+01           0.00000000E+00
  -0.11500000E+01           0.00000000E+00
  -0.11400000E+01           0.00000000E+00
  -0.11300000E+01           0.00000000E+00
  -0.11200000E+01           0.00000000E+00
  -0.11100000E+01           0.00000000E+00
  -0.11000000E+01           0.00000000E+00
  -0.10900000E+01           0.00000000E+00
  -0.10800000E+01           0.00000000E+00
  -0.10700000E+01           0.00000000E+00
  -0.10600000E+01           0.00000000E+00
  -0.10500000E+01           0.00000000E+00
  -0.10400000E+01           0.00000000E+00
  -0.10300000E+01           0.00000000E+00
  -0.10200000E+01           0.00000000E+00
  -0.10100000E+01           0.00000000E+00
  -0.10000000E+01           0.00000000E+00
  -0.99000000E+00           0.00000000E+00
  -0.98000000E+00           0.00000000E+00
  -0.97000000E+00           0.00000000E+00
  -0.96000000E+00           0.00000000E+00
  -0.95000000E+00           0.00000000E+00
  -0.94000000E+00           0.00000000E+00
  -0.93000000E+00           0.00000000E+00
  -0.92000000E+00           0.00000000E+00
  -0.91000000E+00           0.00000000E+00
  -0.90000000E+00           0.00000000E+00
  -0.89000000E+00           0.00000000E+00
  -0.88000000E+00           0.00000000E+00
  -0.87000000E+00           0.00000000E+00
  -0.86000000E+00           0.00000000E+00
  -0.85000000E+00           0.00000000E+00
  -0.84000000E+00           0.00000000E+00
  -0.83000000E+00           0.00000000E+00
  -0.82000000E+00           0.00000000E+00
  -0.81000000E+00           0.00000000E+00
  -0.80000000E+00           0.00000000E+00
  -0.79000000E+00           0.00000000E+00
  -0.78000000E+00           0.00000000E+00
  -0.77000000E+00           0.00000000E+00
  -0.76000000E+00           0.00000000E+00
  -0.75000000E+00           0.00000000E+00
  -0.74000000E+00           0.00000000E+00
  -0.73000000E+00           0.00000000E+00
  -0.72000000E+00           0.00000000E+00
  -0.71000000E+00           0.00000000E+00
  -0.70000000E+00           0.00000000E+00
  -0.69000000E+00           0.00000000E+00
  -0.68000000E+00           0.00000000E+00
  -0.67000000E+00           0.00000000E+00
  -0.66000000E+00           0.00000000E+00
  -0.65000000E+00           0.00000000E+00
  -0.64000000E+00           0.00000000E+00
  -0.63000000E+00           0.00000000E+00
  -0.62000000E+00           0.00000000E+00
  -0.61000000E+00           0.00000000E+00
  -0.60000000E+00           0.00000000E+00
  -0.59000000E+00           0.00000000E+00
  -0.58000000E+00           0.00000000E+00
  -0.57000000E+00           0.00000000E+00
  -0.56000000E+00           0.00000000E+00
  -0.55000000E+00           0.00000000E+00
  -0.54000000E+00           0.00000000E+00
  -0.53000000E+00           0.00000000E+00
  -0.52000000E+00           0.00000000E+00
  -0.51000000E+00           0.00000000E+00
  -0.50000000E+00           0.00000000E+00
  -0.49000000E+00           0.00000000E+00
  -0.48000000E+00           0.00000000E+00
  -0.47000000E+00           0.00000000E+00
  -0.46000000E+00           0.00000000E+00
  -0.45000000E+00           0.00000000E+00
  -0.44000000E+00           0.00000000E+00
  -0.43000000E+00           0.00000000E+00
  -0.42000000E+00           0.00000000E+00
  -0.41000000E+00           0.00000000E+00
  -0.40000000E+00           0.00000000E+00
  -0.39000000E+00           0.00000000E+00
  -0.38000000E+00           0.00000000E+00
  -0.37000000E+00           0.00000000E+00
  -0.36000000E+00           0.00000000E+00
  -0.35000000E+00           0.00000000E+00
  -0.34000000E+00           0.00000000E+00
  -0.33000000E+00           0.00000000E+00
  -0.32000000E+00           0.00000000E+00
  -0.31000000E+00           0.00000000E+00
  -0.30000000E+00           0.00000000E+00
  -0.29000000E+00           0.00000000E+00
  -0.28000000E+00           0.00000000E+00
  -0.27000000E+00           0.00000000E+00
  -0.26000000E+00           0.00000000E+00
  -0.25000000E+00           0.00000000E+00
  -0.24000000E+00           0.00000000E+00
  -0.23000000E+00           0.00000000E+00
  -0.22000000E+00           0.00000000E+00
  -0.21000000E+00           0.00000000E+00
  -0.20000000E+00           0.00000000E+00
  -0.19000000E+00           0.00000000E+00
  -0.18000000E+00           0.00000000E+00
  -0.17000000E+00           0.00000000E+00
  -0.16000000E+00           0.00000000E+00
  -0.15000000E+00           0.00000000E+00
  -0.14000000E+00           0.00000000E+00
  -0.13000000E+00           0.00000000E+00
  -0.12000000E+00           0.00000000E+00
  -0.11000000E+00           0.00000000E+00
  -0.10000000E+00           0.00000000E+00
  -0.90000000E-01           0.00000000E+00
  -0.80000000E-01           0.00000000E+00
  -0.70000000E-01           0.00000000E+00
  -0.60000000E-01           0.00000000E+00
  -0.50000000E-01           0.00000000E+00
  -0.40000000E-01           0.00000000E+00
  -0.30000000E-01           0.00000000E+00
  -0.20000000E-01           0.00000000E+00
  -0.10000000E-01           0.00000000E+00
   0.00000000E+00           0.26129630E-03
   0.10000000E-01           0.64601852E-02
   0.20000000E-01           0.22949815E-01
   0.30000000E-01           0.48414630E-01
   0.40000000E-01           0.79513148E-01
   0.50000000E-01           0.11684352E+00
   0.60000000E-01           0.15826815E+00
   0.70000000E-01           0.20233389E+00
   0.80000000E-01           0.24980185E+00
   0.90000000E-01           0.29835778E+00
   0.10000000E+00           0.34800759E+00
   0.11000000E+00           0.39748259E+00
   0.12000000E+00           0.44722500E+00
   0.13000000E+00           0.49810685E+00
   0.14000000E+00           0.54795111E+00
   0.15000000E+00           0.59618796E+00
   0.16000000E+00           0.64496722E+00
   0.17000000E+00           0.69120370E+00
   0.18000000E+00           0.73628130E+00
   0.19000000E+00           0.78264815E+00
   0.20000000E+00           0.82411463E+00
   0.21000000E+00           0.86734148E+00
   0.22000000E+00           0.90548722E+00
   0.23000000E+00           0.94422444E+00
   0.24000000E+00           0.98047204E+00
   0.25000000E+00           0.10143778E+01
   0.26000000E+00           0.10491241E+01
   0.27000000E+00           0.10807780E+01
   0.28000000E+00           0.11102422E+01
   0.29000000E+00           0.11385198E+01
   0.30000000E+00           0.11651904E+01
   0.31000000E+00           0.11890076E+01
   0.32000000E+00           0.12122104E+01
   0.33000000E+00           0.12339093E+01
   0.34000000E+00           0.12544013E+01
   0.35000000E+00           0.12716956E+01
   0.36000000E+00           0.12874080E+01
   0.37000000E+00           0.13026424E+01
   0.38000000E+00           0.13157567E+01
   0.39000000E+00           0.13279694E+01
   0.40000000E+00           0.13376991E+01
   0.41000000E+00           0.13470100E+01
   0.42000000E+00           0.13516622E+01
   0.43000000E+00           0.13576341E+01
   0.44000000E+00           0.13608581E+01
   0.45000000E+00           0.13632069E+01
   0.46000000E+00           0.13640159E+01
   0.47000000E+00           0.13635674E+01
   0.48000000E+00           0.13618869E+01
   0.49000000E+00           0.13603483E+01
   0.50000000E+00           0.13553059E+01
   0.51000000E+00           0.13477265E+01
   0.52000000E+00           0.13439791E+01
   0.53000000E+00           0.13354441E+01
   0.54000000E+00           0.13258465E+01
   0.55000000E+00           0.13166948E+01
   0.56000000E+00           0.13046226E+01
   0.57000000E+00           0.12933031E+01
   0.58000000E+00           0.12801070E+01
   0.59000000E+00           0.12663050E+01
   0.60000000E+00           0.12517157E+01
   0.61000000E+00           0.12372543E+01
   0.62000000E+00           0.12200391E+01
   0.63000000E+00           0.12029120E+01
   0.64000000E+00           0.11860619E+01
   0.65000000E+00           0.11675191E+01
   0.66000000E+00           0.11497007E+01
   0.67000000E+00           0.11287031E+01
   0.68000000E+00           0.11103391E+01
   0.69000000E+00           0.10893824E+01
   0.70000000E+00           0.10701702E+01
   0.71000000E+00           0.10489950E+01
   0.72000000E+00           0.10278274E+01
   0.73000000E+00           0.10068011E+01
   0.74000000E+00           0.98496500E+00
   0.75000000E+00           0.96206056E+00
   0.76000000E+00           0.94217963E+00
   0.77000000E+00           0.91927056E+00
   0.78000000E+00           0.89655593E+00
   0.79000000E+00           0.87541722E+00
   0.80000000E+00           0.85236944E+00
   0.81000000E+00           0.83041981E+00
   0.82000000E+00           0.80915648E+00
   0.83000000E+00           0.78626370E+00
   0.84000000E+00           0.76463630E+00
   0.85000000E+00           0.74245741E+00
   0.86000000E+00           0.72084833E+00
   0.87000000E+00           0.70003167E+00
   0.88000000E+00           0.67927815E+00
   0.89000000E+00           0.65715796E+00
   0.90000000E+00           0.63627519E+00
   0.91000000E+00           0.61602296E+00
   0.92000000E+00           0.59584667E+00
   0.93000000E+00           0.57679685E+00
   0.94000000E+00           0.55716759E+00
   0.95000000E+00           0.53827630E+00
   0.96000000E+00           0.51929000E+00
   0.97000000E+00           0.50023204E+00
   0.98000000E+00           0.48229296E+00
   0.99000000E+00           0.46467074E+00
   0.10000000E+01           0.44739037E+00
   0.10100000E+01           0.43056685E+00
   0.10200000E+01           0.41331778E+00
   0.10300000E+01           0.39811519E+00
   0.10400000E+01           0.38137019E+00
   0.10500000E+01           0.36597870E+00
   0.10600000E+01           0.35146630E+00
   0.10700000E+01           0.33701667E+00
   0.10800000E+01           0.32271056E+00
   0.10900000E+01           0.30943426E+00
   0.11000000E+01           0.29550870E+00
   0.11100000E+01           0.28272685E+00
   0.11200000E+01           0.27005593E+00
   0.11300000E+01           0.25863444E+00
   0.11400000E+01           0.24672407E+00
   0.11500000E+01           0.23544370E+00
   0.11600000E+01           0.22421000E+00
   0.11700000E+01           0.21384204E+00
   0.11800000E+01           0.20337463E+00
   0.11900000E+01           0.19414333E+00
   0.12000000E+01           0.18460167E+00
   0.12100000E+01           0.17495944E+00
   0.12200000E+01           0.16652481E+00
   0.12300000E+01           0.15811019E+00
   0.12400000E+01           0.15036148E+00
   0.12500000E+01           0.14234519E+00
   0.12600000E+01           0.13483278E+00
   0.12700000E+01           0.12769944E+00
   0.12800000E+01           0.12107667E+00
   0.12900000E+01           0.11475204E+00
   0.13000000E+01           0.10856778E+00
   0.13100000E+01           0.10263537E+00
   0.13200000E+01           0.97099630E-01
   0.13300000E+01           0.91594259E-01
   0.13400000E+01           0.86465370E-01
   0.13500000E+01           0.81519074E-01
   0.13600000E+01           0.76995185E-01
   0.13700000E+01           0.72402778E-01
   0.13800000E+01           0.68008519E-01
   0.13900000E+01           0.63928889E-01
   0.14000000E+01           0.60287222E-01
   0.14100000E+01           0.56679074E-01
   0.14200000E+01           0.53390556E-01
   0.14300000E+01           0.50035370E-01
   0.14400000E+01           0.47021111E-01
   0.14500000E+01           0.43809074E-01
   0.14600000E+01           0.41178889E-01
   0.14700000E+01           0.38658333E-01
   0.14800000E+01           0.36243333E-01
   0.14900000E+01           0.33722407E-01
   0.15000000E+01           0.31495926E-01
   0.15100000E+01           0.29627778E-01
   0.15200000E+01           0.27584259E-01
   0.15300000E+01           0.25673519E-01
   0.15400000E+01           0.24026111E-01
   0.15500000E+01           0.22457593E-01
   0.15600000E+01           0.20785926E-01
   0.15700000E+01           0.19498148E-01
   0.15800000E+01           0.18172407E-01
   0.15900000E+01           0.16810741E-01
   0.16000000E+01           0.15654630E-01
   0.16100000E+01           0.14601111E-01
   0.16200000E+01           0.13512963E-01
   0.16300000E+01           0.12519815E-01
   0.16400000E+01           0.11635000E-01
   0.16500000E+01           0.10852037E-01
   0.16600000E+01           0.10034815E-01
   0.16700000E+01           0.91927778E-02
   0.16800000E+01           0.86324074E-02
   0.16900000E+01           0.79157407E-02
   0.17000000E+01           0.72761111E-02
   0.17100000E+01           0.67251852E-02
   0.17200000E+01           0.61859259E-02
   0.17300000E+01           0.57748148E-02
   0.17400000E+01           0.52935185E-02
   0.17500000E+01           0.49201852E-02
   0.17600000E+01           0.44731481E-02
   0.17700000E+01           0.41431481E-02
   0.17800000E+01           0.38424074E-02
   0.17900000E+01           0.35155556E-02
   0.18000000E+01           0.31511111E-02
   0.18100000E+01           0.29694444E-02
   0.18200000E+01           0.27433333E-02
   0.18300000E+01           0.24774074E-02
   0.18400000E+01           0.23346296E-02
   0.18500000E+01           0.20929630E-02
   0.18600000E+01           0.18944444E-02
   0.18700000E+01           0.17524074E-02
   0.18800000E+01           0.15861111E-02
   0.18900000E+01           0.14866667E-02
   0.19000000E+01           0.13383333E-02
   0.19100000E+01           0.12466667E-02
   0.19200000E+01           0.11144444E-02
   0.19300000E+01           0.10112963E-02
   0.19400000E+01           0.91444444E-03
   0.19500000E+01           0.83907407E-03
   0.19600000E+01           0.79055556E-03
   0.19700000E+01           0.66314815E-03
   0.19800000E+01           0.63851852E-03
   0.19900000E+01           0.57240741E-03
   0.20000000E+01           0.52388889E-03
   0.20100000E+01           0.49055556E-03
   0.20200000E+01           0.42518519E-03
   0.20300000E+01           0.38518519E-03
   0.20400000E+01           0.34074074E-03
   0.20500000E+01           0.31222222E-03
   0.20600000E+01           0.26925926E-03
   0.20700000E+01           0.26166667E-03
   0.20800000E+01           0.24148148E-03
   0.20900000E+01           0.21296296E-03
   0.21000000E+01           0.17407407E-03
   0.21100000E+01           0.17296296E-03
   0.21200000E+01           0.15500000E-03
   0.21300000E+01           0.14444444E-03
   0.21400000E+01           0.12740741E-03
   0.21500000E+01           0.10629630E-03
   0.21600000E+01           0.10148148E-03
   0.21700000E+01           0.89074074E-04
   0.21800000E+01           0.85740741E-04
   0.21900000E+01           0.72222222E-04
   0.22000000E+01           0.68333333E-04
   0.22100000E+01           0.57222222E-04
   0.22200000E+01           0.54629630E-04
   0.22300000E+01           0.47407407E-04
   0.22400000E+01           0.43333333E-04
   0.22500000E+01           0.36296296E-04
   0.22600000E+01           0.36851852E-04
   0.22700000E+01           0.27777778E-04
   0.22800000E+01           0.25000000E-04
   0.22900000E+01           0.21851852E-04
   0.23000000E+01           0.23703704E-04
   0.23100000E+01           0.16851852E-04
   0.23200000E+01           0.14629630E-04
   0.23300000E+01           0.14259259E-04
   0.23400000E+01           0.13518519E-04
   0.23500000E+01           0.10370370E-04
   0.23600000E+01           0.11666667E-04
   0.23700000E+01           0.77777778E-05
   0.23800000E+01           0.74074074E-05
   0.23900000E+01           0.87037037E-05
   0.24000000E+01           0.62962963E-05
   0.24100000E+01           0.38888889E-05
   0.24200000E+01           0.46296296E-05
   0.24300000E+01           0.59259259E-05
   0.24400000E+01           0.25925926E-05
   0.24500000E+01           0.38888889E-05
   0.24600000E+01           0.20370370E-05
   0.24700000E+01           0.37037037E-05
   0.24800000E+01           0.16666667E-05
   0.24900000E+01           0.18518519E-05
   0.25000000E+01           0.11111111E-05
   0.25100000E+01           0.31481481E-05
   0.25200000E+01           0.12962963E-05
   0.25300000E+01           0.37037037E-06
   0.25400000E+01           0.37037037E-06
   0.25500000E+01           0.11111111E-05
   0.25600000E+01           0.55555556E-06
   0.25700000E+01           0.74074074E-06
   0.25800000E+01           0.12962963E-05
   0.25900000E+01           0.37037037E-06
   0.26000000E+01           0.74074074E-06
   0.26100000E+01           0.00000000E+00
   0.26200000E+01           0.92592593E-06
   0.26300000E+01           0.37037037E-06
   0.26400000E+01           0.18518519E-06
   0.26500000E+01           0.18518519E-06
   0.26600000E+01           0.00000000E+00
   0.26700000E+01           0.18518519E-06
   0.26800000E+01           0.18518519E-06
   0.26900000E+01           0.00000000E+00
   0.27000000E+01           0.00000000E+00
   0.27100000E+01           0.00000000E+00
   0.27200000E+01           0.00000000E+00
   0.27300000E+01           0.00000000E+00
   0.27400000E+01           0.00000000E+00
   0.27500000E+01           0.18518519E-06
   0.27600000E+01           0.18518519E-06
   0.27700000E+01           0.18518519E-06
   0.27800000E+01           0.00000000E+00
   0.27900000E+01           0.37037037E-06
   0.28000000E+01           0.00000000E+00
   0.28100000E+01           0.00000000E+00
   0.28200000E+01           0.00000000E+00
   0.28300000E+01           0.00000000E+00
   0.28400000E+01           0.00000000E+00
   0.28500000E+01           0.00000000E+00
   0.28600000E+01           0.00000000E+00
   0.28700000E+01           0.00000000E+00
   0.28800000E+01           0.00000000E+00
   0.28900000E+01           0.00000000E+00
   0.29000000E+01           0.00000000E+00
   0.29100000E+01           0.00000000E+00
   0.29200000E+01           0.00000000E+00
   0.29300000E+01           0.00000000E+00
   0.29400000E+01           0.00000000E+00
   0.29500000E+01           0.00000000E+00
   0.29600000E+01           0.00000000E+00
   0.29700000E+01           0.00000000E+00
   0.29800000E+01           0.00000000E+00
   0.29900000E+01           0.00000000E+00
   0.30000000E+01           0.00000000E+00
   0.30100000E+01           0.00000000E+00
   0.30200000E+01           0.00000000E+00
   0.30300000E+01           0.00000000E+00
   0.30400000E+01           0.00000000E+00
   0.30500000E+01           0.00000000E+00
   0.30600000E+01           0.00000000E+00
   0.30700000E+01           0.00000000E+00
   0.30800000E+01           0.00000000E+00
   0.30900000E+01           0.00000000E+00
   0.31000000E+01           0.00000000E+00
   0.31100000E+01           0.00000000E+00
   0.31200000E+01           0.00000000E+00
   0.31300000E+01           0.00000000E+00
   0.31400000E+01           0.00000000E+00
   0.31500000E+01           0.00000000E+00
   0.31600000E+01           0.00000000E+00
   0.31700000E+01           0.00000000E+00
   0.31800000E+01           0.00000000E+00
   0.31900000E+01           0.00000000E+00
   0.32000000E+01           0.00000000E+00
   0.32100000E+01           0.00000000E+00
   0.32200000E+01           0.00000000E+00
   0.32300000E+01           0.00000000E+00
   0.32400000E+01           0.00000000E+00
   0.32500000E+01           0.00000000E+00
   0.32600000E+01           0.00000000E+00
   0.32700000E+01           0.00000000E+00
   0.32800000E+01           0.00000000E+00
   0.32900000E+01           0.00000000E+00
   0.33000000E+01           0.00000000E+00
   0.33100000E+01           0.00000000E+00
   0.33200000E+01           0.00000000E+00
   0.33300000E+01           0.00000000E+00
   0.33400000E+01           0.00000000E+00
   0.33500000E+01           0.00000000E+00
   0.33600000E+01           0.00000000E+00
   0.33700000E+01           0.00000000E+00
   0.33800000E+01           0.00000000E+00
   0.33900000E+01           0.00000000E+00
   0.34000000E+01           0.00000000E+00
   0.34100000E+01           0.00000000E+00
   0.34200000E+01           0.00000000E+00
   0.34300000E+01           0.00000000E+00
   0.34400000E+01           0.00000000E+00
   0.34500000E+01           0.00000000E+00
   0.34600000E+01           0.00000000E+00
   0.34700000E+01           0.00000000E+00
   0.34800000E+01           0.00000000E+00
   0.34900000E+01           0.00000000E+00
   0.35000000E+01           0.00000000E+00
   0.35100000E+01           0.00000000E+00
   0.35200000E+01           0.00000000E+00
   0.35300000E+01           0.00000000E+00
   0.35400000E+01           0.00000000E+00
   0.35500000E+01           0.00000000E+00
   0.35600000E+01           0.00000000E+00
   0.35700000E+01           0.00000000E+00
   0.35800000E+01           0.00000000E+00
   0.35900000E+01           0.00000000E+00
   0.36000000E+01           0.00000000E+00
   0.36100000E+01           0.00000000E+00
   0.36200000E+01           0.00000000E+00
   0.36300000E+01           0.00000000E+00
   0.36400000E+01           0.00000000E+00
   0.36500000E+01           0.00000000E+00
   0.36600000E+01           0.00000000E+00
   0.36700000E+01           0.00000000E+00
   0.36800000E+01           0.00000000E+00
   0.36900000E+01           0.00000000E+00
   0.37000000E+01           0.00000000E+00
   0.37100000E+01           0.00000000E+00
   0.37200000E+01           0.00000000E+00
   0.37300000E+01           0.00000000E+00
   0.37400000E+01           0.00000000E+00
   0.37500000E+01           0.00000000E+00
   0.37600000E+01           0.00000000E+00
   0.37700000E+01           0.00000000E+00
   0.37800000E+01           0.00000000E+00
   0.37900000E+01           0.00000000E+00
   0.38000000E+01           0.00000000E+00
   0.38100000E+01           0.00000000E+00
   0.38200000E+01           0.00000000E+00
   0.38300000E+01           0.00000000E+00
   0.38400000E+01           0.00000000E+00
   0.38500000E+01           0.00000000E+00
   0.38600000E+01           0.00000000E+00
   0.38700000E+01           0.00000000E+00
   0.38800000E+01           0.00000000E+00
   0.38900000E+01           0.00000000E+00
   0.39000000E+01           0.00000000E+00
   0.39100000E+01           0.00000000E+00
   0.39200000E+01           0.00000000E+00
   0.39300000E+01           0.00000000E+00
   0.39400000E+01           0.00000000E+00
   0.39500000E+01           0.00000000E+00
   0.39600000E+01           0.00000000E+00
   0.39700000E+01           0.00000000E+00
   0.39800000E+01           0.00000000E+00
   0.39900000E+01           0.00000000E+00
   0.40000000E+01           0.00000000E+00
 #T=    13.0000
  -0.40000000E+01           0.00000000E+00
  -0.39900000E+01           0.00000000E+00
  -0.39800000E+01           0.00000000E+00
  -0.39700000E+01           0.00000000E+00
  -0.39600000E+01           0.00000000E+00
  -0.39500000E+01           0.00000000E+00
  -0.39400000E+01           0.00000000E+00
  -0.39300000E+01           0.00000000E+00
  -0.39200000E+01           0.00000000E+00
  -0.39100000E+01           0.00000000E+00
  -0.39000000E+01           0.00000000E+00
  -0.38900000E+01           0.00000000E+00
  -0.38800000E+01           0.00000000E+00
  -0.38700000E+01           0.00000000E+00
  -0.38600000E+01           0.00000000E+00
  -0.38500000E+01           0.00000000E+00
  -0.38400000E+01           0.00000000E+00
  -0.38300000E+01           0.00000000E+00
  -0.38200000E+01           0.00000000E+00
  -0.38100000E+01           0.00000000E+00
  -0.38000000E+01           0.00000000E+00
  -0.37900000E+01           0.00000000E+00
  -0.37800000E+01           0.00000000E+00
  -0.37700000E+01           0.00000000E+00
  -0.37600000E+01           0.00000000E+00
  -0.37500000E+01           0.00000000E+00
  -0.37400000E+01           0.00000000E+00
  -0.37300000E+01           0.00000000E+00
  -0.37200000E+01           0.00000000E+00
  -0.37100000E+01           0.00000000E+00
  -0.37000000E+01           0.00000000E+00
  -0.36900000E+01           0.00000000E+00
  -0.36800000E+01           0.00000000E+00
  -0.36700000E+01           0.00000000E+00
  -0.36600000E+01           0.00000000E+00
  -0.36500000E+01           0.00000000E+00
  -0.36400000E+01           0.00000000E+00
  -0.36300000E+01           0.00000000E+00
  -0.36200000E+01           0.00000000E+00
  -0.36100000E+01           0.00000000E+00
  -0.36000000E+01           0.00000000E+00
  -0.35900000E+01           0.00000000E+00
  -0.35800000E+01           0.00000000E+00
  -0.35700000E+01           0.00000000E+00
  -0.35600000E+01           0.00000000E+00
  -0.35500000E+01           0.00000000E+00
  -0.35400000E+01           0.00000000E+00
  -0.35300000E+01           0.00000000E+00
  -0.35200000E+01           0.00000000E+00
  -0.35100000E+01           0.00000000E+00
  -0.35000000E+01           0.00000000E+00
  -0.34900000E+01           0.00000000E+00
  -0.34800000E+01           0.00000000E+00
  -0.34700000E+01           0.00000000E+00
  -0.34600000E+01           0.00000000E+00
  -0.34500000E+01           0.00000000E+00
  -0.34400000E+01           0.00000000E+00
  -0.34300000E+01           0.00000000E+00
  -0.34200000E+01           0.00000000E+00
  -0.34100000E+01           0.00000000E+00
  -0.34000000E+01           0.00000000E+00
  -0.33900000E+01           0.00000000E+00
  -0.33800000E+01           0.00000000E+00
  -0.33700000E+01           0.00000000E+00
  -0.33600000E+01           0.00000000E+00
  -0.33500000E+01           0.00000000E+00
  -0.33400000E+01           0.00000000E+00
  -0.33300000E+01           0.00000000E+00
  -0.33200000E+01           0.00000000E+00
  -0.33100000E+01           0.00000000E+00
  -0.33000000E+01           0.00000000E+00
  -0.32900000E+01           0.00000000E+00
  -0.32800000E+01           0.00000000E+00
  -0.32700000E+01           0.00000000E+00
  -0.32600000E+01           0.00000000E+00
  -0.32500000E+01           0.00000000E+00
  -0.32400000E+01           0.00000000E+00
  -0.32300000E+01           0.00000000E+00
  -0.32200000E+01           0.00000000E+00
  -0.32100000E+01           0.00000000E+00
  -0.32000000E+01           0.00000000E+00
  -0.31900000E+01           0.00000000E+00
  -0.31800000E+01           0.00000000E+00
  -0.31700000E+01           0.00000000E+00
  -0.31600000E+01           0.00000000E+00
  -0.31500000E+01           0.00000000E+00
  -0.31400000E+01           0.00000000E+00
  -0.31300000E+01           0.00000000E+00
  -0.31200000E+01           0.00000000E+00
  -0.31100000E+01           0.00000000E+00
  -0.31000000E+01           0.00000000E+00
  -0.30900000E+01           0.00000000E+00
  -0.30800000E+01           0.00000000E+00
  -0.30700000E+01           0.00000000E+00
  -0.30600000E+01           0.00000000E+00
  -0.30500000E+01           0.00000000E+00
  -0.30400000E+01           0.00000000E+00
  -0.30300000E+01           0.00000000E+00
  -0.30200000E+01           0.00000000E+00
  -0.30100000E+01           0.00000000E+00
  -0.30000000E+01           0.00000000E+00
  -0.29900000E+01           0.00000000E+00
  -0.29800000E+01           0.00000000E+00
  -0.29700000E+01           0.00000000E+00
  -0.29600000E+01           0.00000000E+00
  -0.29500000E+01           0.00000000E+00
  -0.29400000E+01           0.00000000E+00
  -0.29300000E+01           0.00000000E+00
  -0.29200000E+01           0.00000000E+00
  -0.29100000E+01           0.00000000E+00
  -0.29000000E+01           0.00000000E+00
  -0.28900000E+01           0.00000000E+00
  -0.28800000E+01           0.00000000E+00
  -0.28700000E+01           0.00000000E+00
  -0.28600000E+01           0.00000000E+00
  -0.28500000E+01           0.00000000E+00
  -0.28400000E+01           0.00000000E+00
  -0.28300000E+01           0.00000000E+00
  -0.28200000E+01           0.00000000E+00
  -0.28100000E+01           0.00000000E+00
  -0.28000000E+01           0.00000000E+00
  -0.27900000E+01           0.00000000E+00
  -0.27800000E+01           0.00000000E+00
  -0.27700000E+01           0.00000000E+00
  -0.27600000E+01           0.00000000E+00
  -0.27500000E+01           0.00000000E+00
  -0.27400000E+01           0.00000000E+00
  -0.27300000E+01           0.00000000E+00
  -0.27200000E+01           0.00000000E+00
  -0.27100000E+01           0.00000000E+00
  -0.27000000E+01           0.00000000E+00
  -0.26900000E+01           0.00000000E+00
  -0.26800000E+01           0.00000000E+00
  -0.26700000E+01           0.00000000E+00
  -0.26600000E+01           0.00000000E+00
  -0.26500000E+01           0.00000000E+00
  -0.26400000E+01           0.00000000E+00
  -0.26300000E+01           0.00000000E+00
  -0.26200000E+01           0.00000000E+00
  -0.26100000E+01           0.00000000E+00
  -0.26000000E+01           0.00000000E+00
  -0.25900000E+01           0.00000000E+00
  -0.25800000E+01           0.00000000E+00
  -0.25700000E+01           0.00000000E+00
  -0.25600000E+01           0.00000000E+00
  -0.25500000E+01           0.00000000E+00
  -0.25400000E+01           0.00000000E+00
  -0.25300000E+01           0.00000000E+00
  -0.25200000E+01           0.00000000E+00
  -0.25100000E+01           0.00000000E+00
  -0.25000000E+01           0.00000000E+00
  -0.24900000E+01           0.00000000E+00
  -0.24800000E+01           0.00000000E+00
  -0.24700000E+01           0.00000000E+00
  -0.24600000E+01           0.00000000E+00
  -0.24500000E+01           0.00000000E+00
  -0.24400000E+01           0.00000000E+00
  -0.24300000E+01           0.00000000E+00
  -0.24200000E+01           0.00000000E+00
  -0.24100000E+01           0.00000000E+00
  -0.24000000E+01           0.00000000E+00
  -0.23900000E+01           0.00000000E+00
  -0.23800000E+01           0.00000000E+00
  -0.23700000E+01           0.00000000E+00
  -0.23600000E+01           0.00000000E+00
  -0.23500000E+01           0.00000000E+00
  -0.23400000E+01           0.00000000E+00
  -0.23300000E+01           0.00000000E+00
  -0.23200000E+01           0.00000000E+00
  -0.23100000E+01           0.00000000E+00
  -0.23000000E+01           0.00000000E+00
  -0.22900000E+01           0.00000000E+00
  -0.22800000E+01           0.00000000E+00
  -0.22700000E+01           0.00000000E+00
  -0.22600000E+01           0.00000000E+00
  -0.22500000E+01           0.00000000E+00
  -0.22400000E+01           0.00000000E+00
  -0.22300000E+01           0.00000000E+00
  -0.22200000E+01           0.00000000E+00
  -0.22100000E+01           0.00000000E+00
  -0.22000000E+01           0.00000000E+00
  -0.21900000E+01           0.00000000E+00
  -0.21800000E+01           0.00000000E+00
  -0.21700000E+01           0.00000000E+00
  -0.21600000E+01           0.00000000E+00
  -0.21500000E+01           0.00000000E+00
  -0.21400000E+01           0.00000000E+00
  -0.21300000E+01           0.00000000E+00
  -0.21200000E+01           0.00000000E+00
  -0.21100000E+01           0.00000000E+00
  -0.21000000E+01           0.00000000E+00
  -0.20900000E+01           0.00000000E+00
  -0.20800000E+01           0.00000000E+00
  -0.20700000E+01           0.00000000E+00
  -0.20600000E+01           0.00000000E+00
  -0.20500000E+01           0.00000000E+00
  -0.20400000E+01           0.00000000E+00
  -0.20300000E+01           0.00000000E+00
  -0.20200000E+01           0.00000000E+00
  -0.20100000E+01           0.00000000E+00
  -0.20000000E+01           0.00000000E+00
  -0.19900000E+01           0.00000000E+00
  -0.19800000E+01           0.00000000E+00
  -0.19700000E+01           0.00000000E+00
  -0.19600000E+01           0.00000000E+00
  -0.19500000E+01           0.00000000E+00
  -0.19400000E+01           0.00000000E+00
  -0.19300000E+01           0.00000000E+00
  -0.19200000E+01           0.00000000E+00
  -0.19100000E+01           0.00000000E+00
  -0.19000000E+01           0.00000000E+00
  -0.18900000E+01           0.00000000E+00
  -0.18800000E+01           0.00000000E+00
  -0.18700000E+01           0.00000000E+00
  -0.18600000E+01           0.00000000E+00
  -0.18500000E+01           0.00000000E+00
  -0.18400000E+01           0.00000000E+00
  -0.18300000E+01           0.00000000E+00
  -0.18200000E+01           0.00000000E+00
  -0.18100000E+01           0.00000000E+00
  -0.18000000E+01           0.00000000E+00
  -0.17900000E+01           0.00000000E+00
  -0.17800000E+01           0.00000000E+00
  -0.17700000E+01           0.00000000E+00
  -0.17600000E+01           0.00000000E+00
  -0.17500000E+01           0.00000000E+00
  -0.17400000E+01           0.00000000E+00
  -0.17300000E+01           0.00000000E+00
  -0.17200000E+01           0.00000000E+00
  -0.17100000E+01           0.00000000E+00
  -0.17000000E+01           0.00000000E+00
  -0.16900000E+01           0.00000000E+00
  -0.16800000E+01           0.00000000E+00
  -0.16700000E+01           0.00000000E+00
  -0.16600000E+01           0.00000000E+00
  -0.16500000E+01           0.00000000E+00
  -0.16400000E+01           0.00000000E+00
  -0.16300000E+01           0.00000000E+00
  -0.16200000E+01           0.00000000E+00
  -0.16100000E+01           0.00000000E+00
  -0.16000000E+01           0.00000000E+00
  -0.15900000E+01           0.00000000E+00
  -0.15800000E+01           0.00000000E+00
  -0.15700000E+01           0.00000000E+00
  -0.15600000E+01           0.00000000E+00
  -0.15500000E+01           0.00000000E+00
  -0.15400000E+01           0.00000000E+00
  -0.15300000E+01           0.00000000E+00
  -0.15200000E+01           0.00000000E+00
  -0.15100000E+01           0.00000000E+00
  -0.15000000E+01           0.00000000E+00
  -0.14900000E+01           0.00000000E+00
[...]
  -0.64000000E+00           0.00000000E+00
  -0.63000000E+00           0.00000000E+00
  -0.62000000E+00           0.00000000E+00
  -0.61000000E+00           0.00000000E+00
  -0.60000000E+00           0.00000000E+00
  -0.59000000E+00           0.00000000E+00
  -0.58000000E+00           0.00000000E+00
  -0.57000000E+00           0.00000000E+00
  -0.56000000E+00           0.00000000E+00
  -0.55000000E+00           0.00000000E+00
  -0.54000000E+00           0.00000000E+00
  -0.53000000E+00           0.00000000E+00
  -0.52000000E+00           0.00000000E+00
  -0.51000000E+00           0.00000000E+00
  -0.50000000E+00           0.00000000E+00
  -0.49000000E+00           0.00000000E+00
  -0.48000000E+00           0.00000000E+00
  -0.47000000E+00           0.00000000E+00
  -0.46000000E+00           0.00000000E+00
  -0.45000000E+00           0.00000000E+00
  -0.44000000E+00           0.00000000E+00
  -0.43000000E+00           0.00000000E+00
  -0.42000000E+00           0.00000000E+00
  -0.41000000E+00           0.00000000E+00
  -0.40000000E+00           0.00000000E+00
  -0.39000000E+00           0.00000000E+00
  -0.38000000E+00           0.00000000E+00
  -0.37000000E+00           0.00000000E+00
  -0.36000000E+00           0.00000000E+00
  -0.35000000E+00           0.00000000E+00
  -0.34000000E+00           0.00000000E+00
  -0.33000000E+00           0.00000000E+00
  -0.32000000E+00           0.00000000E+00
  -0.31000000E+00           0.00000000E+00
  -0.30000000E+00           0.00000000E+00
  -0.29000000E+00           0.00000000E+00
  -0.28000000E+00           0.00000000E+00
  -0.27000000E+00           0.00000000E+00
  -0.26000000E+00           0.00000000E+00
  -0.25000000E+00           0.00000000E+00
  -0.24000000E+00           0.00000000E+00
  -0.23000000E+00           0.00000000E+00
  -0.22000000E+00           0.00000000E+00
  -0.21000000E+00           0.00000000E+00
  -0.20000000E+00           0.00000000E+00
  -0.19000000E+00           0.00000000E+00
  -0.18000000E+00           0.00000000E+00
  -0.17000000E+00           0.00000000E+00
  -0.16000000E+00           0.00000000E+00
  -0.15000000E+00           0.00000000E+00
  -0.14000000E+00           0.00000000E+00
  -0.13000000E+00           0.00000000E+00
  -0.12000000E+00           0.00000000E+00
  -0.11000000E+00           0.00000000E+00
  -0.10000000E+00           0.00000000E+00
  -0.90000000E-01           0.00000000E+00
  -0.80000000E-01           0.00000000E+00
  -0.70000000E-01           0.00000000E+00
  -0.60000000E-01           0.00000000E+00
  -0.50000000E-01           0.00000000E+00
  -0.40000000E-01           0.00000000E+00
  -0.30000000E-01           0.00000000E+00
  -0.20000000E-01           0.00000000E+00
  -0.10000000E-01           0.00000000E+00
   0.00000000E+00           0.31481481E-05
   0.10000000E-01           0.91851852E-04
   0.20000000E-01           0.33685185E-03
   0.30000000E-01           0.75129630E-03
   0.40000000E-01           0.13022222E-02
   0.50000000E-01           0.20475926E-02
   0.60000000E-01           0.29150000E-02
   0.70000000E-01           0.39605556E-02
   0.80000000E-01           0.51970370E-02
   0.90000000E-01           0.65270370E-02
   0.10000000E+00           0.79725926E-02
   0.11000000E+00           0.95483333E-02
   0.12000000E+00           0.11364259E-01
   0.13000000E+00           0.13205556E-01
   0.14000000E+00           0.15258889E-01
   0.15000000E+00           0.17343333E-01
   0.16000000E+00           0.19700370E-01
   0.17000000E+00           0.22007037E-01
   0.18000000E+00           0.24700185E-01
   0.19000000E+00           0.27363889E-01
   0.20000000E+00           0.30277037E-01
   0.21000000E+00           0.33023148E-01
   0.22000000E+00           0.36160185E-01
   0.23000000E+00           0.39193148E-01
   0.24000000E+00           0.42454444E-01
   0.25000000E+00           0.45757037E-01
   0.26000000E+00           0.49141667E-01
   0.27000000E+00           0.52896111E-01
   0.28000000E+00           0.56417778E-01
   0.29000000E+00           0.60258148E-01
   0.30000000E+00           0.63938148E-01
   0.31000000E+00           0.68020185E-01
   0.32000000E+00           0.71880556E-01
   0.33000000E+00           0.76083889E-01
   0.34000000E+00           0.80342407E-01
   0.35000000E+00           0.84684444E-01
   0.36000000E+00           0.88819259E-01
   0.37000000E+00           0.93522593E-01
   0.38000000E+00           0.97878148E-01
   0.39000000E+00           0.10237889E+00
   0.40000000E+00           0.10728574E+00
   0.41000000E+00           0.11179574E+00
   0.42000000E+00           0.11649111E+00
   0.43000000E+00           0.12128167E+00
   0.44000000E+00           0.12609519E+00
   0.45000000E+00           0.13140370E+00
   0.46000000E+00           0.13617889E+00
   0.47000000E+00           0.14114537E+00
   0.48000000E+00           0.14666056E+00
   0.49000000E+00           0.15132444E+00
   0.50000000E+00           0.15699148E+00
   0.51000000E+00           0.16224870E+00
   0.52000000E+00           0.16734056E+00
   0.53000000E+00           0.17260870E+00
   0.54000000E+00           0.17761222E+00
   0.55000000E+00           0.18286296E+00
   0.56000000E+00           0.18866315E+00
   0.57000000E+00           0.19389593E+00
   0.58000000E+00           0.19963278E+00
   0.59000000E+00           0.20514389E+00
   0.60000000E+00           0.21040333E+00
   0.61000000E+00           0.21638796E+00
   0.62000000E+00           0.22170648E+00
   0.63000000E+00           0.22745963E+00
   0.64000000E+00           0.23308704E+00
   0.65000000E+00           0.23869130E+00
   0.66000000E+00           0.24437370E+00
   0.67000000E+00           0.24988111E+00
   0.68000000E+00           0.25531778E+00
   0.69000000E+00           0.26089500E+00
   0.70000000E+00           0.26675907E+00
   0.71000000E+00           0.27164333E+00
   0.72000000E+00           0.27810315E+00
   0.73000000E+00           0.28354981E+00
   0.74000000E+00           0.28889815E+00
   0.75000000E+00           0.29443463E+00
   0.76000000E+00           0.29986130E+00
   0.77000000E+00           0.30544296E+00
   0.78000000E+00           0.31108148E+00
   0.79000000E+00           0.31676056E+00
   0.80000000E+00           0.32217796E+00
   0.81000000E+00           0.32774296E+00
   0.82000000E+00           0.33292796E+00
   0.83000000E+00           0.33881519E+00
   0.84000000E+00           0.34370296E+00
   0.85000000E+00           0.35016796E+00
   0.86000000E+00           0.35383019E+00
   0.87000000E+00           0.35976833E+00
   0.88000000E+00           0.36559333E+00
   0.89000000E+00           0.37030611E+00
   0.90000000E+00           0.37608056E+00
   0.91000000E+00           0.38113352E+00
   0.92000000E+00           0.38617241E+00
   0.93000000E+00           0.39087241E+00
   0.94000000E+00           0.39612685E+00
   0.95000000E+00           0.40105019E+00
   0.96000000E+00           0.40568630E+00
   0.97000000E+00           0.41081685E+00
   0.98000000E+00           0.41549648E+00
   0.99000000E+00           0.41999111E+00
   0.10000000E+01           0.42470185E+00
   0.10100000E+01           0.42985167E+00
   0.10200000E+01           0.43457241E+00
   0.10300000E+01           0.43935074E+00
   0.10400000E+01           0.44351981E+00
   0.10500000E+01           0.44725815E+00
   0.10600000E+01           0.45219204E+00
   0.10700000E+01           0.45682870E+00
   0.10800000E+01           0.46034167E+00
   0.10900000E+01           0.46499370E+00
   0.11000000E+01           0.46923870E+00
   0.11100000E+01           0.47323667E+00
   0.11200000E+01           0.47726296E+00
   0.11300000E+01           0.48141944E+00
   0.11400000E+01           0.48486204E+00
   0.11500000E+01           0.48836407E+00
   0.11600000E+01           0.49205648E+00
   0.11700000E+01           0.49611593E+00
   0.11800000E+01           0.49908352E+00
   0.11900000E+01           0.50293444E+00
   0.12000000E+01           0.50595778E+00
   0.12100000E+01           0.50895352E+00
   0.12200000E+01           0.51278796E+00
   0.12300000E+01           0.51566667E+00
   0.12400000E+01           0.51850407E+00
   0.12500000E+01           0.52209981E+00
   0.12600000E+01           0.52411870E+00
   0.12700000E+01           0.52704704E+00
   0.12800000E+01           0.52995148E+00
   0.12900000E+01           0.53190593E+00
   0.13000000E+01           0.53519833E+00
   0.13100000E+01           0.53719500E+00
   0.13200000E+01           0.54008630E+00
   0.13300000E+01           0.54336167E+00
   0.13400000E+01           0.54388389E+00
   0.13500000E+01           0.54643778E+00
   0.13600000E+01           0.54857852E+00
   0.13700000E+01           0.54997556E+00
   0.13800000E+01           0.55201093E+00
   0.13900000E+01           0.55408407E+00
   0.14000000E+01           0.55518759E+00
   0.14100000E+01           0.55711019E+00
   0.14200000E+01           0.55785167E+00
   0.14300000E+01           0.56001148E+00
   0.14400000E+01           0.56086574E+00
   0.14500000E+01           0.56213500E+00
   0.14600000E+01           0.56257074E+00
   0.14700000E+01           0.56345630E+00
   0.14800000E+01           0.56466315E+00
   0.14900000E+01           0.56592463E+00
   0.15000000E+01           0.56650444E+00
   0.15100000E+01           0.56669889E+00
   0.15200000E+01           0.56679241E+00
   0.15300000E+01           0.56695500E+00
   0.15400000E+01           0.56809815E+00
   0.15500000E+01           0.56783500E+00
   0.15600000E+01           0.56758241E+00
   0.15700000E+01           0.56741815E+00
   0.15800000E+01           0.56726259E+00
   0.15900000E+01           0.56740463E+00
   0.16000000E+01           0.56719074E+00
   0.16100000E+01           0.56686778E+00
   0.16200000E+01           0.56580907E+00
   0.16300000E+01           0.56537889E+00
   0.16400000E+01           0.56484111E+00
   0.16500000E+01           0.56303574E+00
   0.16600000E+01           0.56228407E+00
   0.16700000E+01           0.56182870E+00
   0.16800000E+01           0.56015352E+00
   0.16900000E+01           0.55844667E+00
   0.17000000E+01           0.55819130E+00
   0.17100000E+01           0.55666111E+00
   0.17200000E+01           0.55467444E+00
   0.17300000E+01           0.55344259E+00
   0.17400000E+01           0.55098278E+00
   0.17500000E+01           0.54958648E+00
   0.17600000E+01           0.54695444E+00
   0.17700000E+01           0.54494796E+00
   0.17800000E+01           0.54295000E+00
   0.17900000E+01           0.54068370E+00
   0.18000000E+01           0.53787352E+00
   0.18100000E+01           0.53606667E+00
   0.18200000E+01           0.53336278E+00
   0.18300000E+01           0.52986037E+00
   0.18400000E+01           0.52742889E+00
   0.18500000E+01           0.52480944E+00
   0.18600000E+01           0.52159074E+00
   0.18700000E+01           0.51895611E+00
   0.18800000E+01           0.51528759E+00
   0.18900000E+01           0.51265537E+00
   0.19000000E+01           0.50954093E+00
   0.19100000E+01           0.50550556E+00
   0.19200000E+01           0.50176852E+00
   0.19300000E+01           0.49781833E+00
   0.19400000E+01           0.49403481E+00
   0.19500000E+01           0.49087352E+00
   0.19600000E+01           0.48640907E+00
   0.19700000E+01           0.48217907E+00
   0.19800000E+01           0.47762241E+00
   0.19900000E+01           0.47341556E+00
   0.20000000E+01           0.46963037E+00
   0.20100000E+01           0.46507167E+00
   0.20200000E+01           0.46034778E+00
   0.20300000E+01           0.45639722E+00
   0.20400000E+01           0.45218426E+00
   0.20500000E+01           0.44795574E+00
   0.20600000E+01           0.44270259E+00
   0.20700000E+01           0.43849167E+00
   0.20800000E+01           0.43487907E+00
   0.20900000E+01           0.42997370E+00
   0.21000000E+01           0.42522833E+00
   0.21100000E+01           0.42055796E+00
   0.21200000E+01           0.41689185E+00
   0.21300000E+01           0.41215185E+00
   0.21400000E+01           0.40766963E+00
   0.21500000E+01           0.40294278E+00
   0.21600000E+01           0.39881722E+00
   0.21700000E+01           0.39372111E+00
   0.21800000E+01           0.39037185E+00
   0.21900000E+01           0.38606370E+00
   0.22000000E+01           0.38200278E+00
   0.22100000E+01           0.37702870E+00
   0.22200000E+01           0.37339222E+00
   0.22300000E+01           0.36818370E+00
   0.22400000E+01           0.36458130E+00
   0.22500000E+01           0.35961407E+00
   0.22600000E+01           0.35542648E+00
   0.22700000E+01           0.35118111E+00
   0.22800000E+01           0.34752222E+00
   0.22900000E+01           0.34337130E+00
   0.23000000E+01           0.33886019E+00
   0.23100000E+01           0.33419926E+00
   0.23200000E+01           0.33017907E+00
   0.23300000E+01           0.32633630E+00
   0.23400000E+01           0.32190370E+00
   0.23500000E+01           0.31777333E+00
   0.23600000E+01           0.31412611E+00
   0.23700000E+01           0.30996463E+00
   0.23800000E+01           0.30552648E+00
   0.23900000E+01           0.30157148E+00
   0.24000000E+01           0.29798315E+00
   0.24100000E+01           0.29362537E+00
   0.24200000E+01           0.28988574E+00
   0.24300000E+01           0.28524333E+00
   0.24400000E+01           0.28126537E+00
   0.24500000E+01           0.27780222E+00
   0.24600000E+01           0.27332093E+00
   0.24700000E+01           0.26988593E+00
   0.24800000E+01           0.26595148E+00
   0.24900000E+01           0.26225815E+00
   0.25000000E+01           0.25831889E+00
   0.25100000E+01           0.25497574E+00
   0.25200000E+01           0.25104981E+00
   0.25300000E+01           0.24697815E+00
   0.25400000E+01           0.24335833E+00
   0.25500000E+01           0.23941796E+00
   0.25600000E+01           0.23555704E+00
   0.25700000E+01           0.23219704E+00
   0.25800000E+01           0.22877537E+00
   0.25900000E+01           0.22485611E+00
   0.26000000E+01           0.22137222E+00
   0.26100000E+01           0.21809148E+00
   0.26200000E+01           0.21425907E+00
   0.26300000E+01           0.21093759E+00
   0.26400000E+01           0.20732093E+00
   0.26500000E+01           0.20424981E+00
   0.26600000E+01           0.20071685E+00
   0.26700000E+01           0.19715370E+00
   0.26800000E+01           0.19373815E+00
   0.26900000E+01           0.19079037E+00
   0.27000000E+01           0.18724222E+00
   0.27100000E+01           0.18409815E+00
   0.27200000E+01           0.18096537E+00
   0.27300000E+01           0.17732889E+00
   0.27400000E+01           0.17463889E+00
   0.27500000E+01           0.17164389E+00
   0.27600000E+01           0.16837907E+00
   0.27700000E+01           0.16470963E+00
   0.27800000E+01           0.16205481E+00
   0.27900000E+01           0.15873852E+00
   0.28000000E+01           0.15606815E+00
   0.28100000E+01           0.15305000E+00
   0.28200000E+01           0.15016037E+00
   0.28300000E+01           0.14701222E+00
   0.28400000E+01           0.14434130E+00
   0.28500000E+01           0.14138778E+00
   0.28600000E+01           0.13858574E+00
   0.28700000E+01           0.13610130E+00
   0.28800000E+01           0.13314333E+00
   0.28900000E+01           0.13028907E+00
   0.29000000E+01           0.12784444E+00
   0.29100000E+01           0.12506926E+00
   0.29200000E+01           0.12245278E+00
   0.29300000E+01           0.11942870E+00
   0.29400000E+01           0.11732889E+00
   0.29500000E+01           0.11442630E+00
   0.29600000E+01           0.11226093E+00
   0.29700000E+01           0.10987926E+00
   0.29800000E+01           0.10730056E+00
   0.29900000E+01           0.10496759E+00
   0.30000000E+01           0.10263556E+00
   0.30100000E+01           0.10020611E+00
   0.30200000E+01           0.97908519E-01
   0.30300000E+01           0.95809630E-01
   0.30400000E+01           0.93528519E-01
   0.30500000E+01           0.91052222E-01
   0.30600000E+01           0.88917222E-01
   0.30700000E+01           0.86586481E-01
   0.30800000E+01           0.84599074E-01
   0.30900000E+01           0.82460000E-01
   0.31000000E+01           0.80574074E-01
   0.31100000E+01           0.78251481E-01
   0.31200000E+01           0.76423148E-01
   0.31300000E+01           0.74614630E-01
   0.31400000E+01           0.72656296E-01
   0.31500000E+01           0.70553148E-01
   0.31600000E+01           0.68729259E-01
   0.31700000E+01           0.66799815E-01
   0.31800000E+01           0.64810185E-01
   0.31900000E+01           0.63281852E-01
   0.32000000E+01           0.61394630E-01
   0.32100000E+01           0.59682963E-01
   0.32200000E+01           0.58059259E-01
   0.32300000E+01           0.56293333E-01
   0.32400000E+01           0.54572222E-01
   0.32500000E+01           0.53226667E-01
   0.32600000E+01           0.51408519E-01
   0.32700000E+01           0.49869074E-01
   0.32800000E+01           0.48325000E-01
   0.32900000E+01           0.46832963E-01
   0.33000000E+01           0.45154630E-01
   0.33100000E+01           0.43881852E-01
   0.33200000E+01           0.42373704E-01
   0.33300000E+01           0.41066667E-01
   0.33400000E+01           0.39708889E-01
   0.33500000E+01           0.38397407E-01
   0.33600000E+01           0.37083148E-01
   0.33700000E+01           0.35655556E-01
   0.33800000E+01           0.34530000E-01
   0.33900000E+01           0.33114630E-01
   0.34000000E+01           0.32071481E-01
   0.34100000E+01           0.30856481E-01
   0.34200000E+01           0.29659444E-01
   0.34300000E+01           0.28496111E-01
   0.34400000E+01           0.27514815E-01
   0.34500000E+01           0.26249074E-01
   0.34600000E+01           0.25314815E-01
   0.34700000E+01           0.24301667E-01
   0.34800000E+01           0.23211852E-01
   0.34900000E+01           0.22235370E-01
   0.35000000E+01           0.21311296E-01
   0.35100000E+01           0.20410185E-01
   0.35200000E+01           0.19444074E-01
   0.35300000E+01           0.18672778E-01
   0.35400000E+01           0.17616111E-01
   0.35500000E+01           0.16937407E-01
   0.35600000E+01           0.16077593E-01
   0.35700000E+01           0.15312778E-01
   0.35800000E+01           0.14504074E-01
   0.35900000E+01           0.13790370E-01
   0.36000000E+01           0.13027778E-01
   0.36100000E+01           0.12266852E-01
   0.36200000E+01           0.11729815E-01
   0.36300000E+01           0.10991852E-01
   0.36400000E+01           0.10420556E-01
   0.36500000E+01           0.97998148E-02
   0.36600000E+01           0.91650000E-02
   0.36700000E+01           0.86488889E-02
   0.36800000E+01           0.81177778E-02
   0.36900000E+01           0.74811111E-02
   0.37000000E+01           0.70279630E-02
   0.37100000E+01           0.65412963E-02
   0.37200000E+01           0.60338889E-02
   0.37300000E+01           0.55635185E-02
   0.37400000E+01           0.51931481E-02
   0.37500000E+01           0.48287037E-02
   0.37600000E+01           0.43851852E-02
   0.37700000E+01           0.39705556E-02
   0.37800000E+01           0.36333333E-02
   0.37900000E+01           0.32737037E-02
   0.38000000E+01           0.29979630E-02
   0.38100000E+01           0.27016667E-02
   0.38200000E+01           0.23972222E-02
   0.38300000E+01           0.21101852E-02
   0.38400000E+01           0.18672222E-02
   0.38500000E+01           0.16577778E-02
   0.38600000E+01           0.14066667E-02
   0.38700000E+01           0.12385185E-02
   0.38800000E+01           0.10303704E-02
   0.38900000E+01           0.85129630E-03
   0.39000000E+01           0.71833333E-03
   0.39100000E+01           0.57203704E-03
   0.39200000E+01           0.45574074E-03
   0.39300000E+01           0.34888889E-03
   0.39400000E+01           0.25666667E-03
   0.39500000E+01           0.17185185E-03
   0.39600000E+01           0.10000000E-03
   0.39700000E+01           0.64629630E-04
   0.39800000E+01           0.27592593E-04
   0.39900000E+01           0.68518519E-05
   0.40000000E+01           0.18518519E-06
