 #written on  4Sep2024 at 15:04:44 
 #----------------------------------------------- MONTECARLO ---------------------------------------------------#
 # Temp      Magnetization     Energy_ave          C_M              Sus              U_E              U_M       #
 #--------------------------------------------------------------------------------------------------------------#
  11.0000   0.41054442E-02  -0.10753283E+03   0.10810640E+01   0.73925748E-03   0.66665968E+00   0.37838137E+00
  12.0000   0.43037702E-02  -0.10645058E+03   0.10858675E+01   0.73643184E-03   0.66665815E+00   0.38069301E+00
  13.0000   0.44993179E-02  -0.10536157E+03   0.11005922E+01   0.73364748E-03   0.66665633E+00   0.38400380E+00
  14.0000   0.46898485E-02  -0.10425991E+03   0.11055626E+01   0.73070605E-03   0.66665436E+00   0.38779389E+00
  15.0000   0.48712628E-02  -0.10314571E+03   0.11152429E+01   0.73041134E-03   0.66665211E+00   0.38950304E+00
  16.0000   0.50555087E-02  -0.10202260E+03   0.11285722E+01   0.72502488E-03   0.66664954E+00   0.39479744E+00
  17.0000   0.52347383E-02  -0.10088791E+03   0.11446111E+01   0.72452203E-03   0.66664661E+00   0.39683234E+00
  18.0000   0.54023926E-02  -0.99741422E+02   0.11550836E+01   0.72124514E-03   0.66664345E+00   0.40064826E+00
  19.0000   0.55793024E-02  -0.98576118E+02   0.11712080E+01   0.72197665E-03   0.66663981E+00   0.40331237E+00
  20.0000   0.57467307E-02  -0.97399265E+02   0.11893140E+01   0.71958966E-03   0.66663572E+00   0.40611162E+00
  21.0000   0.59144963E-02  -0.96205922E+02   0.12031843E+01   0.71782648E-03   0.66663129E+00   0.40895744E+00
  22.0000   0.60821899E-02  -0.94993854E+02   0.12264484E+01   0.72011419E-03   0.66662607E+00   0.41132654E+00
  23.0000   0.62466005E-02  -0.93760136E+02   0.12414726E+01   0.71993938E-03   0.66662057E+00   0.41396038E+00
  24.0000   0.64051729E-02  -0.92507130E+02   0.12604735E+01   0.71858823E-03   0.66661431E+00   0.41690919E+00
  25.0000   0.65668545E-02  -0.91228667E+02   0.12907654E+01   0.71851279E-03   0.66660685E+00   0.41907047E+00
  26.0000   0.67304178E-02  -0.89921772E+02   0.13214065E+01   0.72019064E-03   0.66659850E+00   0.42148444E+00
  27.0000   0.68862254E-02  -0.88585333E+02   0.13567487E+01   0.72130574E-03   0.66658890E+00   0.42365628E+00
  28.0000   0.70524543E-02  -0.87212289E+02   0.13924305E+01   0.72563442E-03   0.66657812E+00   0.42561384E+00
  29.0000   0.72073276E-02  -0.85799666E+02   0.14325087E+01   0.72775213E-03   0.66656570E+00   0.42713395E+00
  30.0000   0.73671247E-02  -0.84341554E+02   0.14869851E+01   0.72865441E-03   0.66655061E+00   0.43003867E+00
  31.0000   0.75243851E-02  -0.82832418E+02   0.15378796E+01   0.73153779E-03   0.66653380E+00   0.43133387E+00
  32.0000   0.76919113E-02  -0.81261524E+02   0.16042862E+01   0.73575502E-03   0.66651322E+00   0.43354483E+00
  33.0000   0.78458051E-02  -0.79619532E+02   0.16757922E+01   0.73867420E-03   0.66648912E+00   0.43515695E+00
  34.0000   0.80171516E-02  -0.77896184E+02   0.17728784E+01   0.74567371E-03   0.66645838E+00   0.43685787E+00
  35.0000   0.81833962E-02  -0.76079432E+02   0.18702016E+01   0.74964183E-03   0.66642260E+00   0.43848829E+00
  36.0000   0.83451271E-02  -0.74133558E+02   0.20000356E+01   0.75623812E-03   0.66637594E+00   0.43927686E+00
  37.0000   0.85222354E-02  -0.72064021E+02   0.21485048E+01   0.76429090E-03   0.66631760E+00   0.44082335E+00
  38.0000   0.86922667E-02  -0.69813758E+02   0.23541794E+01   0.77299791E-03   0.66623696E+00   0.44104081E+00
  39.0000   0.88820023E-02  -0.67335411E+02   0.26135996E+01   0.78216271E-03   0.66612675E+00   0.44242183E+00
  40.0000   0.90688789E-02  -0.64526856E+02   0.30412273E+01   0.79380270E-03   0.66594792E+00   0.44302004E+00
  41.0000   0.92871739E-02  -0.61084502E+02   0.37715583E+01   0.81023028E-03   0.66562003E+00   0.44346094E+00
  42.0000   0.94914025E-02  -0.57785634E+02   0.25709069E+01   0.82773194E-03   0.66582285E+00   0.44391763E+00
  43.0000   0.96584101E-02  -0.55751776E+02   0.16638918E+01   0.83300428E-03   0.66605359E+00   0.44432081E+00
  44.0000   0.97898714E-02  -0.54288667E+02   0.13281289E+01   0.83771712E-03   0.66612733E+00   0.44463319E+00
  45.0000   0.99135964E-02  -0.53050936E+02   0.11509330E+01   0.84115048E-03   0.66615514E+00   0.44417654E+00
  46.0000   0.10023578E-01  -0.51961933E+02   0.10408127E+01   0.84023453E-03   0.66616303E+00   0.44415622E+00
  47.0000   0.10142657E-01  -0.50960256E+02   0.96295160E+00   0.84269552E-03   0.66616102E+00   0.44421076E+00
  48.0000   0.10241820E-01  -0.50029638E+02   0.89720109E+00   0.84172674E-03   0.66615691E+00   0.44401191E+00
  49.0000   0.10350214E-01  -0.49157426E+02   0.84504204E+00   0.83848618E-03   0.66614852E+00   0.44506675E+00
  50.0000   0.10445774E-01  -0.48336632E+02   0.80142086E+00   0.83920481E-03   0.66613753E+00   0.44426159E+00
  51.0000   0.10541485E-01  -0.47551268E+02   0.76184320E+00   0.83780642E-03   0.66612589E+00   0.44455942E+00
  52.0000   0.10642024E-01  -0.46809244E+02   0.72794623E+00   0.83856684E-03   0.66611242E+00   0.44412559E+00
  53.0000   0.10733030E-01  -0.46096195E+02   0.69811538E+00   0.83814945E-03   0.66609724E+00   0.44367381E+00
  54.0000   0.10827963E-01  -0.45415408E+02   0.67004765E+00   0.83360826E-03   0.66608223E+00   0.44465353E+00
  55.0000   0.10916114E-01  -0.44761768E+02   0.64006073E+00   0.83430779E-03   0.66607053E+00   0.44421231E+00
  56.0000   0.11008090E-01  -0.44133206E+02   0.61641464E+00   0.83051640E-03   0.66605435E+00   0.44458724E+00
  57.0000   0.11085917E-01  -0.43530225E+02   0.59249955E+00   0.82967371E-03   0.66603997E+00   0.44462486E+00
  58.0000   0.11172308E-01  -0.42946984E+02   0.57181341E+00   0.82853835E-03   0.66602331E+00   0.44419717E+00
  59.0000   0.11249147E-01  -0.42384050E+02   0.55212429E+00   0.82525330E-03   0.66600677E+00   0.44383283E+00
  60.0000   0.11336974E-01  -0.41841344E+02   0.53244995E+00   0.82245590E-03   0.66599125E+00   0.44480150E+00
  61.0000   0.11417362E-01  -0.41318124E+02   0.51685004E+00   0.82118263E-03   0.66597179E+00   0.44487446E+00
  62.0000   0.11492670E-01  -0.40810050E+02   0.50058686E+00   0.81993432E-03   0.66595408E+00   0.44426001E+00
  63.0000   0.11573159E-01  -0.40320511E+02   0.48361853E+00   0.81768981E-03   0.66593840E+00   0.44473437E+00
  64.0000   0.11637049E-01  -0.39840706E+02   0.46821348E+00   0.81488066E-03   0.66592142E+00   0.44414645E+00
  65.0000   0.11722214E-01  -0.39380264E+02   0.45540686E+00   0.81388768E-03   0.66590153E+00   0.44471079E+00
  66.0000   0.11787511E-01  -0.38932485E+02   0.44069606E+00   0.80788432E-03   0.66588558E+00   0.44473768E+00
  67.0000   0.11853349E-01  -0.38500161E+02   0.42809365E+00   0.80797728E-03   0.66586717E+00   0.44405543E+00
  68.0000   0.11913058E-01  -0.38078677E+02   0.41556137E+00   0.80328696E-03   0.66584941E+00   0.44398124E+00
  69.0000   0.11998630E-01  -0.37665812E+02   0.40409493E+00   0.80118591E-03   0.66583038E+00   0.44499024E+00
  70.0000   0.12052454E-01  -0.37266272E+02   0.39404977E+00   0.79778139E-03   0.66580936E+00   0.44466431E+00
  71.0000   0.12116359E-01  -0.36879432E+02   0.38227525E+00   0.79539038E-03   0.66579294E+00   0.44489225E+00
  72.0000   0.12186047E-01  -0.36501465E+02   0.37260003E+00   0.79185338E-03   0.66577280E+00   0.44472051E+00
  73.0000   0.12238236E-01  -0.36133531E+02   0.36275595E+00   0.79040576E-03   0.66575370E+00   0.44375301E+00
  74.0000   0.12294805E-01  -0.35776085E+02   0.35406770E+00   0.78386380E-03   0.66573265E+00   0.44468194E+00
  75.0000   0.12359796E-01  -0.35425054E+02   0.34436714E+00   0.78307974E-03   0.66571495E+00   0.44447542E+00
  76.0000   0.12422271E-01  -0.35084307E+02   0.33684112E+00   0.78061560E-03   0.66569211E+00   0.44448987E+00
  77.0000   0.12489504E-01  -0.34753257E+02   0.32825498E+00   0.77858055E-03   0.66567328E+00   0.44466549E+00
  78.0000   0.12541188E-01  -0.34428388E+02   0.32060108E+00   0.77578447E-03   0.66565229E+00   0.44402499E+00
  79.0000   0.12596106E-01  -0.34112790E+02   0.31248024E+00   0.77275093E-03   0.66563345E+00   0.44425608E+00
  80.0000   0.12659312E-01  -0.33802616E+02   0.30502506E+00   0.76833971E-03   0.66561335E+00   0.44507268E+00
  81.0000   0.12710750E-01  -0.33501513E+02   0.29771189E+00   0.76732808E-03   0.66559392E+00   0.44457384E+00
  82.0000   0.12760151E-01  -0.33206710E+02   0.29181334E+00   0.76467317E-03   0.66556976E+00   0.44437981E+00
  83.0000   0.12809945E-01  -0.32918526E+02   0.28477705E+00   0.76065199E-03   0.66555077E+00   0.44460889E+00
  84.0000   0.12862951E-01  -0.32635917E+02   0.27886997E+00   0.75950818E-03   0.66552801E+00   0.44381015E+00
  85.0000   0.12913929E-01  -0.32360826E+02   0.27268707E+00   0.75501834E-03   0.66550692E+00   0.44428335E+00
  86.0000   0.12962605E-01  -0.32090121E+02   0.26716082E+00   0.75276624E-03   0.66548402E+00   0.44395341E+00
  87.0000   0.13011986E-01  -0.31826924E+02   0.26079824E+00   0.74841717E-03   0.66546543E+00   0.44441537E+00
  88.0000   0.13053289E-01  -0.31568355E+02   0.25512008E+00   0.74610465E-03   0.66544488E+00   0.44391993E+00
  89.0000   0.13109296E-01  -0.31316730E+02   0.24967470E+00   0.74335178E-03   0.66542379E+00   0.44438216E+00
  90.0000   0.13150057E-01  -0.31067339E+02   0.24516858E+00   0.73978829E-03   0.66539860E+00   0.44398796E+00
