 #written on  5Sep2024 at 05:58:40 
 #----------------- MONTECARLO -------------------#
 #        M                      P(M)             #
 #------------------------------------------------#
 #T=   380.0000
  -0.40000000E+01           0.00000000E+00
  -0.39900000E+01           0.00000000E+00
  -0.39800000E+01           0.00000000E+00
  -0.39700000E+01           0.00000000E+00
  -0.39600000E+01           0.00000000E+00
  -0.39500000E+01           0.00000000E+00
  -0.39400000E+01           0.00000000E+00
  -0.39300000E+01           0.00000000E+00
  -0.39200000E+01           0.00000000E+00
  -0.39100000E+01           0.00000000E+00
  -0.39000000E+01           0.00000000E+00
  -0.38900000E+01           0.00000000E+00
  -0.38800000E+01           0.00000000E+00
  -0.38700000E+01           0.00000000E+00
  -0.38600000E+01           0.00000000E+00
  -0.38500000E+01           0.00000000E+00
  -0.38400000E+01           0.00000000E+00
  -0.38300000E+01           0.00000000E+00
  -0.38200000E+01           0.00000000E+00
  -0.38100000E+01           0.00000000E+00
  -0.38000000E+01           0.00000000E+00
  -0.37900000E+01           0.00000000E+00
  -0.37800000E+01           0.00000000E+00
  -0.37700000E+01           0.00000000E+00
  -0.37600000E+01           0.00000000E+00
  -0.37500000E+01           0.00000000E+00
  -0.37400000E+01           0.00000000E+00
  -0.37300000E+01           0.00000000E+00
  -0.37200000E+01           0.00000000E+00
  -0.37100000E+01           0.00000000E+00
  -0.37000000E+01           0.00000000E+00
  -0.36900000E+01           0.00000000E+00
  -0.36800000E+01           0.00000000E+00
  -0.36700000E+01           0.00000000E+00
  -0.36600000E+01           0.00000000E+00
  -0.36500000E+01           0.00000000E+00
  -0.36400000E+01           0.00000000E+00
  -0.36300000E+01           0.00000000E+00
  -0.36200000E+01           0.00000000E+00
  -0.36100000E+01           0.00000000E+00
  -0.36000000E+01           0.00000000E+00
  -0.35900000E+01           0.00000000E+00
  -0.35800000E+01           0.00000000E+00
  -0.35700000E+01           0.00000000E+00
  -0.35600000E+01           0.00000000E+00
  -0.35500000E+01           0.00000000E+00
  -0.35400000E+01           0.00000000E+00
  -0.35300000E+01           0.00000000E+00
  -0.35200000E+01           0.00000000E+00
  -0.35100000E+01           0.00000000E+00
  -0.35000000E+01           0.00000000E+00
  -0.34900000E+01           0.00000000E+00
  -0.34800000E+01           0.00000000E+00
  -0.34700000E+01           0.00000000E+00
  -0.34600000E+01           0.00000000E+00
  -0.34500000E+01           0.00000000E+00
  -0.34400000E+01           0.00000000E+00
  -0.34300000E+01           0.00000000E+00
  -0.34200000E+01           0.00000000E+00
  -0.34100000E+01           0.00000000E+00
  -0.34000000E+01           0.00000000E+00
  -0.33900000E+01           0.00000000E+00
  -0.33800000E+01           0.00000000E+00
  -0.33700000E+01           0.00000000E+00
  -0.33600000E+01           0.00000000E+00
  -0.33500000E+01           0.00000000E+00
  -0.33400000E+01           0.00000000E+00
  -0.33300000E+01           0.00000000E+00
  -0.33200000E+01           0.00000000E+00
  -0.33100000E+01           0.00000000E+00
  -0.33000000E+01           0.00000000E+00
  -0.32900000E+01           0.00000000E+00
  -0.32800000E+01           0.00000000E+00
  -0.32700000E+01           0.00000000E+00
  -0.32600000E+01           0.00000000E+00
  -0.32500000E+01           0.00000000E+00
  -0.32400000E+01           0.00000000E+00
  -0.32300000E+01           0.00000000E+00
  -0.32200000E+01           0.00000000E+00
  -0.32100000E+01           0.00000000E+00
  -0.32000000E+01           0.00000000E+00
  -0.31900000E+01           0.00000000E+00
  -0.31800000E+01           0.00000000E+00
  -0.31700000E+01           0.00000000E+00
  -0.31600000E+01           0.00000000E+00
  -0.31500000E+01           0.00000000E+00
  -0.31400000E+01           0.00000000E+00
  -0.31300000E+01           0.00000000E+00
  -0.31200000E+01           0.00000000E+00
  -0.31100000E+01           0.00000000E+00
  -0.31000000E+01           0.00000000E+00
  -0.30900000E+01           0.00000000E+00
  -0.30800000E+01           0.00000000E+00
  -0.30700000E+01           0.00000000E+00
  -0.30600000E+01           0.00000000E+00
  -0.30500000E+01           0.00000000E+00
  -0.30400000E+01           0.00000000E+00
  -0.30300000E+01           0.00000000E+00
  -0.30200000E+01           0.00000000E+00
  -0.30100000E+01           0.00000000E+00
  -0.30000000E+01           0.00000000E+00
  -0.29900000E+01           0.00000000E+00
  -0.29800000E+01           0.00000000E+00
  -0.29700000E+01           0.00000000E+00
  -0.29600000E+01           0.00000000E+00
  -0.29500000E+01           0.00000000E+00
  -0.29400000E+01           0.00000000E+00
  -0.29300000E+01           0.00000000E+00
  -0.29200000E+01           0.00000000E+00
  -0.29100000E+01           0.00000000E+00
  -0.29000000E+01           0.00000000E+00
  -0.28900000E+01           0.00000000E+00
  -0.28800000E+01           0.00000000E+00
  -0.28700000E+01           0.00000000E+00
  -0.28600000E+01           0.00000000E+00
  -0.28500000E+01           0.00000000E+00
  -0.28400000E+01           0.00000000E+00
  -0.28300000E+01           0.00000000E+00
  -0.28200000E+01           0.00000000E+00
  -0.28100000E+01           0.00000000E+00
  -0.28000000E+01           0.00000000E+00
  -0.27900000E+01           0.00000000E+00
  -0.27800000E+01           0.00000000E+00
  -0.27700000E+01           0.00000000E+00
  -0.27600000E+01           0.00000000E+00
  -0.27500000E+01           0.00000000E+00
  -0.27400000E+01           0.00000000E+00
  -0.27300000E+01           0.00000000E+00
  -0.27200000E+01           0.00000000E+00
  -0.27100000E+01           0.00000000E+00
  -0.27000000E+01           0.00000000E+00
  -0.26900000E+01           0.00000000E+00
  -0.26800000E+01           0.00000000E+00
  -0.26700000E+01           0.00000000E+00
  -0.26600000E+01           0.00000000E+00
  -0.26500000E+01           0.00000000E+00
  -0.26400000E+01           0.00000000E+00
  -0.26300000E+01           0.00000000E+00
  -0.26200000E+01           0.00000000E+00
  -0.26100000E+01           0.00000000E+00
  -0.26000000E+01           0.00000000E+00
  -0.25900000E+01           0.00000000E+00
  -0.25800000E+01           0.00000000E+00
  -0.25700000E+01           0.00000000E+00
  -0.25600000E+01           0.00000000E+00
  -0.25500000E+01           0.00000000E+00
  -0.25400000E+01           0.00000000E+00
  -0.25300000E+01           0.00000000E+00
  -0.25200000E+01           0.00000000E+00
  -0.25100000E+01           0.00000000E+00
  -0.25000000E+01           0.00000000E+00
  -0.24900000E+01           0.00000000E+00
  -0.24800000E+01           0.00000000E+00
  -0.24700000E+01           0.00000000E+00
  -0.24600000E+01           0.00000000E+00
  -0.24500000E+01           0.00000000E+00
  -0.24400000E+01           0.00000000E+00
  -0.24300000E+01           0.00000000E+00
  -0.24200000E+01           0.00000000E+00
  -0.24100000E+01           0.00000000E+00
  -0.24000000E+01           0.00000000E+00
  -0.23900000E+01           0.00000000E+00
  -0.23800000E+01           0.00000000E+00
  -0.23700000E+01           0.00000000E+00
  -0.23600000E+01           0.00000000E+00
  -0.23500000E+01           0.00000000E+00
  -0.23400000E+01           0.00000000E+00
  -0.23300000E+01           0.00000000E+00
  -0.23200000E+01           0.00000000E+00
  -0.23100000E+01           0.00000000E+00
  -0.23000000E+01           0.00000000E+00
  -0.22900000E+01           0.00000000E+00
  -0.22800000E+01           0.00000000E+00
  -0.22700000E+01           0.00000000E+00
  -0.22600000E+01           0.00000000E+00
  -0.22500000E+01           0.00000000E+00
  -0.22400000E+01           0.00000000E+00
  -0.22300000E+01           0.00000000E+00
  -0.22200000E+01           0.00000000E+00
  -0.22100000E+01           0.00000000E+00
  -0.22000000E+01           0.00000000E+00
  -0.21900000E+01           0.00000000E+00
  -0.21800000E+01           0.00000000E+00
  -0.21700000E+01           0.00000000E+00
  -0.21600000E+01           0.00000000E+00
  -0.21500000E+01           0.00000000E+00
  -0.21400000E+01           0.00000000E+00
  -0.21300000E+01           0.00000000E+00
  -0.21200000E+01           0.00000000E+00
  -0.21100000E+01           0.00000000E+00
  -0.21000000E+01           0.00000000E+00
  -0.20900000E+01           0.00000000E+00
  -0.20800000E+01           0.00000000E+00
  -0.20700000E+01           0.00000000E+00
  -0.20600000E+01           0.00000000E+00
  -0.20500000E+01           0.00000000E+00
  -0.20400000E+01           0.00000000E+00
  -0.20300000E+01           0.00000000E+00
  -0.20200000E+01           0.00000000E+00
  -0.20100000E+01           0.00000000E+00
  -0.20000000E+01           0.00000000E+00
  -0.19900000E+01           0.00000000E+00
  -0.19800000E+01           0.00000000E+00
  -0.19700000E+01           0.00000000E+00
  -0.19600000E+01           0.00000000E+00
  -0.19500000E+01           0.00000000E+00
  -0.19400000E+01           0.00000000E+00
  -0.19300000E+01           0.00000000E+00
  -0.19200000E+01           0.00000000E+00
  -0.19100000E+01           0.00000000E+00
  -0.19000000E+01           0.00000000E+00
  -0.18900000E+01           0.00000000E+00
  -0.18800000E+01           0.00000000E+00
  -0.18700000E+01           0.00000000E+00
  -0.18600000E+01           0.00000000E+00
  -0.18500000E+01           0.00000000E+00
  -0.18400000E+01           0.00000000E+00
  -0.18300000E+01           0.00000000E+00
  -0.18200000E+01           0.00000000E+00
  -0.18100000E+01           0.00000000E+00
  -0.18000000E+01           0.00000000E+00
  -0.17900000E+01           0.00000000E+00
  -0.17800000E+01           0.00000000E+00
  -0.17700000E+01           0.00000000E+00
  -0.17600000E+01           0.00000000E+00
  -0.17500000E+01           0.00000000E+00
  -0.17400000E+01           0.00000000E+00
  -0.17300000E+01           0.00000000E+00
  -0.17200000E+01           0.00000000E+00
  -0.17100000E+01           0.00000000E+00
  -0.17000000E+01           0.00000000E+00
  -0.16900000E+01           0.00000000E+00
  -0.16800000E+01           0.00000000E+00
  -0.16700000E+01           0.00000000E+00
  -0.16600000E+01           0.00000000E+00
  -0.16500000E+01           0.00000000E+00
  -0.16400000E+01           0.00000000E+00
  -0.16300000E+01           0.00000000E+00
  -0.16200000E+01           0.00000000E+00
  -0.16100000E+01           0.00000000E+00
  -0.16000000E+01           0.00000000E+00
  -0.15900000E+01           0.00000000E+00
  -0.15800000E+01           0.00000000E+00
  -0.15700000E+01           0.00000000E+00
  -0.15600000E+01           0.00000000E+00
  -0.15500000E+01           0.00000000E+00
  -0.15400000E+01           0.00000000E+00
  -0.15300000E+01           0.00000000E+00
  -0.15200000E+01           0.00000000E+00
  -0.15100000E+01           0.00000000E+00
  -0.15000000E+01           0.00000000E+00
  -0.14900000E+01           0.00000000E+00
  -0.14800000E+01           0.00000000E+00
  -0.14700000E+01           0.00000000E+00
  -0.14600000E+01           0.00000000E+00
  -0.14500000E+01           0.00000000E+00
  -0.14400000E+01           0.00000000E+00
  -0.14300000E+01           0.00000000E+00
  -0.14200000E+01           0.00000000E+00
  -0.14100000E+01           0.00000000E+00
  -0.14000000E+01           0.00000000E+00
  -0.13900000E+01           0.00000000E+00
  -0.13800000E+01           0.00000000E+00
  -0.13700000E+01           0.00000000E+00
  -0.13600000E+01           0.00000000E+00
  -0.13500000E+01           0.00000000E+00
  -0.13400000E+01           0.00000000E+00
  -0.13300000E+01           0.00000000E+00
  -0.13200000E+01           0.00000000E+00
  -0.13100000E+01           0.00000000E+00
  -0.13000000E+01           0.00000000E+00
  -0.12900000E+01           0.00000000E+00
  -0.12800000E+01           0.00000000E+00
  -0.12700000E+01           0.00000000E+00
  -0.12600000E+01           0.00000000E+00
  -0.12500000E+01           0.00000000E+00
  -0.12400000E+01           0.00000000E+00
  -0.12300000E+01           0.00000000E+00
  -0.12200000E+01           0.00000000E+00
  -0.12100000E+01           0.00000000E+00
  -0.12000000E+01           0.00000000E+00
  -0.11900000E+01           0.00000000E+00
  -0.11800000E+01           0.00000000E+00
  -0.11700000E+01           0.00000000E+00
  -0.11600000E+01           0.00000000E+00
  -0.11500000E+01           0.00000000E+00
  -0.11400000E+01           0.00000000E+00
  -0.11300000E+01           0.00000000E+00
  -0.11200000E+01           0.00000000E+00
  -0.11100000E+01           0.00000000E+00
  -0.11000000E+01           0.00000000E+00
  -0.10900000E+01           0.00000000E+00
  -0.10800000E+01           0.00000000E+00
  -0.10700000E+01           0.00000000E+00
  -0.10600000E+01           0.00000000E+00
  -0.10500000E+01           0.00000000E+00
  -0.10400000E+01           0.00000000E+00
  -0.10300000E+01           0.00000000E+00
  -0.10200000E+01           0.00000000E+00
  -0.10100000E+01           0.00000000E+00
  -0.10000000E+01           0.00000000E+00
  -0.99000000E+00           0.00000000E+00
  -0.98000000E+00           0.00000000E+00
  -0.97000000E+00           0.00000000E+00
  -0.96000000E+00           0.00000000E+00
  -0.95000000E+00           0.00000000E+00
  -0.94000000E+00           0.00000000E+00
  -0.93000000E+00           0.00000000E+00
  -0.92000000E+00           0.00000000E+00
  -0.91000000E+00           0.00000000E+00
  -0.90000000E+00           0.00000000E+00
  -0.89000000E+00           0.00000000E+00
  -0.88000000E+00           0.00000000E+00
  -0.87000000E+00           0.00000000E+00
  -0.86000000E+00           0.00000000E+00
  -0.85000000E+00           0.00000000E+00
  -0.84000000E+00           0.00000000E+00
  -0.83000000E+00           0.00000000E+00
  -0.82000000E+00           0.00000000E+00
  -0.81000000E+00           0.00000000E+00
  -0.80000000E+00           0.00000000E+00
  -0.79000000E+00           0.00000000E+00
  -0.78000000E+00           0.00000000E+00
  -0.77000000E+00           0.00000000E+00
  -0.76000000E+00           0.00000000E+00
  -0.75000000E+00           0.00000000E+00
  -0.74000000E+00           0.00000000E+00
  -0.73000000E+00           0.00000000E+00
  -0.72000000E+00           0.00000000E+00
  -0.71000000E+00           0.00000000E+00
  -0.70000000E+00           0.00000000E+00
  -0.69000000E+00           0.00000000E+00
  -0.68000000E+00           0.00000000E+00
  -0.67000000E+00           0.00000000E+00
  -0.66000000E+00           0.00000000E+00
  -0.65000000E+00           0.00000000E+00
  -0.64000000E+00           0.00000000E+00
  -0.63000000E+00           0.00000000E+00
  -0.62000000E+00           0.00000000E+00
  -0.61000000E+00           0.00000000E+00
  -0.60000000E+00           0.00000000E+00
  -0.59000000E+00           0.00000000E+00
  -0.58000000E+00           0.00000000E+00
  -0.57000000E+00           0.00000000E+00
  -0.56000000E+00           0.00000000E+00
  -0.55000000E+00           0.00000000E+00
  -0.54000000E+00           0.00000000E+00
  -0.53000000E+00           0.00000000E+00
  -0.52000000E+00           0.00000000E+00
  -0.51000000E+00           0.00000000E+00
  -0.50000000E+00           0.00000000E+00
  -0.49000000E+00           0.00000000E+00
  -0.48000000E+00           0.00000000E+00
  -0.47000000E+00           0.00000000E+00
  -0.46000000E+00           0.00000000E+00
  -0.45000000E+00           0.00000000E+00
  -0.44000000E+00           0.00000000E+00
  -0.43000000E+00           0.00000000E+00
  -0.42000000E+00           0.00000000E+00
  -0.41000000E+00           0.00000000E+00
  -0.40000000E+00           0.00000000E+00
  -0.39000000E+00           0.00000000E+00
  -0.38000000E+00           0.00000000E+00
  -0.37000000E+00           0.00000000E+00
  -0.36000000E+00           0.00000000E+00
  -0.35000000E+00           0.00000000E+00
  -0.34000000E+00           0.00000000E+00
  -0.33000000E+00           0.00000000E+00
  -0.32000000E+00           0.00000000E+00
  -0.31000000E+00           0.00000000E+00
  -0.30000000E+00           0.00000000E+00
  -0.29000000E+00           0.00000000E+00
  -0.28000000E+00           0.00000000E+00
  -0.27000000E+00           0.00000000E+00
  -0.26000000E+00           0.00000000E+00
  -0.25000000E+00           0.00000000E+00
  -0.24000000E+00           0.00000000E+00
  -0.23000000E+00           0.00000000E+00
  -0.22000000E+00           0.00000000E+00
  -0.21000000E+00           0.00000000E+00
  -0.20000000E+00           0.00000000E+00
  -0.19000000E+00           0.00000000E+00
  -0.18000000E+00           0.00000000E+00
  -0.17000000E+00           0.00000000E+00
  -0.16000000E+00           0.00000000E+00
  -0.15000000E+00           0.00000000E+00
  -0.14000000E+00           0.00000000E+00
  -0.13000000E+00           0.00000000E+00
  -0.12000000E+00           0.00000000E+00
  -0.11000000E+00           0.00000000E+00
  -0.10000000E+00           0.00000000E+00
  -0.90000000E-01           0.00000000E+00
  -0.80000000E-01           0.00000000E+00
  -0.70000000E-01           0.00000000E+00
  -0.60000000E-01           0.00000000E+00
  -0.50000000E-01           0.00000000E+00
  -0.40000000E-01           0.00000000E+00
  -0.30000000E-01           0.00000000E+00
  -0.20000000E-01           0.00000000E+00
  -0.10000000E-01           0.00000000E+00
   0.00000000E+00           0.16578483E-04
   0.10000000E-01           0.43350970E-03
   0.20000000E-01           0.15954145E-02
   0.30000000E-01           0.34901235E-02
   0.40000000E-01           0.60904762E-02
   0.50000000E-01           0.93123457E-02
   0.60000000E-01           0.13289947E-01
   0.70000000E-01           0.17692063E-01
   0.80000000E-01           0.22866490E-01
   0.90000000E-01           0.28580600E-01
   0.10000000E+00           0.34878836E-01
   0.11000000E+00           0.41571252E-01
   0.12000000E+00           0.48648501E-01
   0.13000000E+00           0.56178660E-01
   0.14000000E+00           0.64243739E-01
   0.15000000E+00           0.72907231E-01
   0.16000000E+00           0.81719929E-01
   0.17000000E+00           0.90959083E-01
   0.18000000E+00           0.10048254E+00
   0.19000000E+00           0.11020406E+00
   0.20000000E+00           0.12057866E+00
   0.21000000E+00           0.13096032E+00
   0.22000000E+00           0.14114832E+00
   0.23000000E+00           0.15231781E+00
   0.24000000E+00           0.16336755E+00
   0.25000000E+00           0.17458713E+00
   0.26000000E+00           0.18643069E+00
   0.27000000E+00           0.19795891E+00
   0.28000000E+00           0.20966402E+00
   0.29000000E+00           0.22217478E+00
   0.30000000E+00           0.23381199E+00
   0.31000000E+00           0.24558483E+00
   0.32000000E+00           0.25766279E+00
   0.33000000E+00           0.27017055E+00
   0.34000000E+00           0.28228113E+00
   0.35000000E+00           0.29454603E+00
   0.36000000E+00           0.30688254E+00
   0.37000000E+00           0.31916843E+00
   0.38000000E+00           0.33157478E+00
   0.39000000E+00           0.34389153E+00
   0.40000000E+00           0.35644938E+00
   0.41000000E+00           0.36791111E+00
   0.42000000E+00           0.38031852E+00
   0.43000000E+00           0.39258272E+00
   0.44000000E+00           0.40421922E+00
   0.45000000E+00           0.41635626E+00
   0.46000000E+00           0.42815009E+00
   0.47000000E+00           0.43984974E+00
   0.48000000E+00           0.45162557E+00
   0.49000000E+00           0.46291587E+00
   0.50000000E+00           0.47394621E+00
   0.51000000E+00           0.48526790E+00
   0.52000000E+00           0.49601076E+00
   0.53000000E+00           0.50707019E+00
   0.54000000E+00           0.51793580E+00
   0.55000000E+00           0.52772381E+00
   0.56000000E+00           0.53754568E+00
   0.57000000E+00           0.54873986E+00
   0.58000000E+00           0.55825503E+00
   0.59000000E+00           0.56853616E+00
   0.60000000E+00           0.57775026E+00
   0.61000000E+00           0.58667760E+00
   0.62000000E+00           0.59582840E+00
   0.63000000E+00           0.60450564E+00
   0.64000000E+00           0.61254656E+00
   0.65000000E+00           0.62082275E+00
   0.66000000E+00           0.62977707E+00
   0.67000000E+00           0.63732892E+00
   0.68000000E+00           0.64516702E+00
   0.69000000E+00           0.65275150E+00
   0.70000000E+00           0.65965908E+00
   0.71000000E+00           0.66631781E+00
   0.72000000E+00           0.67372840E+00
   0.73000000E+00           0.67951429E+00
   0.74000000E+00           0.68627901E+00
   0.75000000E+00           0.69197831E+00
   0.76000000E+00           0.69701623E+00
   0.77000000E+00           0.70288483E+00
   0.78000000E+00           0.70752063E+00
   0.79000000E+00           0.71321799E+00
   0.80000000E+00           0.71759559E+00
   0.81000000E+00           0.72122310E+00
   0.82000000E+00           0.72537143E+00
   0.83000000E+00           0.72861658E+00
   0.84000000E+00           0.73292451E+00
   0.85000000E+00           0.73572451E+00
   0.86000000E+00           0.73927725E+00
   0.87000000E+00           0.74189048E+00
   0.88000000E+00           0.74444056E+00
   0.89000000E+00           0.74644462E+00
   0.90000000E+00           0.74796561E+00
   0.91000000E+00           0.75039048E+00
   0.92000000E+00           0.75130617E+00
   0.93000000E+00           0.75210406E+00
   0.94000000E+00           0.75346596E+00
   0.95000000E+00           0.75431922E+00
   0.96000000E+00           0.75399947E+00
   0.97000000E+00           0.75506085E+00
   0.98000000E+00           0.75551287E+00
   0.99000000E+00           0.75441570E+00
   0.10000000E+01           0.75398042E+00
   0.10100000E+01           0.75352434E+00
   0.10200000E+01           0.75202328E+00
   0.10300000E+01           0.75107266E+00
   0.10400000E+01           0.74956367E+00
   0.10500000E+01           0.74788201E+00
   0.10600000E+01           0.74647989E+00
   0.10700000E+01           0.74396349E+00
   0.10800000E+01           0.74220653E+00
   0.10900000E+01           0.74026526E+00
   0.11000000E+01           0.73711252E+00
   0.11100000E+01           0.73472222E+00
   0.11200000E+01           0.73080159E+00
   0.11300000E+01           0.72762399E+00
   0.11400000E+01           0.72403280E+00
   0.11500000E+01           0.72102716E+00
   0.11600000E+01           0.71715714E+00
   0.11700000E+01           0.71288607E+00
   0.11800000E+01           0.70908942E+00
   0.11900000E+01           0.70474568E+00
   0.12000000E+01           0.70109524E+00
   0.12100000E+01           0.69646949E+00
   0.12200000E+01           0.69202434E+00
   0.12300000E+01           0.68663034E+00
   0.12400000E+01           0.68216049E+00
   0.12500000E+01           0.67688483E+00
   0.12600000E+01           0.67178413E+00
   0.12700000E+01           0.66580529E+00
   0.12800000E+01           0.66033898E+00
   0.12900000E+01           0.65548219E+00
   0.13000000E+01           0.64875714E+00
   0.13100000E+01           0.64351041E+00
   0.13200000E+01           0.63756067E+00
   0.13300000E+01           0.63114145E+00
   0.13400000E+01           0.62570317E+00
   0.13500000E+01           0.61973280E+00
   0.13600000E+01           0.61269559E+00
   0.13700000E+01           0.60721182E+00
   0.13800000E+01           0.59974903E+00
   0.13900000E+01           0.59433527E+00
   0.14000000E+01           0.58717072E+00
   0.14100000E+01           0.58072293E+00
   0.14200000E+01           0.57410635E+00
   0.14300000E+01           0.56717848E+00
   0.14400000E+01           0.56052981E+00
   0.14500000E+01           0.55317037E+00
   0.14600000E+01           0.54679929E+00
   0.14700000E+01           0.54004004E+00
   0.14800000E+01           0.53314691E+00
   0.14900000E+01           0.52573704E+00
   0.15000000E+01           0.51865750E+00
   0.15100000E+01           0.51188007E+00
   0.15200000E+01           0.50544004E+00
   0.15300000E+01           0.49738095E+00
   0.15400000E+01           0.49089012E+00
   0.15500000E+01           0.48387302E+00
   0.15600000E+01           0.47670459E+00
   0.15700000E+01           0.46938571E+00
   0.15800000E+01           0.46246455E+00
   0.15900000E+01           0.45502046E+00
   0.16000000E+01           0.44875062E+00
   0.16100000E+01           0.44114250E+00
   0.16200000E+01           0.43407972E+00
   0.16300000E+01           0.42703404E+00
   0.16400000E+01           0.41996314E+00
   0.16500000E+01           0.41253386E+00
   0.16600000E+01           0.40559506E+00
   0.16700000E+01           0.39942046E+00
   0.16800000E+01           0.39240600E+00
   0.16900000E+01           0.38566966E+00
   0.17000000E+01           0.37845450E+00
   0.17100000E+01           0.37184533E+00
   0.17200000E+01           0.36480705E+00
   0.17300000E+01           0.35858395E+00
   0.17400000E+01           0.35141023E+00
   0.17500000E+01           0.34469153E+00
   0.17600000E+01           0.33809365E+00
   0.17700000E+01           0.33168113E+00
   0.17800000E+01           0.32544392E+00
   0.17900000E+01           0.31883298E+00
   0.18000000E+01           0.31268430E+00
   0.18100000E+01           0.30602963E+00
   0.18200000E+01           0.29939718E+00
   0.18300000E+01           0.29413686E+00
   0.18400000E+01           0.28715979E+00
   0.18500000E+01           0.28131570E+00
   0.18600000E+01           0.27534444E+00
   0.18700000E+01           0.26920053E+00
   0.18800000E+01           0.26285044E+00
   0.18900000E+01           0.25764127E+00
   0.19000000E+01           0.25187513E+00
   0.19100000E+01           0.24615908E+00
   0.19200000E+01           0.24027002E+00
   0.19300000E+01           0.23457778E+00
   0.19400000E+01           0.22941429E+00
   0.19500000E+01           0.22381570E+00
   0.19600000E+01           0.21850106E+00
   0.19700000E+01           0.21316067E+00
   0.19800000E+01           0.20815115E+00
   0.19900000E+01           0.20298624E+00
   0.20000000E+01           0.19825273E+00
   0.20100000E+01           0.19260212E+00
   0.20200000E+01           0.18776208E+00
   0.20300000E+01           0.18297707E+00
   0.20400000E+01           0.17839365E+00
   0.20500000E+01           0.17384056E+00
   0.20600000E+01           0.16938995E+00
   0.20700000E+01           0.16466455E+00
   0.20800000E+01           0.16060053E+00
   0.20900000E+01           0.15637760E+00
   0.21000000E+01           0.15214480E+00
   0.21100000E+01           0.14770723E+00
   0.21200000E+01           0.14377213E+00
   0.21300000E+01           0.14016843E+00
   0.21400000E+01           0.13643951E+00
   0.21500000E+01           0.13233245E+00
   0.21600000E+01           0.12859841E+00
   0.21700000E+01           0.12498818E+00
   0.21800000E+01           0.12160917E+00
   0.21900000E+01           0.11812063E+00
   0.22000000E+01           0.11473228E+00
   0.22100000E+01           0.11117055E+00
   0.22200000E+01           0.10788730E+00
   0.22300000E+01           0.10487513E+00
   0.22400000E+01           0.10184921E+00
   0.22500000E+01           0.98921693E-01
   0.22600000E+01           0.95577249E-01
   0.22700000E+01           0.93009524E-01
   0.22800000E+01           0.90203704E-01
   0.22900000E+01           0.87383422E-01
   0.23000000E+01           0.84680247E-01
   0.23100000E+01           0.82147443E-01
   0.23200000E+01           0.79485362E-01
   0.23300000E+01           0.77049383E-01
   0.23400000E+01           0.74708642E-01
   0.23500000E+01           0.72092593E-01
   0.23600000E+01           0.69957848E-01
   0.23700000E+01           0.67557496E-01
   0.23800000E+01           0.65662787E-01
   0.23900000E+01           0.63478131E-01
   0.24000000E+01           0.61419400E-01
   0.24100000E+01           0.59481305E-01
   0.24200000E+01           0.57482716E-01
   0.24300000E+01           0.55428042E-01
   0.24400000E+01           0.53762787E-01
   0.24500000E+01           0.51955556E-01
   0.24600000E+01           0.49989242E-01
   0.24700000E+01           0.48332804E-01
   0.24800000E+01           0.46876014E-01
   0.24900000E+01           0.45222575E-01
   0.25000000E+01           0.43715168E-01
   0.25100000E+01           0.42054321E-01
   0.25200000E+01           0.40663139E-01
   0.25300000E+01           0.39118871E-01
   0.25400000E+01           0.37731746E-01
   0.25500000E+01           0.36324691E-01
   0.25600000E+01           0.35028042E-01
   0.25700000E+01           0.33814286E-01
   0.25800000E+01           0.32486949E-01
   0.25900000E+01           0.31409700E-01
   0.26000000E+01           0.30144092E-01
   0.26100000E+01           0.29107231E-01
   0.26200000E+01           0.28021693E-01
   0.26300000E+01           0.26962257E-01
   0.26400000E+01           0.26032981E-01
   0.26500000E+01           0.24899471E-01
   0.26600000E+01           0.24101235E-01
   0.26700000E+01           0.23141446E-01
   0.26800000E+01           0.22253439E-01
   0.26900000E+01           0.21391711E-01
   0.27000000E+01           0.20444974E-01
   0.27100000E+01           0.19711111E-01
   0.27200000E+01           0.18880423E-01
   0.27300000E+01           0.18203880E-01
   0.27400000E+01           0.17452910E-01
   0.27500000E+01           0.16807055E-01
   0.27600000E+01           0.16161728E-01
   0.27700000E+01           0.15415344E-01
   0.27800000E+01           0.14815344E-01
   0.27900000E+01           0.14111287E-01
   0.28000000E+01           0.13599471E-01
   0.28100000E+01           0.12927337E-01
   0.28200000E+01           0.12429101E-01
   0.28300000E+01           0.11907407E-01
   0.28400000E+01           0.11499118E-01
   0.28500000E+01           0.10832628E-01
   0.28600000E+01           0.10515873E-01
   0.28700000E+01           0.10084480E-01
   0.28800000E+01           0.96194004E-02
   0.28900000E+01           0.91911817E-02
   0.29000000E+01           0.86726631E-02
   0.29100000E+01           0.83811287E-02
   0.29200000E+01           0.80000000E-02
   0.29300000E+01           0.76576720E-02
   0.29400000E+01           0.72791887E-02
   0.29500000E+01           0.69356261E-02
   0.29600000E+01           0.66167549E-02
   0.29700000E+01           0.63345679E-02
   0.29800000E+01           0.60798942E-02
   0.29900000E+01           0.57940035E-02
   0.30000000E+01           0.55031746E-02
   0.30100000E+01           0.52358025E-02
   0.30200000E+01           0.49673721E-02
   0.30300000E+01           0.47737213E-02
   0.30400000E+01           0.45216931E-02
   0.30500000E+01           0.43112875E-02
   0.30600000E+01           0.41118166E-02
   0.30700000E+01           0.39171076E-02
   0.30800000E+01           0.37012346E-02
   0.30900000E+01           0.35262787E-02
   0.31000000E+01           0.33911817E-02
   0.31100000E+01           0.31793651E-02
   0.31200000E+01           0.30716049E-02
   0.31300000E+01           0.28282187E-02
   0.31400000E+01           0.27451499E-02
   0.31500000E+01           0.25730159E-02
   0.31600000E+01           0.24393298E-02
   0.31700000E+01           0.22878307E-02
   0.31800000E+01           0.21901235E-02
   0.31900000E+01           0.20548501E-02
   0.32000000E+01           0.19370370E-02
   0.32100000E+01           0.18368607E-02
   0.32200000E+01           0.17345679E-02
   0.32300000E+01           0.16440917E-02
   0.32400000E+01           0.15486772E-02
   0.32500000E+01           0.14497354E-02
   0.32600000E+01           0.13927690E-02
   0.32700000E+01           0.12975309E-02
   0.32800000E+01           0.12474427E-02
   0.32900000E+01           0.11694885E-02
   0.33000000E+01           0.10992945E-02
   0.33100000E+01           0.10354497E-02
   0.33200000E+01           0.95432099E-03
   0.33300000E+01           0.90458554E-03
   0.33400000E+01           0.86067019E-03
   0.33500000E+01           0.81111111E-03
   0.33600000E+01           0.74320988E-03
   0.33700000E+01           0.70793651E-03
   0.33800000E+01           0.66948854E-03
   0.33900000E+01           0.61181658E-03
   0.34000000E+01           0.58042328E-03
   0.34100000E+01           0.54021164E-03
   0.34200000E+01           0.50987654E-03
   0.34300000E+01           0.47372134E-03
   0.34400000E+01           0.45343915E-03
   0.34500000E+01           0.41904762E-03
   0.34600000E+01           0.38201058E-03
   0.34700000E+01           0.36472663E-03
   0.34800000E+01           0.33738977E-03
   0.34900000E+01           0.31446208E-03
   0.35000000E+01           0.29470899E-03
   0.35100000E+01           0.27001764E-03
   0.35200000E+01           0.24320988E-03
   0.35300000E+01           0.23474427E-03
   0.35400000E+01           0.21040564E-03
   0.35500000E+01           0.19823633E-03
   0.35600000E+01           0.17830688E-03
   0.35700000E+01           0.17019400E-03
   0.35800000E+01           0.15008818E-03
   0.35900000E+01           0.15326279E-03
   0.36000000E+01           0.13456790E-03
   0.36100000E+01           0.11375661E-03
   0.36200000E+01           0.11604938E-03
   0.36300000E+01           0.10776014E-03
   0.36400000E+01           0.89770723E-04
   0.36500000E+01           0.83421517E-04
   0.36600000E+01           0.78835979E-04
   0.36700000E+01           0.71781305E-04
   0.36800000E+01           0.66490300E-04
   0.36900000E+01           0.58024691E-04
   0.37000000E+01           0.53968254E-04
   0.37100000E+01           0.50088183E-04
   0.37200000E+01           0.38624339E-04
   0.37300000E+01           0.39153439E-04
   0.37400000E+01           0.34744268E-04
   0.37500000E+01           0.28395062E-04
   0.37600000E+01           0.20282187E-04
   0.37700000E+01           0.25749559E-04
   0.37800000E+01           0.20282187E-04
   0.37900000E+01           0.18694885E-04
   0.38000000E+01           0.15696649E-04
   0.38100000E+01           0.12345679E-04
   0.38200000E+01           0.13580247E-04
   0.38300000E+01           0.10758377E-04
   0.38400000E+01           0.89947090E-05
   0.38500000E+01           0.72310406E-05
   0.38600000E+01           0.56437390E-05
   0.38700000E+01           0.61728395E-05
   0.38800000E+01           0.52910053E-05
   0.38900000E+01           0.35273369E-05
   0.39000000E+01           0.42328042E-05
   0.39100000E+01           0.17636684E-05
   0.39200000E+01           0.22927690E-05
   0.39300000E+01           0.10582011E-05
   0.39400000E+01           0.52910053E-06
   0.39500000E+01           0.10582011E-05
   0.39600000E+01           0.00000000E+00
   0.39700000E+01           0.52910053E-06
   0.39800000E+01           0.17636684E-06
   0.39900000E+01           0.00000000E+00
   0.40000000E+01           0.00000000E+00
 #T=   381.0000
  -0.40000000E+01           0.00000000E+00
  -0.39900000E+01           0.00000000E+00
  -0.39800000E+01           0.00000000E+00
  -0.39700000E+01           0.00000000E+00
  -0.39600000E+01           0.00000000E+00
  -0.39500000E+01           0.00000000E+00
  -0.39400000E+01           0.00000000E+00
  -0.39300000E+01           0.00000000E+00
  -0.39200000E+01           0.00000000E+00
  -0.39100000E+01           0.00000000E+00
  -0.39000000E+01           0.00000000E+00
  -0.38900000E+01           0.00000000E+00
  -0.38800000E+01           0.00000000E+00
  -0.38700000E+01           0.00000000E+00
  -0.38600000E+01           0.00000000E+00
  -0.38500000E+01           0.00000000E+00
  -0.38400000E+01           0.00000000E+00
  -0.38300000E+01           0.00000000E+00
  -0.38200000E+01           0.00000000E+00
  -0.38100000E+01           0.00000000E+00
  -0.38000000E+01           0.00000000E+00
  -0.37900000E+01           0.00000000E+00
  -0.37800000E+01           0.00000000E+00
  -0.37700000E+01           0.00000000E+00
  -0.37600000E+01           0.00000000E+00
  -0.37500000E+01           0.00000000E+00
  -0.37400000E+01           0.00000000E+00
  -0.37300000E+01           0.00000000E+00
  -0.37200000E+01           0.00000000E+00
  -0.37100000E+01           0.00000000E+00
  -0.37000000E+01           0.00000000E+00
  -0.36900000E+01           0.00000000E+00
  -0.36800000E+01           0.00000000E+00
  -0.36700000E+01           0.00000000E+00
  -0.36600000E+01           0.00000000E+00
  -0.36500000E+01           0.00000000E+00
  -0.36400000E+01           0.00000000E+00
  -0.36300000E+01           0.00000000E+00
  -0.36200000E+01           0.00000000E+00
  -0.36100000E+01           0.00000000E+00
  -0.36000000E+01           0.00000000E+00
  -0.35900000E+01           0.00000000E+00
  -0.35800000E+01           0.00000000E+00
  -0.35700000E+01           0.00000000E+00
  -0.35600000E+01           0.00000000E+00
  -0.35500000E+01           0.00000000E+00
  -0.35400000E+01           0.00000000E+00
  -0.35300000E+01           0.00000000E+00
  -0.35200000E+01           0.00000000E+00
  -0.35100000E+01           0.00000000E+00
  -0.35000000E+01           0.00000000E+00
  -0.34900000E+01           0.00000000E+00
  -0.34800000E+01           0.00000000E+00
  -0.34700000E+01           0.00000000E+00
  -0.34600000E+01           0.00000000E+00
  -0.34500000E+01           0.00000000E+00
  -0.34400000E+01           0.00000000E+00
  -0.34300000E+01           0.00000000E+00
  -0.34200000E+01           0.00000000E+00
  -0.34100000E+01           0.00000000E+00
  -0.34000000E+01           0.00000000E+00
  -0.33900000E+01           0.00000000E+00
  -0.33800000E+01           0.00000000E+00
  -0.33700000E+01           0.00000000E+00
  -0.33600000E+01           0.00000000E+00
  -0.33500000E+01           0.00000000E+00
  -0.33400000E+01           0.00000000E+00
  -0.33300000E+01           0.00000000E+00
  -0.33200000E+01           0.00000000E+00
  -0.33100000E+01           0.00000000E+00
  -0.33000000E+01           0.00000000E+00
  -0.32900000E+01           0.00000000E+00
  -0.32800000E+01           0.00000000E+00
  -0.32700000E+01           0.00000000E+00
  -0.32600000E+01           0.00000000E+00
  -0.32500000E+01           0.00000000E+00
  -0.32400000E+01           0.00000000E+00
  -0.32300000E+01           0.00000000E+00
  -0.32200000E+01           0.00000000E+00
  -0.32100000E+01           0.00000000E+00
  -0.32000000E+01           0.00000000E+00
  -0.31900000E+01           0.00000000E+00
  -0.31800000E+01           0.00000000E+00
  -0.31700000E+01           0.00000000E+00
  -0.31600000E+01           0.00000000E+00
  -0.31500000E+01           0.00000000E+00
  -0.31400000E+01           0.00000000E+00
  -0.31300000E+01           0.00000000E+00
  -0.31200000E+01           0.00000000E+00
  -0.31100000E+01           0.00000000E+00
  -0.31000000E+01           0.00000000E+00
  -0.30900000E+01           0.00000000E+00
  -0.30800000E+01           0.00000000E+00
  -0.30700000E+01           0.00000000E+00
  -0.30600000E+01           0.00000000E+00
  -0.30500000E+01           0.00000000E+00
  -0.30400000E+01           0.00000000E+00
  -0.30300000E+01           0.00000000E+00
  -0.30200000E+01           0.00000000E+00
  -0.30100000E+01           0.00000000E+00
  -0.30000000E+01           0.00000000E+00
  -0.29900000E+01           0.00000000E+00
  -0.29800000E+01           0.00000000E+00
  -0.29700000E+01           0.00000000E+00
  -0.29600000E+01           0.00000000E+00
  -0.29500000E+01           0.00000000E+00
  -0.29400000E+01           0.00000000E+00
  -0.29300000E+01           0.00000000E+00
  -0.29200000E+01           0.00000000E+00
  -0.29100000E+01           0.00000000E+00
  -0.29000000E+01           0.00000000E+00
  -0.28900000E+01           0.00000000E+00
  -0.28800000E+01           0.00000000E+00
  -0.28700000E+01           0.00000000E+00
  -0.28600000E+01           0.00000000E+00
  -0.28500000E+01           0.00000000E+00
  -0.28400000E+01           0.00000000E+00
  -0.28300000E+01           0.00000000E+00
  -0.28200000E+01           0.00000000E+00
  -0.28100000E+01           0.00000000E+00
  -0.28000000E+01           0.00000000E+00
  -0.27900000E+01           0.00000000E+00
  -0.27800000E+01           0.00000000E+00
  -0.27700000E+01           0.00000000E+00
  -0.27600000E+01           0.00000000E+00
  -0.27500000E+01           0.00000000E+00
  -0.27400000E+01           0.00000000E+00
  -0.27300000E+01           0.00000000E+00
  -0.27200000E+01           0.00000000E+00
  -0.27100000E+01           0.00000000E+00
  -0.27000000E+01           0.00000000E+00
  -0.26900000E+01           0.00000000E+00
  -0.26800000E+01           0.00000000E+00
  -0.26700000E+01           0.00000000E+00
  -0.26600000E+01           0.00000000E+00
  -0.26500000E+01           0.00000000E+00
  -0.26400000E+01           0.00000000E+00
  -0.26300000E+01           0.00000000E+00
  -0.26200000E+01           0.00000000E+00
  -0.26100000E+01           0.00000000E+00
  -0.26000000E+01           0.00000000E+00
  -0.25900000E+01           0.00000000E+00
  -0.25800000E+01           0.00000000E+00
  -0.25700000E+01           0.00000000E+00
  -0.25600000E+01           0.00000000E+00
  -0.25500000E+01           0.00000000E+00
  -0.25400000E+01           0.00000000E+00
  -0.25300000E+01           0.00000000E+00
  -0.25200000E+01           0.00000000E+00
  -0.25100000E+01           0.00000000E+00
  -0.25000000E+01           0.00000000E+00
  -0.24900000E+01           0.00000000E+00
  -0.24800000E+01           0.00000000E+00
  -0.24700000E+01           0.00000000E+00
  -0.24600000E+01           0.00000000E+00
  -0.24500000E+01           0.00000000E+00
  -0.24400000E+01           0.00000000E+00
  -0.24300000E+01           0.00000000E+00
  -0.24200000E+01           0.00000000E+00
  -0.24100000E+01           0.00000000E+00
  -0.24000000E+01           0.00000000E+00
  -0.23900000E+01           0.00000000E+00
  -0.23800000E+01           0.00000000E+00
  -0.23700000E+01           0.00000000E+00
  -0.23600000E+01           0.00000000E+00
  -0.23500000E+01           0.00000000E+00
  -0.23400000E+01           0.00000000E+00
  -0.23300000E+01           0.00000000E+00
  -0.23200000E+01           0.00000000E+00
  -0.23100000E+01           0.00000000E+00
  -0.23000000E+01           0.00000000E+00
  -0.22900000E+01           0.00000000E+00
  -0.22800000E+01           0.00000000E+00
  -0.22700000E+01           0.00000000E+00
  -0.22600000E+01           0.00000000E+00
  -0.22500000E+01           0.00000000E+00
  -0.22400000E+01           0.00000000E+00
  -0.22300000E+01           0.00000000E+00
  -0.22200000E+01           0.00000000E+00
  -0.22100000E+01           0.00000000E+00
  -0.22000000E+01           0.00000000E+00
  -0.21900000E+01           0.00000000E+00
  -0.21800000E+01           0.00000000E+00
  -0.21700000E+01           0.00000000E+00
  -0.21600000E+01           0.00000000E+00
  -0.21500000E+01           0.00000000E+00
  -0.21400000E+01           0.00000000E+00
  -0.21300000E+01           0.00000000E+00
  -0.21200000E+01           0.00000000E+00
  -0.21100000E+01           0.00000000E+00
  -0.21000000E+01           0.00000000E+00
  -0.20900000E+01           0.00000000E+00
  -0.20800000E+01           0.00000000E+00
  -0.20700000E+01           0.00000000E+00
  -0.20600000E+01           0.00000000E+00
  -0.20500000E+01           0.00000000E+00
  -0.20400000E+01           0.00000000E+00
  -0.20300000E+01           0.00000000E+00
  -0.20200000E+01           0.00000000E+00
  -0.20100000E+01           0.00000000E+00
  -0.20000000E+01           0.00000000E+00
  -0.19900000E+01           0.00000000E+00
  -0.19800000E+01           0.00000000E+00
  -0.19700000E+01           0.00000000E+00
  -0.19600000E+01           0.00000000E+00
  -0.19500000E+01           0.00000000E+00
  -0.19400000E+01           0.00000000E+00
  -0.19300000E+01           0.00000000E+00
  -0.19200000E+01           0.00000000E+00
  -0.19100000E+01           0.00000000E+00
  -0.19000000E+01           0.00000000E+00
  -0.18900000E+01           0.00000000E+00
  -0.18800000E+01           0.00000000E+00
  -0.18700000E+01           0.00000000E+00
  -0.18600000E+01           0.00000000E+00
  -0.18500000E+01           0.00000000E+00
  -0.18400000E+01           0.00000000E+00
  -0.18300000E+01           0.00000000E+00
  -0.18200000E+01           0.00000000E+00
  -0.18100000E+01           0.00000000E+00
  -0.18000000E+01           0.00000000E+00
  -0.17900000E+01           0.00000000E+00
  -0.17800000E+01           0.00000000E+00
  -0.17700000E+01           0.00000000E+00
  -0.17600000E+01           0.00000000E+00
  -0.17500000E+01           0.00000000E+00
  -0.17400000E+01           0.00000000E+00
  -0.17300000E+01           0.00000000E+00
  -0.17200000E+01           0.00000000E+00
  -0.17100000E+01           0.00000000E+00
  -0.17000000E+01           0.00000000E+00
  -0.16900000E+01           0.00000000E+00
  -0.16800000E+01           0.00000000E+00
  -0.16700000E+01           0.00000000E+00
  -0.16600000E+01           0.00000000E+00
  -0.16500000E+01           0.00000000E+00
  -0.16400000E+01           0.00000000E+00
  -0.16300000E+01           0.00000000E+00
  -0.16200000E+01           0.00000000E+00
  -0.16100000E+01           0.00000000E+00
  -0.16000000E+01           0.00000000E+00
  -0.15900000E+01           0.00000000E+00
  -0.15800000E+01           0.00000000E+00
  -0.15700000E+01           0.00000000E+00
  -0.15600000E+01           0.00000000E+00
  -0.15500000E+01           0.00000000E+00
  -0.15400000E+01           0.00000000E+00
  -0.15300000E+01           0.00000000E+00
  -0.15200000E+01           0.00000000E+00
  -0.15100000E+01           0.00000000E+00
  -0.15000000E+01           0.00000000E+00
  -0.14900000E+01           0.00000000E+00
  -0.14800000E+01           0.00000000E+00
  -0.14700000E+01           0.00000000E+00
  -0.14600000E+01           0.00000000E+00
  -0.14500000E+01           0.00000000E+00
  -0.14400000E+01           0.00000000E+00
  -0.14300000E+01           0.00000000E+00
  -0.14200000E+01           0.00000000E+00
  -0.14100000E+01           0.00000000E+00
  -0.14000000E+01           0.00000000E+00
  -0.13900000E+01           0.00000000E+00
  -0.13800000E+01           0.00000000E+00
  -0.13700000E+01           0.00000000E+00
  -0.13600000E+01           0.00000000E+00
  -0.13500000E+01           0.00000000E+00
  -0.13400000E+01           0.00000000E+00
  -0.13300000E+01           0.00000000E+00
  -0.13200000E+01           0.00000000E+00
  -0.13100000E+01           0.00000000E+00
  -0.13000000E+01           0.00000000E+00
  -0.12900000E+01           0.00000000E+00
  -0.12800000E+01           0.00000000E+00
  -0.12700000E+01           0.00000000E+00
  -0.12600000E+01           0.00000000E+00
  -0.12500000E+01           0.00000000E+00
  -0.12400000E+01           0.00000000E+00
  -0.12300000E+01           0.00000000E+00
  -0.12200000E+01           0.00000000E+00
  -0.12100000E+01           0.00000000E+00
  -0.12000000E+01           0.00000000E+00
  -0.11900000E+01           0.00000000E+00
  -0.11800000E+01           0.00000000E+00
  -0.11700000E+01           0.00000000E+00
  -0.11600000E+01           0.00000000E+00
  -0.11500000E+01           0.00000000E+00
  -0.11400000E+01           0.00000000E+00
  -0.11300000E+01           0.00000000E+00
  -0.11200000E+01           0.00000000E+00
  -0.11100000E+01           0.00000000E+00
  -0.11000000E+01           0.00000000E+00
  -0.10900000E+01           0.00000000E+00
  -0.10800000E+01           0.00000000E+00
  -0.10700000E+01           0.00000000E+00
  -0.10600000E+01           0.00000000E+00
  -0.10500000E+01           0.00000000E+00
  -0.10400000E+01           0.00000000E+00
  -0.10300000E+01           0.00000000E+00
  -0.10200000E+01           0.00000000E+00
  -0.10100000E+01           0.00000000E+00
  -0.10000000E+01           0.00000000E+00
  -0.99000000E+00           0.00000000E+00
  -0.98000000E+00           0.00000000E+00
  -0.97000000E+00           0.00000000E+00
  -0.96000000E+00           0.00000000E+00
  -0.95000000E+00           0.00000000E+00
  -0.94000000E+00           0.00000000E+00
  -0.93000000E+00           0.00000000E+00
  -0.92000000E+00           0.00000000E+00
  -0.91000000E+00           0.00000000E+00
  -0.90000000E+00           0.00000000E+00
  -0.89000000E+00           0.00000000E+00
  -0.88000000E+00           0.00000000E+00
  -0.87000000E+00           0.00000000E+00
  -0.86000000E+00           0.00000000E+00
  -0.85000000E+00           0.00000000E+00
  -0.84000000E+00           0.00000000E+00
  -0.83000000E+00           0.00000000E+00
  -0.82000000E+00           0.00000000E+00
  -0.81000000E+00           0.00000000E+00
  -0.80000000E+00           0.00000000E+00
  -0.79000000E+00           0.00000000E+00
  -0.78000000E+00           0.00000000E+00
  -0.77000000E+00           0.00000000E+00
  -0.76000000E+00           0.00000000E+00
  -0.75000000E+00           0.00000000E+00
  -0.74000000E+00           0.00000000E+00
  -0.73000000E+00           0.00000000E+00
  -0.72000000E+00           0.00000000E+00
  -0.71000000E+00           0.00000000E+00
  -0.70000000E+00           0.00000000E+00
  -0.69000000E+00           0.00000000E+00
  -0.68000000E+00           0.00000000E+00
  -0.67000000E+00           0.00000000E+00
  -0.66000000E+00           0.00000000E+00
  -0.65000000E+00           0.00000000E+00
  -0.64000000E+00           0.00000000E+00
  -0.63000000E+00           0.00000000E+00
  -0.62000000E+00           0.00000000E+00
  -0.61000000E+00           0.00000000E+00
  -0.60000000E+00           0.00000000E+00
  -0.59000000E+00           0.00000000E+00
  -0.58000000E+00           0.00000000E+00
  -0.57000000E+00           0.00000000E+00
  -0.56000000E+00           0.00000000E+00
  -0.55000000E+00           0.00000000E+00
  -0.54000000E+00           0.00000000E+00
  -0.53000000E+00           0.00000000E+00
  -0.52000000E+00           0.00000000E+00
  -0.51000000E+00           0.00000000E+00
  -0.50000000E+00           0.00000000E+00
  -0.49000000E+00           0.00000000E+00
  -0.48000000E+00           0.00000000E+00
  -0.47000000E+00           0.00000000E+00
  -0.46000000E+00           0.00000000E+00
  -0.45000000E+00           0.00000000E+00
  -0.44000000E+00           0.00000000E+00
  -0.43000000E+00           0.00000000E+00
  -0.42000000E+00           0.00000000E+00
  -0.41000000E+00           0.00000000E+00
  -0.40000000E+00           0.00000000E+00
  -0.39000000E+00           0.00000000E+00
  -0.38000000E+00           0.00000000E+00
  -0.37000000E+00           0.00000000E+00
  -0.36000000E+00           0.00000000E+00
  -0.35000000E+00           0.00000000E+00
  -0.34000000E+00           0.00000000E+00
  -0.33000000E+00           0.00000000E+00
  -0.32000000E+00           0.00000000E+00
  -0.31000000E+00           0.00000000E+00
  -0.30000000E+00           0.00000000E+00
  -0.29000000E+00           0.00000000E+00
  -0.28000000E+00           0.00000000E+00
  -0.27000000E+00           0.00000000E+00
  -0.26000000E+00           0.00000000E+00
  -0.25000000E+00           0.00000000E+00
  -0.24000000E+00           0.00000000E+00
  -0.23000000E+00           0.00000000E+00
  -0.22000000E+00           0.00000000E+00
  -0.21000000E+00           0.00000000E+00
  -0.20000000E+00           0.00000000E+00
  -0.19000000E+00           0.00000000E+00
  -0.18000000E+00           0.00000000E+00
  -0.17000000E+00           0.00000000E+00
  -0.16000000E+00           0.00000000E+00
  -0.15000000E+00           0.00000000E+00
  -0.14000000E+00           0.00000000E+00
  -0.13000000E+00           0.00000000E+00
  -0.12000000E+00           0.00000000E+00
  -0.11000000E+00           0.00000000E+00
  -0.10000000E+00           0.00000000E+00
  -0.90000000E-01           0.00000000E+00
  -0.80000000E-01           0.00000000E+00
  -0.70000000E-01           0.00000000E+00
  -0.60000000E-01           0.00000000E+00
  -0.50000000E-01           0.00000000E+00
  -0.40000000E-01           0.00000000E+00
  -0.30000000E-01           0.00000000E+00
  -0.20000000E-01           0.00000000E+00
  -0.10000000E-01           0.00000000E+00
   0.00000000E+00           0.15873016E-04
   0.10000000E-01           0.41358025E-03
   0.20000000E-01           0.15897707E-02
   0.30000000E-01           0.34451499E-02
   0.40000000E-01           0.60045855E-02
   0.50000000E-01           0.92797178E-02
   0.60000000E-01           0.13225220E-01
   0.70000000E-01           0.17641446E-01
   0.80000000E-01           0.22703351E-01
   0.90000000E-01           0.28258025E-01
   0.10000000E+00           0.34433157E-01
   0.11000000E+00           0.41199295E-01
   0.12000000E+00           0.48291711E-01
   0.13000000E+00           0.55983069E-01
   0.14000000E+00           0.64014109E-01
   0.15000000E+00           0.72363668E-01
   0.16000000E+00           0.81024339E-01
   0.17000000E+00           0.90045679E-01
   0.18000000E+00           0.99646561E-01
   0.19000000E+00           0.10930071E+00
   0.20000000E+00           0.11970988E+00
   0.21000000E+00           0.13003580E+00
   0.22000000E+00           0.14040000E+00
   0.23000000E+00           0.15112205E+00
   0.24000000E+00           0.16237354E+00
   0.25000000E+00           0.17385309E+00
   0.26000000E+00           0.18496508E+00
   0.27000000E+00           0.19680582E+00
   0.28000000E+00           0.20857513E+00
   0.29000000E+00           0.22036702E+00
   0.30000000E+00           0.23186067E+00
   0.31000000E+00           0.24426578E+00
   0.32000000E+00           0.25636455E+00
   0.33000000E+00           0.26824868E+00
   0.34000000E+00           0.28067372E+00
   0.35000000E+00           0.29282610E+00
   0.36000000E+00           0.30509771E+00
   0.37000000E+00           0.31750459E+00
   0.38000000E+00           0.32942063E+00
   0.39000000E+00           0.34186208E+00
   0.40000000E+00           0.35448730E+00
   0.41000000E+00           0.36601993E+00
   0.42000000E+00           0.37813510E+00
   0.43000000E+00           0.39076684E+00
   0.44000000E+00           0.40213862E+00
   0.45000000E+00           0.41443510E+00
   0.46000000E+00           0.42599771E+00
   0.47000000E+00           0.43812628E+00
   0.48000000E+00           0.44920194E+00
   0.49000000E+00           0.46027478E+00
   0.50000000E+00           0.47140000E+00
   0.51000000E+00           0.48307443E+00
   0.52000000E+00           0.49308183E+00
   0.53000000E+00           0.50387390E+00
   0.54000000E+00           0.51535450E+00
   0.55000000E+00           0.52572963E+00
   0.56000000E+00           0.53601764E+00
   0.57000000E+00           0.54706102E+00
   0.58000000E+00           0.55615979E+00
   0.59000000E+00           0.56562575E+00
   0.60000000E+00           0.57487425E+00
   0.61000000E+00           0.58367354E+00
   0.62000000E+00           0.59294074E+00
   0.63000000E+00           0.60121446E+00
   0.64000000E+00           0.61053351E+00
   0.65000000E+00           0.61891041E+00
   0.66000000E+00           0.62672381E+00
   0.67000000E+00           0.63513845E+00
   0.68000000E+00           0.64258713E+00
   0.69000000E+00           0.65017954E+00
   0.70000000E+00           0.65753351E+00
   0.71000000E+00           0.66452381E+00
   0.72000000E+00           0.67095238E+00
   0.73000000E+00           0.67728095E+00
   0.74000000E+00           0.68407160E+00
   0.75000000E+00           0.68935961E+00
   0.76000000E+00           0.69462399E+00
   0.77000000E+00           0.70025503E+00
   0.78000000E+00           0.70510882E+00
   0.79000000E+00           0.71052910E+00
   0.80000000E+00           0.71595785E+00
   0.81000000E+00           0.71941817E+00
   0.82000000E+00           0.72338871E+00
   0.83000000E+00           0.72656508E+00
   0.84000000E+00           0.73035697E+00
   0.85000000E+00           0.73446049E+00
   0.86000000E+00           0.73805450E+00
   0.87000000E+00           0.74005785E+00
   0.88000000E+00           0.74214321E+00
   0.89000000E+00           0.74404356E+00
   0.90000000E+00           0.74619400E+00
   0.91000000E+00           0.74815644E+00
   0.92000000E+00           0.74985132E+00
   0.93000000E+00           0.75100758E+00
   0.94000000E+00           0.75153086E+00
   0.95000000E+00           0.75278554E+00
   0.96000000E+00           0.75348342E+00
   0.97000000E+00           0.75337937E+00
   0.98000000E+00           0.75401517E+00
   0.99000000E+00           0.75326014E+00
   0.10000000E+01           0.75347196E+00
   0.10100000E+01           0.75162522E+00
   0.10200000E+01           0.75188571E+00
   0.10300000E+01           0.75050088E+00
   0.10400000E+01           0.74871993E+00
   0.10500000E+01           0.74734480E+00
   0.10600000E+01           0.74614656E+00
   0.10700000E+01           0.74387848E+00
   0.10800000E+01           0.74150829E+00
   0.10900000E+01           0.73885432E+00
   0.11000000E+01           0.73580370E+00
   0.11100000E+01           0.73413968E+00
   0.11200000E+01           0.73048536E+00
   0.11300000E+01           0.72836684E+00
   0.11400000E+01           0.72382152E+00
   0.11500000E+01           0.72023316E+00
   0.11600000E+01           0.71684638E+00
   0.11700000E+01           0.71315273E+00
   0.11800000E+01           0.70937937E+00
   0.11900000E+01           0.70445097E+00
   0.12000000E+01           0.70116596E+00
   0.12100000E+01           0.69585661E+00
   0.12200000E+01           0.69146173E+00
   0.12300000E+01           0.68677407E+00
   0.12400000E+01           0.68145432E+00
   0.12500000E+01           0.67707619E+00
   0.12600000E+01           0.67194533E+00
   0.12700000E+01           0.66676702E+00
   0.12800000E+01           0.66149700E+00
   0.12900000E+01           0.65536561E+00
   0.13000000E+01           0.65022063E+00
   0.13100000E+01           0.64402787E+00
   0.13200000E+01           0.63827866E+00
   0.13300000E+01           0.63265485E+00
   0.13400000E+01           0.62684268E+00
   0.13500000E+01           0.62015220E+00
   0.13600000E+01           0.61408360E+00
   0.13700000E+01           0.60784215E+00
   0.13800000E+01           0.60083245E+00
   0.13900000E+01           0.59536526E+00
   0.14000000E+01           0.58794797E+00
   0.14100000E+01           0.58183810E+00
   0.14200000E+01           0.57551376E+00
   0.14300000E+01           0.56856349E+00
   0.14400000E+01           0.56135873E+00
   0.14500000E+01           0.55504039E+00
   0.14600000E+01           0.54820847E+00
   0.14700000E+01           0.54095520E+00
   0.14800000E+01           0.53395591E+00
   0.14900000E+01           0.52727319E+00
   0.15000000E+01           0.52048818E+00
   0.15100000E+01           0.51325168E+00
   0.15200000E+01           0.50616526E+00
   0.15300000E+01           0.49905185E+00
   0.15400000E+01           0.49245326E+00
   0.15500000E+01           0.48487513E+00
   0.15600000E+01           0.47859577E+00
   0.15700000E+01           0.47114797E+00
   0.15800000E+01           0.46404056E+00
   0.15900000E+01           0.45662734E+00
   0.16000000E+01           0.45018995E+00
   0.16100000E+01           0.44271817E+00
   0.16200000E+01           0.43573474E+00
   0.16300000E+01           0.42885838E+00
   0.16400000E+01           0.42188007E+00
   0.16500000E+01           0.41436631E+00
   0.16600000E+01           0.40772698E+00
   0.16700000E+01           0.40068501E+00
   0.16800000E+01           0.39379065E+00
   0.16900000E+01           0.38700547E+00
   0.17000000E+01           0.38043263E+00
   0.17100000E+01           0.37345732E+00
   0.17200000E+01           0.36660899E+00
   0.17300000E+01           0.35956120E+00
   0.17400000E+01           0.35378783E+00
   0.17500000E+01           0.34708571E+00
   0.17600000E+01           0.33990406E+00
   0.17700000E+01           0.33318042E+00
   0.17800000E+01           0.32668131E+00
   0.17900000E+01           0.32043527E+00
   0.18000000E+01           0.31380794E+00
   0.18100000E+01           0.30799330E+00
   0.18200000E+01           0.30111958E+00
   0.18300000E+01           0.29506296E+00
   0.18400000E+01           0.28932275E+00
   0.18500000E+01           0.28286790E+00
   0.18600000E+01           0.27704004E+00
   0.18700000E+01           0.27107531E+00
   0.18800000E+01           0.26499347E+00
   0.18900000E+01           0.25896120E+00
   0.19000000E+01           0.25303510E+00
   0.19100000E+01           0.24738695E+00
   0.19200000E+01           0.24182928E+00
   0.19300000E+01           0.23624092E+00
   0.19400000E+01           0.23103933E+00
   0.19500000E+01           0.22578695E+00
   0.19600000E+01           0.22001834E+00
   0.19700000E+01           0.21460071E+00
   0.19800000E+01           0.20971781E+00
   0.19900000E+01           0.20458131E+00
   0.20000000E+01           0.19940035E+00
   0.20100000E+01           0.19410635E+00
   0.20200000E+01           0.18966614E+00
   0.20300000E+01           0.18478730E+00
   0.20400000E+01           0.17973298E+00
   0.20500000E+01           0.17521817E+00
   0.20600000E+01           0.17048307E+00
   0.20700000E+01           0.16587354E+00
   0.20800000E+01           0.16178201E+00
   0.20900000E+01           0.15743580E+00
   0.21000000E+01           0.15328166E+00
   0.21100000E+01           0.14911993E+00
   0.21200000E+01           0.14516314E+00
   0.21300000E+01           0.14130952E+00
   0.21400000E+01           0.13749259E+00
   0.21500000E+01           0.13327055E+00
   0.21600000E+01           0.12970335E+00
   0.21700000E+01           0.12610917E+00
   0.21800000E+01           0.12263633E+00
   0.21900000E+01           0.11921235E+00
   0.22000000E+01           0.11577707E+00
   0.22100000E+01           0.11255362E+00
   0.22200000E+01           0.10911340E+00
   0.22300000E+01           0.10570459E+00
   0.22400000E+01           0.10280353E+00
   0.22500000E+01           0.99888713E-01
   0.22600000E+01           0.96849383E-01
   0.22700000E+01           0.94022222E-01
   0.22800000E+01           0.91112522E-01
   0.22900000E+01           0.88287478E-01
   0.23000000E+01           0.85565608E-01
   0.23100000E+01           0.83134215E-01
   0.23200000E+01           0.80367019E-01
   0.23300000E+01           0.78113051E-01
   0.23400000E+01           0.75559965E-01
   0.23500000E+01           0.72978131E-01
   0.23600000E+01           0.70816402E-01
   0.23700000E+01           0.68624162E-01
   0.23800000E+01           0.66439506E-01
   0.23900000E+01           0.64317813E-01
   0.24000000E+01           0.62072663E-01
   0.24100000E+01           0.60154497E-01
   0.24200000E+01           0.58197884E-01
   0.24300000E+01           0.56254497E-01
   0.24400000E+01           0.54348325E-01
   0.24500000E+01           0.52462081E-01
   0.24600000E+01           0.50678836E-01
   0.24700000E+01           0.48963845E-01
   0.24800000E+01           0.47203527E-01
   0.24900000E+01           0.45834744E-01
   0.25000000E+01           0.44105115E-01
   0.25100000E+01           0.42505115E-01
   0.25200000E+01           0.41183774E-01
   0.25300000E+01           0.39759965E-01
   0.25400000E+01           0.38356085E-01
   0.25500000E+01           0.36809524E-01
   0.25600000E+01           0.35633686E-01
   0.25700000E+01           0.34165608E-01
   0.25800000E+01           0.33180776E-01
   0.25900000E+01           0.31845326E-01
   0.26000000E+01           0.30649912E-01
   0.26100000E+01           0.29639330E-01
   0.26200000E+01           0.28446914E-01
   0.26300000E+01           0.27497178E-01
   0.26400000E+01           0.26298236E-01
   0.26500000E+01           0.25434921E-01
   0.26600000E+01           0.24420459E-01
   0.26700000E+01           0.23473016E-01
   0.26800000E+01           0.22736332E-01
   0.26900000E+01           0.21627337E-01
   0.27000000E+01           0.20817813E-01
   0.27100000E+01           0.20097531E-01
   0.27200000E+01           0.19265079E-01
   0.27300000E+01           0.18683069E-01
   0.27400000E+01           0.17719577E-01
   0.27500000E+01           0.17191005E-01
   0.27600000E+01           0.16534215E-01
   0.27700000E+01           0.15683951E-01
   0.27800000E+01           0.15038448E-01
   0.27900000E+01           0.14410758E-01
   0.28000000E+01           0.13877425E-01
   0.28100000E+01           0.13280600E-01
   0.28200000E+01           0.12770194E-01
   0.28300000E+01           0.12189947E-01
   0.28400000E+01           0.11669489E-01
   0.28500000E+01           0.11100176E-01
   0.28600000E+01           0.10656966E-01
   0.28700000E+01           0.10220635E-01
   0.28800000E+01           0.97798942E-02
   0.28900000E+01           0.93423280E-02
   0.29000000E+01           0.89271605E-02
   0.29100000E+01           0.84673721E-02
   0.29200000E+01           0.81447972E-02
   0.29300000E+01           0.77887125E-02
   0.29400000E+01           0.74936508E-02
   0.29500000E+01           0.70754850E-02
   0.29600000E+01           0.67532628E-02
   0.29700000E+01           0.64313933E-02
   0.29800000E+01           0.62190476E-02
   0.29900000E+01           0.59409171E-02
   0.30000000E+01           0.56156966E-02
   0.30100000E+01           0.53613757E-02
   0.30200000E+01           0.51386243E-02
   0.30300000E+01           0.48857143E-02
   0.30400000E+01           0.46365079E-02
   0.30500000E+01           0.43954145E-02
   0.30600000E+01           0.41684303E-02
   0.30700000E+01           0.39335097E-02
   0.30800000E+01           0.37835979E-02
   0.30900000E+01           0.35534392E-02
   0.31000000E+01           0.34086420E-02
   0.31100000E+01           0.32065256E-02
   0.31200000E+01           0.30680776E-02
   0.31300000E+01           0.29467372E-02
   0.31400000E+01           0.28148148E-02
   0.31500000E+01           0.26014109E-02
   0.31600000E+01           0.25098765E-02
   0.31700000E+01           0.23292769E-02
   0.31800000E+01           0.22529101E-02
   0.31900000E+01           0.21201058E-02
   0.32000000E+01           0.19975309E-02
   0.32100000E+01           0.18599647E-02
   0.32200000E+01           0.18121693E-02
   0.32300000E+01           0.16955908E-02
   0.32400000E+01           0.16174603E-02
   0.32500000E+01           0.14940035E-02
   0.32600000E+01           0.14167549E-02
   0.32700000E+01           0.13370370E-02
   0.32800000E+01           0.12493827E-02
   0.32900000E+01           0.12107584E-02
   0.33000000E+01           0.11056437E-02
   0.33100000E+01           0.10553792E-02
   0.33200000E+01           0.10088183E-02
   0.33300000E+01           0.96402116E-03
   0.33400000E+01           0.89276896E-03
   0.33500000E+01           0.81111111E-03
   0.33600000E+01           0.77689594E-03
   0.33700000E+01           0.72363316E-03
   0.33800000E+01           0.68553792E-03
   0.33900000E+01           0.63456790E-03
   0.34000000E+01           0.58888889E-03
   0.34100000E+01           0.58765432E-03
   0.34200000E+01           0.52028219E-03
   0.34300000E+01           0.49294533E-03
   0.34400000E+01           0.46754850E-03
   0.34500000E+01           0.43051146E-03
   0.34600000E+01           0.40440917E-03
   0.34700000E+01           0.36278660E-03
   0.34800000E+01           0.35326279E-03
   0.34900000E+01           0.33880071E-03
   0.35000000E+01           0.30388007E-03
   0.35100000E+01           0.26895944E-03
   0.35200000E+01           0.26754850E-03
   0.35300000E+01           0.22839506E-03
   0.35400000E+01           0.22910053E-03
   0.35500000E+01           0.19453263E-03
   0.35600000E+01           0.18800705E-03
   0.35700000E+01           0.16984127E-03
   0.35800000E+01           0.15714286E-03
   0.35900000E+01           0.14532628E-03
   0.36000000E+01           0.13686067E-03
   0.36100000E+01           0.13139330E-03
   0.36200000E+01           0.11340388E-03
   0.36300000E+01           0.10352734E-03
   0.36400000E+01           0.92063492E-04
   0.36500000E+01           0.89594356E-04
   0.36600000E+01           0.78659612E-04
   0.36700000E+01           0.73897707E-04
   0.36800000E+01           0.63315697E-04
   0.36900000E+01           0.58201058E-04
   0.37000000E+01           0.49735450E-04
   0.37100000E+01           0.49029982E-04
   0.37200000E+01           0.49382716E-04
   0.37300000E+01           0.44268078E-04
   0.37400000E+01           0.36684303E-04
   0.37500000E+01           0.31393298E-04
   0.37600000E+01           0.25396825E-04
   0.37700000E+01           0.26631393E-04
   0.37800000E+01           0.27160494E-04
   0.37900000E+01           0.19576720E-04
   0.38000000E+01           0.13932981E-04
   0.38100000E+01           0.12169312E-04
   0.38200000E+01           0.14462081E-04
   0.38300000E+01           0.10229277E-04
   0.38400000E+01           0.74074074E-05
   0.38500000E+01           0.75837743E-05
   0.38600000E+01           0.63492063E-05
   0.38700000E+01           0.54673721E-05
   0.38800000E+01           0.58201058E-05
   0.38900000E+01           0.28218695E-05
   0.39000000E+01           0.26455026E-05
   0.39100000E+01           0.12345679E-05
   0.39200000E+01           0.14109347E-05
   0.39300000E+01           0.17636684E-05
   0.39400000E+01           0.14109347E-05
   0.39500000E+01           0.35273369E-06
   0.39600000E+01           0.17636684E-06
   0.39700000E+01           0.17636684E-06
   0.39800000E+01           0.00000000E+00
   0.39900000E+01           0.00000000E+00
   0.40000000E+01           0.00000000E+00
 #T=   382.0000
  -0.40000000E+01           0.00000000E+00
  -0.39900000E+01           0.00000000E+00
  -0.39800000E+01           0.00000000E+00
  -0.39700000E+01           0.00000000E+00
  -0.39600000E+01           0.00000000E+00
  -0.39500000E+01           0.00000000E+00
  -0.39400000E+01           0.00000000E+00
  -0.39300000E+01           0.00000000E+00
  -0.39200000E+01           0.00000000E+00
  -0.39100000E+01           0.00000000E+00
  -0.39000000E+01           0.00000000E+00
  -0.38900000E+01           0.00000000E+00
  -0.38800000E+01           0.00000000E+00
  -0.38700000E+01           0.00000000E+00
  -0.38600000E+01           0.00000000E+00
  -0.38500000E+01           0.00000000E+00
  -0.38400000E+01           0.00000000E+00
  -0.38300000E+01           0.00000000E+00
  -0.38200000E+01           0.00000000E+00
  -0.38100000E+01           0.00000000E+00
  -0.38000000E+01           0.00000000E+00
  -0.37900000E+01           0.00000000E+00
  -0.37800000E+01           0.00000000E+00
  -0.37700000E+01           0.00000000E+00
  -0.37600000E+01           0.00000000E+00
  -0.37500000E+01           0.00000000E+00
  -0.37400000E+01           0.00000000E+00
  -0.37300000E+01           0.00000000E+00
  -0.37200000E+01           0.00000000E+00
  -0.37100000E+01           0.00000000E+00
  -0.37000000E+01           0.00000000E+00
  -0.36900000E+01           0.00000000E+00
  -0.36800000E+01           0.00000000E+00
  -0.36700000E+01           0.00000000E+00
  -0.36600000E+01           0.00000000E+00
  -0.36500000E+01           0.00000000E+00
  -0.36400000E+01           0.00000000E+00
  -0.36300000E+01           0.00000000E+00
  -0.36200000E+01           0.00000000E+00
  -0.36100000E+01           0.00000000E+00
  -0.36000000E+01           0.00000000E+00
  -0.35900000E+01           0.00000000E+00
  -0.35800000E+01           0.00000000E+00
  -0.35700000E+01           0.00000000E+00
  -0.35600000E+01           0.00000000E+00
  -0.35500000E+01           0.00000000E+00
  -0.35400000E+01           0.00000000E+00
  -0.35300000E+01           0.00000000E+00
  -0.35200000E+01           0.00000000E+00
  -0.35100000E+01           0.00000000E+00
  -0.35000000E+01           0.00000000E+00
  -0.34900000E+01           0.00000000E+00
  -0.34800000E+01           0.00000000E+00
  -0.34700000E+01           0.00000000E+00
  -0.34600000E+01           0.00000000E+00
  -0.34500000E+01           0.00000000E+00
  -0.34400000E+01           0.00000000E+00
  -0.34300000E+01           0.00000000E+00
  -0.34200000E+01           0.00000000E+00
  -0.34100000E+01           0.00000000E+00
  -0.34000000E+01           0.00000000E+00
  -0.33900000E+01           0.00000000E+00
  -0.33800000E+01           0.00000000E+00
  -0.33700000E+01           0.00000000E+00
  -0.33600000E+01           0.00000000E+00
  -0.33500000E+01           0.00000000E+00
  -0.33400000E+01           0.00000000E+00
  -0.33300000E+01           0.00000000E+00
  -0.33200000E+01           0.00000000E+00
  -0.33100000E+01           0.00000000E+00
  -0.33000000E+01           0.00000000E+00
  -0.32900000E+01           0.00000000E+00
  -0.32800000E+01           0.00000000E+00
  -0.32700000E+01           0.00000000E+00
  -0.32600000E+01           0.00000000E+00
  -0.32500000E+01           0.00000000E+00
  -0.32400000E+01           0.00000000E+00
  -0.32300000E+01           0.00000000E+00
  -0.32200000E+01           0.00000000E+00
  -0.32100000E+01           0.00000000E+00
  -0.32000000E+01           0.00000000E+00
  -0.31900000E+01           0.00000000E+00
  -0.31800000E+01           0.00000000E+00
  -0.31700000E+01           0.00000000E+00
  -0.31600000E+01           0.00000000E+00
  -0.31500000E+01           0.00000000E+00
  -0.31400000E+01           0.00000000E+00
  -0.31300000E+01           0.00000000E+00
  -0.31200000E+01           0.00000000E+00
  -0.31100000E+01           0.00000000E+00
  -0.31000000E+01           0.00000000E+00
  -0.30900000E+01           0.00000000E+00
  -0.30800000E+01           0.00000000E+00
  -0.30700000E+01           0.00000000E+00
  -0.30600000E+01           0.00000000E+00
  -0.30500000E+01           0.00000000E+00
  -0.30400000E+01           0.00000000E+00
  -0.30300000E+01           0.00000000E+00
  -0.30200000E+01           0.00000000E+00
  -0.30100000E+01           0.00000000E+00
  -0.30000000E+01           0.00000000E+00
  -0.29900000E+01           0.00000000E+00
  -0.29800000E+01           0.00000000E+00
  -0.29700000E+01           0.00000000E+00
  -0.29600000E+01           0.00000000E+00
  -0.29500000E+01           0.00000000E+00
  -0.29400000E+01           0.00000000E+00
  -0.29300000E+01           0.00000000E+00
  -0.29200000E+01           0.00000000E+00
  -0.29100000E+01           0.00000000E+00
  -0.29000000E+01           0.00000000E+00
  -0.28900000E+01           0.00000000E+00
  -0.28800000E+01           0.00000000E+00
  -0.28700000E+01           0.00000000E+00
  -0.28600000E+01           0.00000000E+00
  -0.28500000E+01           0.00000000E+00
  -0.28400000E+01           0.00000000E+00
  -0.28300000E+01           0.00000000E+00
  -0.28200000E+01           0.00000000E+00
  -0.28100000E+01           0.00000000E+00
  -0.28000000E+01           0.00000000E+00
  -0.27900000E+01           0.00000000E+00
  -0.27800000E+01           0.00000000E+00
  -0.27700000E+01           0.00000000E+00
  -0.27600000E+01           0.00000000E+00
  -0.27500000E+01           0.00000000E+00
  -0.27400000E+01           0.00000000E+00
  -0.27300000E+01           0.00000000E+00
  -0.27200000E+01           0.00000000E+00
  -0.27100000E+01           0.00000000E+00
  -0.27000000E+01           0.00000000E+00
  -0.26900000E+01           0.00000000E+00
  -0.26800000E+01           0.00000000E+00
  -0.26700000E+01           0.00000000E+00
  -0.26600000E+01           0.00000000E+00
  -0.26500000E+01           0.00000000E+00
  -0.26400000E+01           0.00000000E+00
  -0.26300000E+01           0.00000000E+00
  -0.26200000E+01           0.00000000E+00
  -0.26100000E+01           0.00000000E+00
  -0.26000000E+01           0.00000000E+00
  -0.25900000E+01           0.00000000E+00
  -0.25800000E+01           0.00000000E+00
  -0.25700000E+01           0.00000000E+00
  -0.25600000E+01           0.00000000E+00
  -0.25500000E+01           0.00000000E+00
  -0.25400000E+01           0.00000000E+00
  -0.25300000E+01           0.00000000E+00
  -0.25200000E+01           0.00000000E+00
  -0.25100000E+01           0.00000000E+00
  -0.25000000E+01           0.00000000E+00
  -0.24900000E+01           0.00000000E+00
  -0.24800000E+01           0.00000000E+00
  -0.24700000E+01           0.00000000E+00
  -0.24600000E+01           0.00000000E+00
  -0.24500000E+01           0.00000000E+00
  -0.24400000E+01           0.00000000E+00
  -0.24300000E+01           0.00000000E+00
  -0.24200000E+01           0.00000000E+00
  -0.24100000E+01           0.00000000E+00
  -0.24000000E+01           0.00000000E+00
  -0.23900000E+01           0.00000000E+00
  -0.23800000E+01           0.00000000E+00
  -0.23700000E+01           0.00000000E+00
  -0.23600000E+01           0.00000000E+00
  -0.23500000E+01           0.00000000E+00
  -0.23400000E+01           0.00000000E+00
  -0.23300000E+01           0.00000000E+00
  -0.23200000E+01           0.00000000E+00
  -0.23100000E+01           0.00000000E+00
  -0.23000000E+01           0.00000000E+00
  -0.22900000E+01           0.00000000E+00
  -0.22800000E+01           0.00000000E+00
  -0.22700000E+01           0.00000000E+00
  -0.22600000E+01           0.00000000E+00
  -0.22500000E+01           0.00000000E+00
  -0.22400000E+01           0.00000000E+00
  -0.22300000E+01           0.00000000E+00
  -0.22200000E+01           0.00000000E+00
  -0.22100000E+01           0.00000000E+00
  -0.22000000E+01           0.00000000E+00
  -0.21900000E+01           0.00000000E+00
  -0.21800000E+01           0.00000000E+00
  -0.21700000E+01           0.00000000E+00
  -0.21600000E+01           0.00000000E+00
  -0.21500000E+01           0.00000000E+00
  -0.21400000E+01           0.00000000E+00
  -0.21300000E+01           0.00000000E+00
  -0.21200000E+01           0.00000000E+00
  -0.21100000E+01           0.00000000E+00
  -0.21000000E+01           0.00000000E+00
  -0.20900000E+01           0.00000000E+00
  -0.20800000E+01           0.00000000E+00
  -0.20700000E+01           0.00000000E+00
  -0.20600000E+01           0.00000000E+00
  -0.20500000E+01           0.00000000E+00
  -0.20400000E+01           0.00000000E+00
  -0.20300000E+01           0.00000000E+00
  -0.20200000E+01           0.00000000E+00
  -0.20100000E+01           0.00000000E+00
  -0.20000000E+01           0.00000000E+00
  -0.19900000E+01           0.00000000E+00
  -0.19800000E+01           0.00000000E+00
  -0.19700000E+01           0.00000000E+00
  -0.19600000E+01           0.00000000E+00
  -0.19500000E+01           0.00000000E+00
  -0.19400000E+01           0.00000000E+00
  -0.19300000E+01           0.00000000E+00
  -0.19200000E+01           0.00000000E+00
  -0.19100000E+01           0.00000000E+00
  -0.19000000E+01           0.00000000E+00
  -0.18900000E+01           0.00000000E+00
  -0.18800000E+01           0.00000000E+00
  -0.18700000E+01           0.00000000E+00
  -0.18600000E+01           0.00000000E+00
  -0.18500000E+01           0.00000000E+00
  -0.18400000E+01           0.00000000E+00
  -0.18300000E+01           0.00000000E+00
  -0.18200000E+01           0.00000000E+00
  -0.18100000E+01           0.00000000E+00
  -0.18000000E+01           0.00000000E+00
  -0.17900000E+01           0.00000000E+00
  -0.17800000E+01           0.00000000E+00
  -0.17700000E+01           0.00000000E+00
  -0.17600000E+01           0.00000000E+00
  -0.17500000E+01           0.00000000E+00
  -0.17400000E+01           0.00000000E+00
  -0.17300000E+01           0.00000000E+00
  -0.17200000E+01           0.00000000E+00
  -0.17100000E+01           0.00000000E+00
  -0.17000000E+01           0.00000000E+00
  -0.16900000E+01           0.00000000E+00
  -0.16800000E+01           0.00000000E+00
  -0.16700000E+01           0.00000000E+00
  -0.16600000E+01           0.00000000E+00
  -0.16500000E+01           0.00000000E+00
  -0.16400000E+01           0.00000000E+00
  -0.16300000E+01           0.00000000E+00
  -0.16200000E+01           0.00000000E+00
  -0.16100000E+01           0.00000000E+00
  -0.16000000E+01           0.00000000E+00
  -0.15900000E+01           0.00000000E+00
  -0.15800000E+01           0.00000000E+00
  -0.15700000E+01           0.00000000E+00
  -0.15600000E+01           0.00000000E+00
  -0.15500000E+01           0.00000000E+00
  -0.15400000E+01           0.00000000E+00
  -0.15300000E+01           0.00000000E+00
  -0.15200000E+01           0.00000000E+00
  -0.15100000E+01           0.00000000E+00
  -0.15000000E+01           0.00000000E+00
  -0.14900000E+01           0.00000000E+00
[...]
  -0.64000000E+00           0.00000000E+00
  -0.63000000E+00           0.00000000E+00
  -0.62000000E+00           0.00000000E+00
  -0.61000000E+00           0.00000000E+00
  -0.60000000E+00           0.00000000E+00
  -0.59000000E+00           0.00000000E+00
  -0.58000000E+00           0.00000000E+00
  -0.57000000E+00           0.00000000E+00
  -0.56000000E+00           0.00000000E+00
  -0.55000000E+00           0.00000000E+00
  -0.54000000E+00           0.00000000E+00
  -0.53000000E+00           0.00000000E+00
  -0.52000000E+00           0.00000000E+00
  -0.51000000E+00           0.00000000E+00
  -0.50000000E+00           0.00000000E+00
  -0.49000000E+00           0.00000000E+00
  -0.48000000E+00           0.00000000E+00
  -0.47000000E+00           0.00000000E+00
  -0.46000000E+00           0.00000000E+00
  -0.45000000E+00           0.00000000E+00
  -0.44000000E+00           0.00000000E+00
  -0.43000000E+00           0.00000000E+00
  -0.42000000E+00           0.00000000E+00
  -0.41000000E+00           0.00000000E+00
  -0.40000000E+00           0.00000000E+00
  -0.39000000E+00           0.00000000E+00
  -0.38000000E+00           0.00000000E+00
  -0.37000000E+00           0.00000000E+00
  -0.36000000E+00           0.00000000E+00
  -0.35000000E+00           0.00000000E+00
  -0.34000000E+00           0.00000000E+00
  -0.33000000E+00           0.00000000E+00
  -0.32000000E+00           0.00000000E+00
  -0.31000000E+00           0.00000000E+00
  -0.30000000E+00           0.00000000E+00
  -0.29000000E+00           0.00000000E+00
  -0.28000000E+00           0.00000000E+00
  -0.27000000E+00           0.00000000E+00
  -0.26000000E+00           0.00000000E+00
  -0.25000000E+00           0.00000000E+00
  -0.24000000E+00           0.00000000E+00
  -0.23000000E+00           0.00000000E+00
  -0.22000000E+00           0.00000000E+00
  -0.21000000E+00           0.00000000E+00
  -0.20000000E+00           0.00000000E+00
  -0.19000000E+00           0.00000000E+00
  -0.18000000E+00           0.00000000E+00
  -0.17000000E+00           0.00000000E+00
  -0.16000000E+00           0.00000000E+00
  -0.15000000E+00           0.00000000E+00
  -0.14000000E+00           0.00000000E+00
  -0.13000000E+00           0.00000000E+00
  -0.12000000E+00           0.00000000E+00
  -0.11000000E+00           0.00000000E+00
  -0.10000000E+00           0.00000000E+00
  -0.90000000E-01           0.00000000E+00
  -0.80000000E-01           0.00000000E+00
  -0.70000000E-01           0.00000000E+00
  -0.60000000E-01           0.00000000E+00
  -0.50000000E-01           0.00000000E+00
  -0.40000000E-01           0.00000000E+00
  -0.30000000E-01           0.00000000E+00
  -0.20000000E-01           0.00000000E+00
  -0.10000000E-01           0.00000000E+00
   0.00000000E+00           0.81128748E-05
   0.10000000E-01           0.19241623E-03
   0.20000000E-01           0.69982363E-03
   0.30000000E-01           0.15483245E-02
   0.40000000E-01           0.27298060E-02
   0.50000000E-01           0.42638448E-02
   0.60000000E-01           0.61322751E-02
   0.70000000E-01           0.81301587E-02
   0.80000000E-01           0.10501587E-01
   0.90000000E-01           0.13348854E-01
   0.10000000E+00           0.16122928E-01
   0.11000000E+00           0.19496825E-01
   0.12000000E+00           0.22969665E-01
   0.13000000E+00           0.26752028E-01
   0.14000000E+00           0.30937390E-01
   0.15000000E+00           0.35026631E-01
   0.16000000E+00           0.39379012E-01
   0.17000000E+00           0.44355556E-01
   0.18000000E+00           0.49242328E-01
   0.19000000E+00           0.54331570E-01
   0.20000000E+00           0.59732981E-01
   0.21000000E+00           0.65304938E-01
   0.22000000E+00           0.70999647E-01
   0.23000000E+00           0.76922751E-01
   0.24000000E+00           0.83243739E-01
   0.25000000E+00           0.89628395E-01
   0.26000000E+00           0.95947795E-01
   0.27000000E+00           0.10276720E+00
   0.28000000E+00           0.10910370E+00
   0.29000000E+00           0.11619718E+00
   0.30000000E+00           0.12318571E+00
   0.31000000E+00           0.13021905E+00
   0.32000000E+00           0.13770247E+00
   0.33000000E+00           0.14497072E+00
   0.34000000E+00           0.15223598E+00
   0.35000000E+00           0.16007125E+00
   0.36000000E+00           0.16790106E+00
   0.37000000E+00           0.17561834E+00
   0.38000000E+00           0.18325785E+00
   0.39000000E+00           0.19111393E+00
   0.40000000E+00           0.19952910E+00
   0.41000000E+00           0.20754991E+00
   0.42000000E+00           0.21568765E+00
   0.43000000E+00           0.22380159E+00
   0.44000000E+00           0.23173369E+00
   0.45000000E+00           0.24037178E+00
   0.46000000E+00           0.24817072E+00
   0.47000000E+00           0.25653704E+00
   0.48000000E+00           0.26473280E+00
   0.49000000E+00           0.27348519E+00
   0.50000000E+00           0.28230176E+00
   0.51000000E+00           0.29000723E+00
   0.52000000E+00           0.29831499E+00
   0.53000000E+00           0.30660406E+00
   0.54000000E+00           0.31500247E+00
   0.55000000E+00           0.32351869E+00
   0.56000000E+00           0.33145520E+00
   0.57000000E+00           0.34013386E+00
   0.58000000E+00           0.34835697E+00
   0.59000000E+00           0.35607937E+00
   0.60000000E+00           0.36396578E+00
   0.61000000E+00           0.37273580E+00
   0.62000000E+00           0.38056367E+00
   0.63000000E+00           0.38833333E+00
   0.64000000E+00           0.39626684E+00
   0.65000000E+00           0.40447972E+00
   0.66000000E+00           0.41265009E+00
   0.67000000E+00           0.41997443E+00
   0.68000000E+00           0.42820018E+00
   0.69000000E+00           0.43496772E+00
   0.70000000E+00           0.44252046E+00
   0.71000000E+00           0.45053951E+00
   0.72000000E+00           0.45780494E+00
   0.73000000E+00           0.46480970E+00
   0.74000000E+00           0.47134956E+00
   0.75000000E+00           0.47853968E+00
   0.76000000E+00           0.48538289E+00
   0.77000000E+00           0.49233404E+00
   0.78000000E+00           0.49925679E+00
   0.79000000E+00           0.50582152E+00
   0.80000000E+00           0.51188801E+00
   0.81000000E+00           0.51846349E+00
   0.82000000E+00           0.52481905E+00
   0.83000000E+00           0.53123810E+00
   0.84000000E+00           0.53712399E+00
   0.85000000E+00           0.54226702E+00
   0.86000000E+00           0.54820688E+00
   0.87000000E+00           0.55446032E+00
   0.88000000E+00           0.55973404E+00
   0.89000000E+00           0.56521481E+00
   0.90000000E+00           0.57034215E+00
   0.91000000E+00           0.57504691E+00
   0.92000000E+00           0.57984109E+00
   0.93000000E+00           0.58494780E+00
   0.94000000E+00           0.58892240E+00
   0.95000000E+00           0.59424074E+00
   0.96000000E+00           0.59854039E+00
   0.97000000E+00           0.60231129E+00
   0.98000000E+00           0.60618713E+00
   0.99000000E+00           0.61032381E+00
   0.10000000E+01           0.61361905E+00
   0.10100000E+01           0.61745503E+00
   0.10200000E+01           0.62062751E+00
   0.10300000E+01           0.62389136E+00
   0.10400000E+01           0.62719700E+00
   0.10500000E+01           0.63047302E+00
   0.10600000E+01           0.63331252E+00
   0.10700000E+01           0.63557831E+00
   0.10800000E+01           0.63798942E+00
   0.10900000E+01           0.64016279E+00
   0.11000000E+01           0.64278254E+00
   0.11100000E+01           0.64478131E+00
   0.11200000E+01           0.64642998E+00
   0.11300000E+01           0.64782734E+00
   0.11400000E+01           0.64977778E+00
   0.11500000E+01           0.65098959E+00
   0.11600000E+01           0.65191834E+00
   0.11700000E+01           0.65258095E+00
   0.11800000E+01           0.65367919E+00
   0.11900000E+01           0.65460935E+00
   0.12000000E+01           0.65545944E+00
   0.12100000E+01           0.65545855E+00
   0.12200000E+01           0.65620106E+00
   0.12300000E+01           0.65622399E+00
   0.12400000E+01           0.65644427E+00
   0.12500000E+01           0.65637443E+00
   0.12600000E+01           0.65608219E+00
   0.12700000E+01           0.65544515E+00
   0.12800000E+01           0.65434021E+00
   0.12900000E+01           0.65334850E+00
   0.13000000E+01           0.65303721E+00
   0.13100000E+01           0.65198254E+00
   0.13200000E+01           0.65093245E+00
   0.13300000E+01           0.64974956E+00
   0.13400000E+01           0.64791058E+00
   0.13500000E+01           0.64596067E+00
   0.13600000E+01           0.64504550E+00
   0.13700000E+01           0.64329171E+00
   0.13800000E+01           0.64087354E+00
   0.13900000E+01           0.63883175E+00
   0.14000000E+01           0.63662734E+00
   0.14100000E+01           0.63355432E+00
   0.14200000E+01           0.63195379E+00
   0.14300000E+01           0.62926049E+00
   0.14400000E+01           0.62620829E+00
   0.14500000E+01           0.62339330E+00
   0.14600000E+01           0.62054780E+00
   0.14700000E+01           0.61735908E+00
   0.14800000E+01           0.61456190E+00
   0.14900000E+01           0.61078254E+00
   0.15000000E+01           0.60706173E+00
   0.15100000E+01           0.60365220E+00
   0.15200000E+01           0.60011570E+00
   0.15300000E+01           0.59591817E+00
   0.15400000E+01           0.59260952E+00
   0.15500000E+01           0.58803845E+00
   0.15600000E+01           0.58476120E+00
   0.15700000E+01           0.58053580E+00
   0.15800000E+01           0.57628095E+00
   0.15900000E+01           0.57223774E+00
   0.16000000E+01           0.56771711E+00
   0.16100000E+01           0.56317496E+00
   0.16200000E+01           0.55853827E+00
   0.16300000E+01           0.55422681E+00
   0.16400000E+01           0.54928413E+00
   0.16500000E+01           0.54458131E+00
   0.16600000E+01           0.53962081E+00
   0.16700000E+01           0.53494515E+00
   0.16800000E+01           0.53013721E+00
   0.16900000E+01           0.52478183E+00
   0.17000000E+01           0.51954691E+00
   0.17100000E+01           0.51478589E+00
   0.17200000E+01           0.50830406E+00
   0.17300000E+01           0.50352063E+00
   0.17400000E+01           0.49747584E+00
   0.17500000E+01           0.49312945E+00
   0.17600000E+01           0.48725838E+00
   0.17700000E+01           0.48181146E+00
   0.17800000E+01           0.47667002E+00
   0.17900000E+01           0.47020899E+00
   0.18000000E+01           0.46474409E+00
   0.18100000E+01           0.45857566E+00
   0.18200000E+01           0.45338078E+00
   0.18300000E+01           0.44710529E+00
   0.18400000E+01           0.44146014E+00
   0.18500000E+01           0.43535062E+00
   0.18600000E+01           0.43014850E+00
   0.18700000E+01           0.42389559E+00
   0.18800000E+01           0.41825150E+00
   0.18900000E+01           0.41214938E+00
   0.19000000E+01           0.40616526E+00
   0.19100000E+01           0.40010265E+00
   0.19200000E+01           0.39394586E+00
   0.19300000E+01           0.38780071E+00
   0.19400000E+01           0.38202187E+00
   0.19500000E+01           0.37606702E+00
   0.19600000E+01           0.36956014E+00
   0.19700000E+01           0.36374374E+00
   0.19800000E+01           0.35776349E+00
   0.19900000E+01           0.35159700E+00
   0.20000000E+01           0.34582399E+00
   0.20100000E+01           0.33977972E+00
   0.20200000E+01           0.33336085E+00
   0.20300000E+01           0.32772116E+00
   0.20400000E+01           0.32174444E+00
   0.20500000E+01           0.31598660E+00
   0.20600000E+01           0.31065485E+00
   0.20700000E+01           0.30486332E+00
   0.20800000E+01           0.29901146E+00
   0.20900000E+01           0.29377619E+00
   0.21000000E+01           0.28821111E+00
   0.21100000E+01           0.28270988E+00
   0.21200000E+01           0.27709383E+00
   0.21300000E+01           0.27164621E+00
   0.21400000E+01           0.26666596E+00
   0.21500000E+01           0.26123422E+00
   0.21600000E+01           0.25626966E+00
   0.21700000E+01           0.25157072E+00
   0.21800000E+01           0.24611252E+00
   0.21900000E+01           0.24163598E+00
   0.22000000E+01           0.23663933E+00
   0.22100000E+01           0.23177231E+00
   0.22200000E+01           0.22695644E+00
   0.22300000E+01           0.22228095E+00
   0.22400000E+01           0.21775397E+00
   0.22500000E+01           0.21296808E+00
   0.22600000E+01           0.20848801E+00
   0.22700000E+01           0.20452063E+00
   0.22800000E+01           0.19998554E+00
   0.22900000E+01           0.19581323E+00
   0.23000000E+01           0.19173439E+00
   0.23100000E+01           0.18735044E+00
   0.23200000E+01           0.18334638E+00
   0.23300000E+01           0.17923016E+00
   0.23400000E+01           0.17520282E+00
   0.23500000E+01           0.17105291E+00
   0.23600000E+01           0.16748589E+00
   0.23700000E+01           0.16345079E+00
   0.23800000E+01           0.15976720E+00
   0.23900000E+01           0.15619224E+00
   0.24000000E+01           0.15292663E+00
   0.24100000E+01           0.14934480E+00
   0.24200000E+01           0.14579788E+00
   0.24300000E+01           0.14179894E+00
   0.24400000E+01           0.13870317E+00
   0.24500000E+01           0.13557654E+00
   0.24600000E+01           0.13222363E+00
   0.24700000E+01           0.12897513E+00
   0.24800000E+01           0.12587143E+00
   0.24900000E+01           0.12284797E+00
   0.25000000E+01           0.11973404E+00
   0.25100000E+01           0.11673333E+00
   0.25200000E+01           0.11392205E+00
   0.25300000E+01           0.11085432E+00
   0.25400000E+01           0.10807884E+00
   0.25500000E+01           0.10547795E+00
   0.25600000E+01           0.10270018E+00
   0.25700000E+01           0.10039277E+00
   0.25800000E+01           0.97743386E-01
   0.25900000E+01           0.94956614E-01
   0.26000000E+01           0.92341799E-01
   0.26100000E+01           0.89984832E-01
   0.26200000E+01           0.87701587E-01
   0.26300000E+01           0.85282716E-01
   0.26400000E+01           0.83019224E-01
   0.26500000E+01           0.80626455E-01
   0.26600000E+01           0.78516226E-01
   0.26700000E+01           0.76398236E-01
   0.26800000E+01           0.74245855E-01
   0.26900000E+01           0.72185009E-01
   0.27000000E+01           0.70004233E-01
   0.27100000E+01           0.68221517E-01
   0.27200000E+01           0.66167019E-01
   0.27300000E+01           0.64099295E-01
   0.27400000E+01           0.62286420E-01
   0.27500000E+01           0.60454850E-01
   0.27600000E+01           0.58807937E-01
   0.27700000E+01           0.57201235E-01
   0.27800000E+01           0.55346737E-01
   0.27900000E+01           0.53800705E-01
   0.28000000E+01           0.52215697E-01
   0.28100000E+01           0.50658025E-01
   0.28200000E+01           0.49173545E-01
   0.28300000E+01           0.47513404E-01
   0.28400000E+01           0.46157672E-01
   0.28500000E+01           0.44713933E-01
   0.28600000E+01           0.43091711E-01
   0.28700000E+01           0.41909877E-01
   0.28800000E+01           0.40583951E-01
   0.28900000E+01           0.39319048E-01
   0.29000000E+01           0.38025220E-01
   0.29100000E+01           0.36666138E-01
   0.29200000E+01           0.35751499E-01
   0.29300000E+01           0.34399295E-01
   0.29400000E+01           0.33305820E-01
   0.29500000E+01           0.32193827E-01
   0.29600000E+01           0.31124515E-01
   0.29700000E+01           0.29966490E-01
   0.29800000E+01           0.28970194E-01
   0.29900000E+01           0.27922928E-01
   0.30000000E+01           0.27076720E-01
   0.30100000E+01           0.26113757E-01
   0.30200000E+01           0.25162434E-01
   0.30300000E+01           0.24254497E-01
   0.30400000E+01           0.23287478E-01
   0.30500000E+01           0.22610582E-01
   0.30600000E+01           0.21833333E-01
   0.30700000E+01           0.20986772E-01
   0.30800000E+01           0.20286949E-01
   0.30900000E+01           0.19491887E-01
   0.31000000E+01           0.18741093E-01
   0.31100000E+01           0.18026279E-01
   0.31200000E+01           0.17293122E-01
   0.31300000E+01           0.16687478E-01
   0.31400000E+01           0.16033686E-01
   0.31500000E+01           0.15484832E-01
   0.31600000E+01           0.14771252E-01
   0.31700000E+01           0.14132451E-01
   0.31800000E+01           0.13573721E-01
   0.31900000E+01           0.12952734E-01
   0.32000000E+01           0.12453968E-01
   0.32100000E+01           0.12080776E-01
   0.32200000E+01           0.11506526E-01
   0.32300000E+01           0.11090829E-01
   0.32400000E+01           0.10653792E-01
   0.32500000E+01           0.10127690E-01
   0.32600000E+01           0.97246914E-02
   0.32700000E+01           0.93559083E-02
   0.32800000E+01           0.88047619E-02
   0.32900000E+01           0.84811287E-02
   0.33000000E+01           0.81074074E-02
   0.33100000E+01           0.76878307E-02
   0.33200000E+01           0.74266314E-02
   0.33300000E+01           0.70980600E-02
   0.33400000E+01           0.67723104E-02
   0.33500000E+01           0.64216931E-02
   0.33600000E+01           0.61178131E-02
   0.33700000E+01           0.58578483E-02
   0.33800000E+01           0.55241623E-02
   0.33900000E+01           0.52615520E-02
   0.34000000E+01           0.50306878E-02
   0.34100000E+01           0.47088183E-02
   0.34200000E+01           0.45253968E-02
   0.34300000E+01           0.42580247E-02
   0.34400000E+01           0.40317460E-02
   0.34500000E+01           0.38162257E-02
   0.34600000E+01           0.36451499E-02
   0.34700000E+01           0.34266314E-02
   0.34800000E+01           0.32349206E-02
   0.34900000E+01           0.30544974E-02
   0.35000000E+01           0.28680776E-02
   0.35100000E+01           0.27190476E-02
   0.35200000E+01           0.25830688E-02
   0.35300000E+01           0.24317460E-02
   0.35400000E+01           0.22633157E-02
   0.35500000E+01           0.21042328E-02
   0.35600000E+01           0.20171076E-02
   0.35700000E+01           0.18331570E-02
   0.35800000E+01           0.17389771E-02
   0.35900000E+01           0.16414462E-02
   0.36000000E+01           0.15289242E-02
   0.36100000E+01           0.14477954E-02
   0.36200000E+01           0.13409171E-02
   0.36300000E+01           0.12460317E-02
   0.36400000E+01           0.11525573E-02
   0.36500000E+01           0.10421517E-02
   0.36600000E+01           0.10049383E-02
   0.36700000E+01           0.91181658E-03
   0.36800000E+01           0.86243386E-03
   0.36900000E+01           0.77724868E-03
   0.37000000E+01           0.70917108E-03
   0.37100000E+01           0.65925926E-03
   0.37200000E+01           0.59541446E-03
   0.37300000E+01           0.54320988E-03
   0.37400000E+01           0.49047619E-03
   0.37500000E+01           0.45485009E-03
   0.37600000E+01           0.40352734E-03
   0.37700000E+01           0.37195767E-03
   0.37800000E+01           0.33721340E-03
   0.37900000E+01           0.30158730E-03
   0.38000000E+01           0.27178131E-03
   0.38100000E+01           0.24021164E-03
   0.38200000E+01           0.19347443E-03
   0.38300000E+01           0.16067019E-03
   0.38400000E+01           0.14338624E-03
   0.38500000E+01           0.12539683E-03
   0.38600000E+01           0.11728395E-03
   0.38700000E+01           0.95238095E-04
   0.38800000E+01           0.80070547E-04
   0.38900000E+01           0.68077601E-04
   0.39000000E+01           0.53615520E-04
   0.39100000E+01           0.39858907E-04
   0.39200000E+01           0.28924162E-04
   0.39300000E+01           0.24338624E-04
   0.39400000E+01           0.15520282E-04
   0.39500000E+01           0.11640212E-04
   0.39600000E+01           0.65255732E-05
   0.39700000E+01           0.44091711E-05
   0.39800000E+01           0.15873016E-05
   0.39900000E+01           0.70546737E-06
   0.40000000E+01           0.00000000E+00
