 #written on  5Sep2024 at 05:58:40 
 #----------------------------------------------- MONTECARLO ---------------------------------------------------#
 # Temp      Magnetization     Energy_ave          C_M              Sus              U_E              U_M       #
 #--------------------------------------------------------------------------------------------------------------#
 380.0000   0.92155303E-02  -0.50734983E+03   0.18143541E+01   0.91006592E-04   0.66606940E+00   0.44163073E+00
 381.0000   0.92276390E-02  -0.50551347E+03   0.18170967E+01   0.91094486E-04   0.66606093E+00   0.44167342E+00
 382.0000   0.92432061E-02  -0.50368200E+03   0.18239637E+01   0.91077119E-04   0.66605106E+00   0.44177688E+00
 383.0000   0.92648376E-02  -0.50191564E+03   0.18340661E+01   0.91251809E-04   0.66604006E+00   0.44180717E+00
 384.0000   0.92778862E-02  -0.50004655E+03   0.18441803E+01   0.91140196E-04   0.66602859E+00   0.44190453E+00
 385.0000   0.92952775E-02  -0.49817189E+03   0.18470581E+01   0.91321472E-04   0.66601943E+00   0.44255466E+00
 386.0000   0.93090273E-02  -0.49633599E+03   0.18601176E+01   0.91339333E-04   0.66600663E+00   0.44272792E+00
 387.0000   0.93276124E-02  -0.49448324E+03   0.18648549E+01   0.91582078E-04   0.66599656E+00   0.44185854E+00
 388.0000   0.93415893E-02  -0.49258016E+03   0.18749884E+01   0.91585216E-04   0.66598423E+00   0.44189719E+00
 389.0000   0.93618487E-02  -0.49067925E+03   0.18874242E+01   0.91712678E-04   0.66597084E+00   0.44208439E+00
 390.0000   0.93736208E-02  -0.48882420E+03   0.18933729E+01   0.91744869E-04   0.66595963E+00   0.44203287E+00
 391.0000   0.93924164E-02  -0.48692869E+03   0.19007038E+01   0.91747218E-04   0.66594771E+00   0.44211932E+00
 392.0000   0.94069169E-02  -0.48502720E+03   0.19092001E+01   0.91867946E-04   0.66593514E+00   0.44211262E+00
 393.0000   0.94295845E-02  -0.48307595E+03   0.19160507E+01   0.92025237E-04   0.66592288E+00   0.44231195E+00
 394.0000   0.94473125E-02  -0.48116556E+03   0.19279610E+01   0.91862520E-04   0.66590842E+00   0.44349686E+00
 395.0000   0.94742549E-02  -0.47922036E+03   0.19448535E+01   0.92354734E-04   0.66589171E+00   0.44179187E+00
 396.0000   0.94843261E-02  -0.47725994E+03   0.19509627E+01   0.92484669E-04   0.66587884E+00   0.44190317E+00
 397.0000   0.94956552E-02  -0.47534591E+03   0.19603600E+01   0.92533435E-04   0.66586461E+00   0.44191005E+00
 398.0000   0.95106172E-02  -0.47339128E+03   0.19649856E+01   0.92086719E-04   0.66585212E+00   0.44291647E+00
 399.0000   0.95270256E-02  -0.47138919E+03   0.19781915E+01   0.92434525E-04   0.66583544E+00   0.44256602E+00
 400.0000   0.95516812E-02  -0.46942200E+03   0.19908869E+01   0.92474581E-04   0.66581903E+00   0.44323637E+00
 401.0000   0.95660055E-02  -0.46742328E+03   0.20056810E+01   0.92563388E-04   0.66580102E+00   0.44291115E+00
 402.0000   0.95863651E-02  -0.46541661E+03   0.20138734E+01   0.92622840E-04   0.66578562E+00   0.44302296E+00
 403.0000   0.96008578E-02  -0.46336804E+03   0.20280208E+01   0.92775634E-04   0.66576725E+00   0.44293736E+00
 404.0000   0.96090156E-02  -0.46137264E+03   0.20380887E+01   0.93005070E-04   0.66575035E+00   0.44244121E+00
 405.0000   0.96383154E-02  -0.45935440E+03   0.20452751E+01   0.92943872E-04   0.66573440E+00   0.44323726E+00
 406.0000   0.96529810E-02  -0.45729546E+03   0.20587452E+01   0.92917720E-04   0.66571526E+00   0.44326750E+00
 407.0000   0.96713990E-02  -0.45521775E+03   0.20615858E+01   0.93149260E-04   0.66570063E+00   0.44307313E+00
 408.0000   0.96827266E-02  -0.45316117E+03   0.20728069E+01   0.93172925E-04   0.66568160E+00   0.44335768E+00
 409.0000   0.96994449E-02  -0.45108389E+03   0.20897362E+01   0.93256140E-04   0.66565950E+00   0.44336283E+00
 410.0000   0.97143073E-02  -0.44896359E+03   0.20957366E+01   0.93355080E-04   0.66564210E+00   0.44306533E+00
 411.0000   0.97308631E-02  -0.44690593E+03   0.21085758E+01   0.93304412E-04   0.66562133E+00   0.44320929E+00
 412.0000   0.97576545E-02  -0.44478788E+03   0.21183641E+01   0.93527037E-04   0.66560129E+00   0.44356874E+00
 413.0000   0.97706099E-02  -0.44264782E+03   0.21251556E+01   0.93881174E-04   0.66558237E+00   0.44292443E+00
 414.0000   0.97868490E-02  -0.44050540E+03   0.21416412E+01   0.93552803E-04   0.66555805E+00   0.44386840E+00
 415.0000   0.98027341E-02  -0.43839495E+03   0.21638102E+01   0.93624893E-04   0.66553042E+00   0.44343901E+00
 416.0000   0.98277167E-02  -0.43612754E+03   0.21763395E+01   0.93941138E-04   0.66550646E+00   0.44379448E+00
 417.0000   0.98374361E-02  -0.43402991E+03   0.21856629E+01   0.94059630E-04   0.66548468E+00   0.44334939E+00
 418.0000   0.98555147E-02  -0.43179145E+03   0.22034993E+01   0.94155336E-04   0.66545679E+00   0.44333445E+00
 419.0000   0.98725273E-02  -0.42955856E+03   0.22057183E+01   0.94211763E-04   0.66543687E+00   0.44338693E+00
 420.0000   0.98851609E-02  -0.42739329E+03   0.22274231E+01   0.94190203E-04   0.66540637E+00   0.44398975E+00
 421.0000   0.99059898E-02  -0.42509166E+03   0.22313288E+01   0.94150661E-04   0.66538428E+00   0.44452267E+00
 422.0000   0.99278081E-02  -0.42291464E+03   0.22535108E+01   0.94695810E-04   0.66535215E+00   0.44299367E+00
 423.0000   0.99400292E-02  -0.42064583E+03   0.22693320E+01   0.94521120E-04   0.66532223E+00   0.44428732E+00
 424.0000   0.99597623E-02  -0.41829939E+03   0.22821917E+01   0.94639767E-04   0.66529318E+00   0.44386453E+00
 425.0000   0.99824417E-02  -0.41603205E+03   0.23043799E+01   0.94937270E-04   0.66525815E+00   0.44388181E+00
 426.0000   0.10001883E-01  -0.41376744E+03   0.23047705E+01   0.94955435E-04   0.66523593E+00   0.44387671E+00
 427.0000   0.10022102E-01  -0.41145662E+03   0.23215138E+01   0.95255903E-04   0.66520217E+00   0.44399064E+00
 428.0000   0.10031201E-01  -0.40907936E+03   0.23421693E+01   0.95016158E-04   0.66516527E+00   0.44453296E+00
 429.0000   0.10049440E-01  -0.40672694E+03   0.23573833E+01   0.94998788E-04   0.66513075E+00   0.44428841E+00
 430.0000   0.10058215E-01  -0.40433823E+03   0.23675151E+01   0.95223357E-04   0.66509897E+00   0.44383328E+00
 431.0000   0.10075774E-01  -0.40206853E+03   0.23840318E+01   0.95435067E-04   0.66506257E+00   0.44338573E+00
 432.0000   0.10098667E-01  -0.39958817E+03   0.23929857E+01   0.95419438E-04   0.66502898E+00   0.44393747E+00
 433.0000   0.10115160E-01  -0.39724206E+03   0.24128903E+01   0.95825213E-04   0.66498796E+00   0.44331286E+00
 434.0000   0.10129404E-01  -0.39477619E+03   0.24344996E+01   0.95834825E-04   0.66494378E+00   0.44307870E+00
 435.0000   0.10150919E-01  -0.39235284E+03   0.24461939E+01   0.95907558E-04   0.66490589E+00   0.44378643E+00
 436.0000   0.10160425E-01  -0.38988256E+03   0.24602766E+01   0.96076586E-04   0.66486519E+00   0.44366719E+00
 437.0000   0.10187531E-01  -0.38744926E+03   0.24549120E+01   0.96164104E-04   0.66483742E+00   0.44370826E+00
 438.0000   0.10210210E-01  -0.38496467E+03   0.24712722E+01   0.96260702E-04   0.66479278E+00   0.44425182E+00
 439.0000   0.10217027E-01  -0.38253087E+03   0.24723310E+01   0.96052395E-04   0.66475934E+00   0.44438081E+00
 440.0000   0.10251425E-01  -0.38002152E+03   0.24685883E+01   0.96479669E-04   0.66472741E+00   0.44442176E+00
 441.0000   0.10261898E-01  -0.37760464E+03   0.24742217E+01   0.96446200E-04   0.66468903E+00   0.44405949E+00
 442.0000   0.10271063E-01  -0.37509377E+03   0.24751975E+01   0.96424401E-04   0.66465169E+00   0.44430287E+00
 443.0000   0.10300216E-01  -0.37259247E+03   0.24596941E+01   0.96677343E-04   0.66462777E+00   0.44462717E+00
 444.0000   0.10316373E-01  -0.37012783E+03   0.24396355E+01   0.96923348E-04   0.66460711E+00   0.44447117E+00
 445.0000   0.10329173E-01  -0.36773765E+03   0.24388186E+01   0.96955171E-04   0.66457041E+00   0.44376711E+00
 446.0000   0.10338564E-01  -0.36532485E+03   0.24129621E+01   0.96815359E-04   0.66455450E+00   0.44467806E+00
 447.0000   0.10360954E-01  -0.36297138E+03   0.23681346E+01   0.97099895E-04   0.66455609E+00   0.44407094E+00
 448.0000   0.10383490E-01  -0.36059531E+03   0.23464501E+01   0.97014329E-04   0.66453780E+00   0.44521038E+00
 449.0000   0.10400414E-01  -0.35826224E+03   0.23145500E+01   0.97516838E-04   0.66452801E+00   0.44304894E+00
 450.0000   0.10416505E-01  -0.35593289E+03   0.22809298E+01   0.97413521E-04   0.66452051E+00   0.44412934E+00
 451.0000   0.10438321E-01  -0.35368759E+03   0.22275958E+01   0.97809901E-04   0.66453383E+00   0.44388906E+00
 452.0000   0.10455515E-01  -0.35151096E+03   0.21829838E+01   0.97881270E-04   0.66454020E+00   0.44396247E+00
 453.0000   0.10466553E-01  -0.34934436E+03   0.21322350E+01   0.97766645E-04   0.66455339E+00   0.44415202E+00
 454.0000   0.10485707E-01  -0.34719933E+03   0.20837579E+01   0.97835877E-04   0.66456593E+00   0.44471456E+00
 455.0000   0.10489028E-01  -0.34517504E+03   0.20304012E+01   0.97843211E-04   0.66458553E+00   0.44392040E+00
 456.0000   0.10510477E-01  -0.34315721E+03   0.19776569E+01   0.97838332E-04   0.66460569E+00   0.44484189E+00
 457.0000   0.10520508E-01  -0.34121195E+03   0.19228856E+01   0.97923065E-04   0.66463081E+00   0.44400589E+00
 458.0000   0.10545245E-01  -0.33932045E+03   0.18708768E+01   0.97769131E-04   0.66465432E+00   0.44506041E+00
 459.0000   0.10548446E-01  -0.33749743E+03   0.18141082E+01   0.98138421E-04   0.66468578E+00   0.44376389E+00
 460.0000   0.10567557E-01  -0.33572185E+03   0.17643825E+01   0.98106400E-04   0.66471085E+00   0.44424551E+00
 461.0000   0.10585887E-01  -0.33399318E+03   0.17233198E+01   0.98347589E-04   0.66472789E+00   0.44406038E+00
 462.0000   0.10605815E-01  -0.33224455E+03   0.16737249E+01   0.98410588E-04   0.66475633E+00   0.44402179E+00
 463.0000   0.10615290E-01  -0.33059229E+03   0.16271828E+01   0.98275603E-04   0.66478247E+00   0.44403614E+00
 464.0000   0.10630473E-01  -0.32902121E+03   0.15856685E+01   0.98350860E-04   0.66480495E+00   0.44470291E+00
 465.0000   0.10646028E-01  -0.32737538E+03   0.15396124E+01   0.98235387E-04   0.66483319E+00   0.44505778E+00
 466.0000   0.10654539E-01  -0.32590771E+03   0.15057125E+01   0.98432625E-04   0.66484925E+00   0.44407202E+00
 467.0000   0.10673566E-01  -0.32441854E+03   0.14677812E+01   0.98834383E-04   0.66487139E+00   0.44381592E+00
 468.0000   0.10676598E-01  -0.32297306E+03   0.14345831E+01   0.98484043E-04   0.66488900E+00   0.44381913E+00
 469.0000   0.10695202E-01  -0.32154880E+03   0.13977325E+01   0.98632576E-04   0.66491232E+00   0.44427096E+00
 470.0000   0.10709434E-01  -0.32013618E+03   0.13725889E+01   0.98546850E-04   0.66492155E+00   0.44475209E+00
 471.0000   0.10721021E-01  -0.31878376E+03   0.13328665E+01   0.98538905E-04   0.66495085E+00   0.44427078E+00
 472.0000   0.10732355E-01  -0.31747425E+03   0.13110860E+01   0.98664119E-04   0.66495782E+00   0.44399762E+00
 473.0000   0.10746147E-01  -0.31617864E+03   0.12847261E+01   0.98605646E-04   0.66497095E+00   0.44447077E+00
 474.0000   0.10752935E-01  -0.31488927E+03   0.12676009E+01   0.98484225E-04   0.66497313E+00   0.44427047E+00
 475.0000   0.10770613E-01  -0.31364905E+03   0.12384320E+01   0.98514072E-04   0.66499241E+00   0.44494404E+00
 476.0000   0.10780782E-01  -0.31245650E+03   0.12160624E+01   0.98722642E-04   0.66500332E+00   0.44427969E+00
 477.0000   0.10796529E-01  -0.31122140E+03   0.11935183E+01   0.98707569E-04   0.66501441E+00   0.44439118E+00
 478.0000   0.10815119E-01  -0.31004610E+03   0.11770713E+01   0.98790978E-04   0.66501850E+00   0.44484649E+00
 479.0000   0.10821705E-01  -0.30886130E+03   0.11542440E+01   0.98640128E-04   0.66503074E+00   0.44495688E+00
