 #written on 15Sep2024 at 23:38:04 
 #----------------- MONTECARLO -------------------#
 #        M                      P(M)             #
 #------------------------------------------------#
 #T=     1.0000
  -0.20000000E+01           0.00000000E+00
  -0.19900000E+01           0.00000000E+00
  -0.19800000E+01           0.00000000E+00
  -0.19700000E+01           0.00000000E+00
  -0.19600000E+01           0.00000000E+00
  -0.19500000E+01           0.00000000E+00
  -0.19400000E+01           0.00000000E+00
  -0.19300000E+01           0.00000000E+00
  -0.19200000E+01           0.00000000E+00
  -0.19100000E+01           0.00000000E+00
  -0.19000000E+01           0.00000000E+00
  -0.18900000E+01           0.00000000E+00
  -0.18800000E+01           0.00000000E+00
  -0.18700000E+01           0.00000000E+00
  -0.18600000E+01           0.00000000E+00
  -0.18500000E+01           0.00000000E+00
  -0.18400000E+01           0.00000000E+00
  -0.18300000E+01           0.00000000E+00
  -0.18200000E+01           0.00000000E+00
  -0.18100000E+01           0.00000000E+00
  -0.18000000E+01           0.00000000E+00
  -0.17900000E+01           0.00000000E+00
  -0.17800000E+01           0.00000000E+00
  -0.17700000E+01           0.00000000E+00
  -0.17600000E+01           0.00000000E+00
  -0.17500000E+01           0.00000000E+00
  -0.17400000E+01           0.00000000E+00
  -0.17300000E+01           0.00000000E+00
  -0.17200000E+01           0.00000000E+00
  -0.17100000E+01           0.00000000E+00
  -0.17000000E+01           0.00000000E+00
  -0.16900000E+01           0.00000000E+00
  -0.16800000E+01           0.00000000E+00
  -0.16700000E+01           0.00000000E+00
  -0.16600000E+01           0.00000000E+00
  -0.16500000E+01           0.00000000E+00
  -0.16400000E+01           0.00000000E+00
  -0.16300000E+01           0.00000000E+00
  -0.16200000E+01           0.00000000E+00
  -0.16100000E+01           0.00000000E+00
  -0.16000000E+01           0.00000000E+00
  -0.15900000E+01           0.00000000E+00
  -0.15800000E+01           0.00000000E+00
  -0.15700000E+01           0.00000000E+00
  -0.15600000E+01           0.00000000E+00
  -0.15500000E+01           0.00000000E+00
  -0.15400000E+01           0.00000000E+00
  -0.15300000E+01           0.00000000E+00
  -0.15200000E+01           0.00000000E+00
  -0.15100000E+01           0.00000000E+00
  -0.15000000E+01           0.00000000E+00
  -0.14900000E+01           0.00000000E+00
  -0.14800000E+01           0.00000000E+00
  -0.14700000E+01           0.00000000E+00
  -0.14600000E+01           0.00000000E+00
  -0.14500000E+01           0.00000000E+00
  -0.14400000E+01           0.00000000E+00
  -0.14300000E+01           0.00000000E+00
  -0.14200000E+01           0.00000000E+00
  -0.14100000E+01           0.00000000E+00
  -0.14000000E+01           0.00000000E+00
  -0.13900000E+01           0.00000000E+00
  -0.13800000E+01           0.00000000E+00
  -0.13700000E+01           0.00000000E+00
  -0.13600000E+01           0.00000000E+00
  -0.13500000E+01           0.00000000E+00
  -0.13400000E+01           0.00000000E+00
  -0.13300000E+01           0.00000000E+00
  -0.13200000E+01           0.00000000E+00
  -0.13100000E+01           0.00000000E+00
  -0.13000000E+01           0.00000000E+00
  -0.12900000E+01           0.00000000E+00
  -0.12800000E+01           0.00000000E+00
  -0.12700000E+01           0.00000000E+00
  -0.12600000E+01           0.00000000E+00
  -0.12500000E+01           0.00000000E+00
  -0.12400000E+01           0.00000000E+00
  -0.12300000E+01           0.00000000E+00
  -0.12200000E+01           0.00000000E+00
  -0.12100000E+01           0.00000000E+00
  -0.12000000E+01           0.00000000E+00
  -0.11900000E+01           0.00000000E+00
  -0.11800000E+01           0.00000000E+00
  -0.11700000E+01           0.00000000E+00
  -0.11600000E+01           0.00000000E+00
  -0.11500000E+01           0.00000000E+00
  -0.11400000E+01           0.00000000E+00
  -0.11300000E+01           0.00000000E+00
  -0.11200000E+01           0.00000000E+00
  -0.11100000E+01           0.00000000E+00
  -0.11000000E+01           0.00000000E+00
  -0.10900000E+01           0.00000000E+00
  -0.10800000E+01           0.00000000E+00
  -0.10700000E+01           0.00000000E+00
  -0.10600000E+01           0.00000000E+00
  -0.10500000E+01           0.00000000E+00
  -0.10400000E+01           0.00000000E+00
  -0.10300000E+01           0.00000000E+00
  -0.10200000E+01           0.00000000E+00
  -0.10100000E+01           0.00000000E+00
  -0.10000000E+01           0.00000000E+00
  -0.99000000E+00           0.00000000E+00
  -0.98000000E+00           0.00000000E+00
  -0.97000000E+00           0.00000000E+00
  -0.96000000E+00           0.00000000E+00
  -0.95000000E+00           0.00000000E+00
  -0.94000000E+00           0.00000000E+00
  -0.93000000E+00           0.00000000E+00
  -0.92000000E+00           0.00000000E+00
  -0.91000000E+00           0.00000000E+00
  -0.90000000E+00           0.00000000E+00
  -0.89000000E+00           0.00000000E+00
  -0.88000000E+00           0.00000000E+00
  -0.87000000E+00           0.00000000E+00
  -0.86000000E+00           0.00000000E+00
  -0.85000000E+00           0.00000000E+00
  -0.84000000E+00           0.00000000E+00
  -0.83000000E+00           0.00000000E+00
  -0.82000000E+00           0.00000000E+00
  -0.81000000E+00           0.00000000E+00
  -0.80000000E+00           0.00000000E+00
  -0.79000000E+00           0.00000000E+00
  -0.78000000E+00           0.00000000E+00
  -0.77000000E+00           0.00000000E+00
  -0.76000000E+00           0.00000000E+00
  -0.75000000E+00           0.00000000E+00
  -0.74000000E+00           0.00000000E+00
  -0.73000000E+00           0.00000000E+00
  -0.72000000E+00           0.00000000E+00
  -0.71000000E+00           0.00000000E+00
  -0.70000000E+00           0.00000000E+00
  -0.69000000E+00           0.00000000E+00
  -0.68000000E+00           0.00000000E+00
  -0.67000000E+00           0.00000000E+00
  -0.66000000E+00           0.00000000E+00
  -0.65000000E+00           0.00000000E+00
  -0.64000000E+00           0.00000000E+00
  -0.63000000E+00           0.00000000E+00
  -0.62000000E+00           0.00000000E+00
  -0.61000000E+00           0.00000000E+00
  -0.60000000E+00           0.00000000E+00
  -0.59000000E+00           0.00000000E+00
  -0.58000000E+00           0.00000000E+00
  -0.57000000E+00           0.00000000E+00
  -0.56000000E+00           0.00000000E+00
  -0.55000000E+00           0.00000000E+00
  -0.54000000E+00           0.00000000E+00
  -0.53000000E+00           0.00000000E+00
  -0.52000000E+00           0.00000000E+00
  -0.51000000E+00           0.00000000E+00
  -0.50000000E+00           0.00000000E+00
  -0.49000000E+00           0.00000000E+00
  -0.48000000E+00           0.00000000E+00
  -0.47000000E+00           0.00000000E+00
  -0.46000000E+00           0.00000000E+00
  -0.45000000E+00           0.00000000E+00
  -0.44000000E+00           0.00000000E+00
  -0.43000000E+00           0.00000000E+00
  -0.42000000E+00           0.00000000E+00
  -0.41000000E+00           0.00000000E+00
  -0.40000000E+00           0.00000000E+00
  -0.39000000E+00           0.00000000E+00
  -0.38000000E+00           0.00000000E+00
  -0.37000000E+00           0.00000000E+00
  -0.36000000E+00           0.00000000E+00
  -0.35000000E+00           0.00000000E+00
  -0.34000000E+00           0.00000000E+00
  -0.33000000E+00           0.00000000E+00
  -0.32000000E+00           0.00000000E+00
  -0.31000000E+00           0.00000000E+00
  -0.30000000E+00           0.00000000E+00
  -0.29000000E+00           0.00000000E+00
  -0.28000000E+00           0.00000000E+00
  -0.27000000E+00           0.00000000E+00
  -0.26000000E+00           0.00000000E+00
  -0.25000000E+00           0.00000000E+00
  -0.24000000E+00           0.00000000E+00
  -0.23000000E+00           0.00000000E+00
  -0.22000000E+00           0.00000000E+00
  -0.21000000E+00           0.00000000E+00
  -0.20000000E+00           0.00000000E+00
  -0.19000000E+00           0.00000000E+00
  -0.18000000E+00           0.00000000E+00
  -0.17000000E+00           0.00000000E+00
  -0.16000000E+00           0.00000000E+00
  -0.15000000E+00           0.00000000E+00
  -0.14000000E+00           0.00000000E+00
  -0.13000000E+00           0.00000000E+00
  -0.12000000E+00           0.00000000E+00
  -0.11000000E+00           0.00000000E+00
  -0.10000000E+00           0.00000000E+00
  -0.90000000E-01           0.00000000E+00
  -0.80000000E-01           0.00000000E+00
  -0.70000000E-01           0.00000000E+00
  -0.60000000E-01           0.00000000E+00
  -0.50000000E-01           0.00000000E+00
  -0.40000000E-01           0.00000000E+00
  -0.30000000E-01           0.00000000E+00
  -0.20000000E-01           0.00000000E+00
  -0.10000000E-01           0.00000000E+00
   0.00000000E+00           0.00000000E+00
   0.10000000E-01           0.00000000E+00
   0.20000000E-01           0.00000000E+00
   0.30000000E-01           0.00000000E+00
   0.40000000E-01           0.00000000E+00
   0.50000000E-01           0.00000000E+00
   0.60000000E-01           0.00000000E+00
   0.70000000E-01           0.00000000E+00
   0.80000000E-01           0.00000000E+00
   0.90000000E-01           0.00000000E+00
   0.10000000E+00           0.00000000E+00
   0.11000000E+00           0.00000000E+00
   0.12000000E+00           0.00000000E+00
   0.13000000E+00           0.00000000E+00
   0.14000000E+00           0.00000000E+00
   0.15000000E+00           0.00000000E+00
   0.16000000E+00           0.00000000E+00
   0.17000000E+00           0.00000000E+00
   0.18000000E+00           0.00000000E+00
   0.19000000E+00           0.00000000E+00
   0.20000000E+00           0.00000000E+00
   0.21000000E+00           0.00000000E+00
   0.22000000E+00           0.00000000E+00
   0.23000000E+00           0.00000000E+00
   0.24000000E+00           0.00000000E+00
   0.25000000E+00           0.00000000E+00
   0.26000000E+00           0.00000000E+00
   0.27000000E+00           0.00000000E+00
   0.28000000E+00           0.00000000E+00
   0.29000000E+00           0.00000000E+00
   0.30000000E+00           0.00000000E+00
   0.31000000E+00           0.00000000E+00
   0.32000000E+00           0.00000000E+00
   0.33000000E+00           0.00000000E+00
   0.34000000E+00           0.00000000E+00
   0.35000000E+00           0.00000000E+00
   0.36000000E+00           0.00000000E+00
   0.37000000E+00           0.00000000E+00
   0.38000000E+00           0.00000000E+00
   0.39000000E+00           0.00000000E+00
   0.40000000E+00           0.00000000E+00
   0.41000000E+00           0.00000000E+00
   0.42000000E+00           0.00000000E+00
   0.43000000E+00           0.00000000E+00
   0.44000000E+00           0.00000000E+00
   0.45000000E+00           0.00000000E+00
   0.46000000E+00           0.00000000E+00
   0.47000000E+00           0.00000000E+00
   0.48000000E+00           0.00000000E+00
   0.49000000E+00           0.00000000E+00
   0.50000000E+00           0.00000000E+00
   0.51000000E+00           0.00000000E+00
   0.52000000E+00           0.00000000E+00
   0.53000000E+00           0.00000000E+00
   0.54000000E+00           0.00000000E+00
   0.55000000E+00           0.00000000E+00
   0.56000000E+00           0.00000000E+00
   0.57000000E+00           0.00000000E+00
   0.58000000E+00           0.00000000E+00
   0.59000000E+00           0.00000000E+00
   0.60000000E+00           0.00000000E+00
   0.61000000E+00           0.00000000E+00
   0.62000000E+00           0.00000000E+00
   0.63000000E+00           0.00000000E+00
   0.64000000E+00           0.00000000E+00
   0.65000000E+00           0.00000000E+00
   0.66000000E+00           0.00000000E+00
   0.67000000E+00           0.00000000E+00
   0.68000000E+00           0.00000000E+00
   0.69000000E+00           0.00000000E+00
   0.70000000E+00           0.00000000E+00
   0.71000000E+00           0.00000000E+00
   0.72000000E+00           0.00000000E+00
   0.73000000E+00           0.00000000E+00
   0.74000000E+00           0.00000000E+00
   0.75000000E+00           0.00000000E+00
   0.76000000E+00           0.00000000E+00
   0.77000000E+00           0.00000000E+00
   0.78000000E+00           0.00000000E+00
   0.79000000E+00           0.00000000E+00
   0.80000000E+00           0.00000000E+00
   0.81000000E+00           0.00000000E+00
   0.82000000E+00           0.00000000E+00
   0.83000000E+00           0.00000000E+00
   0.84000000E+00           0.00000000E+00
   0.85000000E+00           0.00000000E+00
   0.86000000E+00           0.00000000E+00
   0.87000000E+00           0.00000000E+00
   0.88000000E+00           0.00000000E+00
   0.89000000E+00           0.00000000E+00
   0.90000000E+00           0.00000000E+00
   0.91000000E+00           0.00000000E+00
   0.92000000E+00           0.00000000E+00
   0.93000000E+00           0.00000000E+00
   0.94000000E+00           0.00000000E+00
   0.95000000E+00           0.00000000E+00
   0.96000000E+00           0.00000000E+00
   0.97000000E+00           0.00000000E+00
   0.98000000E+00           0.00000000E+00
   0.99000000E+00           0.00000000E+00
   0.10000000E+01           0.00000000E+00
   0.10100000E+01           0.00000000E+00
   0.10200000E+01           0.00000000E+00
   0.10300000E+01           0.00000000E+00
   0.10400000E+01           0.00000000E+00
   0.10500000E+01           0.00000000E+00
   0.10600000E+01           0.00000000E+00
   0.10700000E+01           0.00000000E+00
   0.10800000E+01           0.00000000E+00
   0.10900000E+01           0.00000000E+00
   0.11000000E+01           0.10000000E-06
   0.11100000E+01           0.00000000E+00
   0.11200000E+01           0.00000000E+00
   0.11300000E+01           0.00000000E+00
   0.11400000E+01           0.00000000E+00
   0.11500000E+01           0.00000000E+00
   0.11600000E+01           0.00000000E+00
   0.11700000E+01           0.00000000E+00
   0.11800000E+01           0.00000000E+00
   0.11900000E+01           0.00000000E+00
   0.12000000E+01           0.00000000E+00
   0.12100000E+01           0.00000000E+00
   0.12200000E+01           0.00000000E+00
   0.12300000E+01           0.00000000E+00
   0.12400000E+01           0.00000000E+00
   0.12500000E+01           0.00000000E+00
   0.12600000E+01           0.00000000E+00
   0.12700000E+01           0.10000000E-06
   0.12800000E+01           0.00000000E+00
   0.12900000E+01           0.00000000E+00
   0.13000000E+01           0.00000000E+00
   0.13100000E+01           0.00000000E+00
   0.13200000E+01           0.00000000E+00
   0.13300000E+01           0.00000000E+00
   0.13400000E+01           0.00000000E+00
   0.13500000E+01           0.00000000E+00
   0.13600000E+01           0.00000000E+00
   0.13700000E+01           0.00000000E+00
   0.13800000E+01           0.00000000E+00
   0.13900000E+01           0.00000000E+00
   0.14000000E+01           0.00000000E+00
   0.14100000E+01           0.00000000E+00
   0.14200000E+01           0.00000000E+00
   0.14300000E+01           0.00000000E+00
   0.14400000E+01           0.00000000E+00
   0.14500000E+01           0.00000000E+00
   0.14600000E+01           0.00000000E+00
   0.14700000E+01           0.00000000E+00
   0.14800000E+01           0.00000000E+00
   0.14900000E+01           0.00000000E+00
   0.15000000E+01           0.00000000E+00
   0.15100000E+01           0.00000000E+00
   0.15200000E+01           0.00000000E+00
   0.15300000E+01           0.00000000E+00
   0.15400000E+01           0.00000000E+00
   0.15500000E+01           0.00000000E+00
   0.15600000E+01           0.00000000E+00
   0.15700000E+01           0.00000000E+00
   0.15800000E+01           0.00000000E+00
   0.15900000E+01           0.00000000E+00
   0.16000000E+01           0.00000000E+00
   0.16100000E+01           0.00000000E+00
   0.16200000E+01           0.00000000E+00
   0.16300000E+01           0.90000000E-06
   0.16400000E+01           0.15000000E-05
   0.16500000E+01           0.00000000E+00
   0.16600000E+01           0.11000000E-05
   0.16700000E+01           0.13000000E-04
   0.16800000E+01           0.47000000E-05
   0.16900000E+01           0.75000000E-05
   0.17000000E+01           0.80000000E-05
   0.17100000E+01           0.30600000E-04
   0.17200000E+01           0.39700000E-04
   0.17300000E+01           0.56500000E-04
   0.17400000E+01           0.72700000E-04
   0.17500000E+01           0.13970000E-03
   0.17600000E+01           0.27340000E-03
   0.17700000E+01           0.44680000E-03
   0.17800000E+01           0.75420000E-03
   0.17900000E+01           0.12237000E-02
   0.18000000E+01           0.21306000E-02
   0.18100000E+01           0.34025000E-02
   0.18200000E+01           0.57777000E-02
   0.18300000E+01           0.95477000E-02
   0.18400000E+01           0.15948800E-01
   0.18500000E+01           0.26808500E-01
   0.18600000E+01           0.43634300E-01
   0.18700000E+01           0.72990300E-01
   0.18800000E+01           0.12090740E+00
   0.18900000E+01           0.20008340E+00
   0.19000000E+01           0.33222470E+00
   0.19100000E+01           0.54990270E+00
   0.19200000E+01           0.90820210E+00
   0.19300000E+01           0.15025675E+01
   0.19400000E+01           0.24873820E+01
   0.19500000E+01           0.41155011E+01
   0.19600000E+01           0.68162107E+01
   0.19700000E+01           0.11245983E+02
   0.19800000E+01           0.18585897E+02
   0.19900000E+01           0.30730158E+02
   0.20000000E+01           0.22221665E+02
 #T=     2.0000
  -0.20000000E+01           0.00000000E+00
  -0.19900000E+01           0.00000000E+00
  -0.19800000E+01           0.00000000E+00
  -0.19700000E+01           0.00000000E+00
  -0.19600000E+01           0.00000000E+00
  -0.19500000E+01           0.00000000E+00
  -0.19400000E+01           0.00000000E+00
  -0.19300000E+01           0.00000000E+00
  -0.19200000E+01           0.00000000E+00
  -0.19100000E+01           0.00000000E+00
  -0.19000000E+01           0.00000000E+00
  -0.18900000E+01           0.00000000E+00
  -0.18800000E+01           0.00000000E+00
  -0.18700000E+01           0.00000000E+00
  -0.18600000E+01           0.00000000E+00
  -0.18500000E+01           0.00000000E+00
  -0.18400000E+01           0.00000000E+00
  -0.18300000E+01           0.00000000E+00
  -0.18200000E+01           0.00000000E+00
  -0.18100000E+01           0.00000000E+00
  -0.18000000E+01           0.00000000E+00
  -0.17900000E+01           0.00000000E+00
  -0.17800000E+01           0.00000000E+00
  -0.17700000E+01           0.00000000E+00
  -0.17600000E+01           0.00000000E+00
  -0.17500000E+01           0.00000000E+00
  -0.17400000E+01           0.00000000E+00
  -0.17300000E+01           0.00000000E+00
  -0.17200000E+01           0.00000000E+00
  -0.17100000E+01           0.00000000E+00
  -0.17000000E+01           0.00000000E+00
  -0.16900000E+01           0.00000000E+00
  -0.16800000E+01           0.00000000E+00
  -0.16700000E+01           0.00000000E+00
  -0.16600000E+01           0.00000000E+00
  -0.16500000E+01           0.00000000E+00
  -0.16400000E+01           0.00000000E+00
  -0.16300000E+01           0.00000000E+00
  -0.16200000E+01           0.00000000E+00
  -0.16100000E+01           0.00000000E+00
  -0.16000000E+01           0.00000000E+00
  -0.15900000E+01           0.00000000E+00
  -0.15800000E+01           0.00000000E+00
  -0.15700000E+01           0.00000000E+00
  -0.15600000E+01           0.00000000E+00
  -0.15500000E+01           0.00000000E+00
  -0.15400000E+01           0.00000000E+00
  -0.15300000E+01           0.00000000E+00
  -0.15200000E+01           0.00000000E+00
  -0.15100000E+01           0.00000000E+00
  -0.15000000E+01           0.00000000E+00
  -0.14900000E+01           0.00000000E+00
  -0.14800000E+01           0.00000000E+00
  -0.14700000E+01           0.00000000E+00
  -0.14600000E+01           0.00000000E+00
  -0.14500000E+01           0.00000000E+00
  -0.14400000E+01           0.00000000E+00
  -0.14300000E+01           0.00000000E+00
  -0.14200000E+01           0.00000000E+00
  -0.14100000E+01           0.00000000E+00
  -0.14000000E+01           0.00000000E+00
  -0.13900000E+01           0.00000000E+00
  -0.13800000E+01           0.00000000E+00
  -0.13700000E+01           0.00000000E+00
  -0.13600000E+01           0.00000000E+00
  -0.13500000E+01           0.00000000E+00
  -0.13400000E+01           0.00000000E+00
  -0.13300000E+01           0.00000000E+00
  -0.13200000E+01           0.00000000E+00
  -0.13100000E+01           0.00000000E+00
  -0.13000000E+01           0.00000000E+00
  -0.12900000E+01           0.00000000E+00
  -0.12800000E+01           0.00000000E+00
  -0.12700000E+01           0.00000000E+00
  -0.12600000E+01           0.00000000E+00
  -0.12500000E+01           0.00000000E+00
  -0.12400000E+01           0.00000000E+00
  -0.12300000E+01           0.00000000E+00
  -0.12200000E+01           0.00000000E+00
  -0.12100000E+01           0.00000000E+00
  -0.12000000E+01           0.00000000E+00
  -0.11900000E+01           0.00000000E+00
  -0.11800000E+01           0.00000000E+00
  -0.11700000E+01           0.00000000E+00
  -0.11600000E+01           0.00000000E+00
  -0.11500000E+01           0.00000000E+00
  -0.11400000E+01           0.00000000E+00
  -0.11300000E+01           0.00000000E+00
  -0.11200000E+01           0.00000000E+00
  -0.11100000E+01           0.00000000E+00
  -0.11000000E+01           0.00000000E+00
  -0.10900000E+01           0.00000000E+00
  -0.10800000E+01           0.00000000E+00
  -0.10700000E+01           0.00000000E+00
  -0.10600000E+01           0.00000000E+00
  -0.10500000E+01           0.00000000E+00
  -0.10400000E+01           0.00000000E+00
  -0.10300000E+01           0.00000000E+00
  -0.10200000E+01           0.00000000E+00
  -0.10100000E+01           0.00000000E+00
  -0.10000000E+01           0.00000000E+00
  -0.99000000E+00           0.00000000E+00
  -0.98000000E+00           0.00000000E+00
  -0.97000000E+00           0.00000000E+00
  -0.96000000E+00           0.00000000E+00
  -0.95000000E+00           0.00000000E+00
  -0.94000000E+00           0.00000000E+00
  -0.93000000E+00           0.00000000E+00
  -0.92000000E+00           0.00000000E+00
  -0.91000000E+00           0.00000000E+00
  -0.90000000E+00           0.00000000E+00
  -0.89000000E+00           0.00000000E+00
  -0.88000000E+00           0.00000000E+00
  -0.87000000E+00           0.00000000E+00
  -0.86000000E+00           0.00000000E+00
  -0.85000000E+00           0.00000000E+00
  -0.84000000E+00           0.00000000E+00
  -0.83000000E+00           0.00000000E+00
  -0.82000000E+00           0.00000000E+00
  -0.81000000E+00           0.00000000E+00
  -0.80000000E+00           0.00000000E+00
  -0.79000000E+00           0.00000000E+00
  -0.78000000E+00           0.00000000E+00
  -0.77000000E+00           0.00000000E+00
  -0.76000000E+00           0.00000000E+00
  -0.75000000E+00           0.00000000E+00
  -0.74000000E+00           0.00000000E+00
  -0.73000000E+00           0.00000000E+00
  -0.72000000E+00           0.00000000E+00
  -0.71000000E+00           0.00000000E+00
  -0.70000000E+00           0.00000000E+00
  -0.69000000E+00           0.00000000E+00
  -0.68000000E+00           0.00000000E+00
  -0.67000000E+00           0.00000000E+00
  -0.66000000E+00           0.00000000E+00
  -0.65000000E+00           0.00000000E+00
  -0.64000000E+00           0.00000000E+00
  -0.63000000E+00           0.00000000E+00
  -0.62000000E+00           0.00000000E+00
  -0.61000000E+00           0.00000000E+00
  -0.60000000E+00           0.00000000E+00
  -0.59000000E+00           0.00000000E+00
  -0.58000000E+00           0.00000000E+00
  -0.57000000E+00           0.00000000E+00
  -0.56000000E+00           0.00000000E+00
  -0.55000000E+00           0.00000000E+00
  -0.54000000E+00           0.00000000E+00
  -0.53000000E+00           0.00000000E+00
  -0.52000000E+00           0.00000000E+00
  -0.51000000E+00           0.00000000E+00
  -0.50000000E+00           0.00000000E+00
  -0.49000000E+00           0.00000000E+00
  -0.48000000E+00           0.00000000E+00
  -0.47000000E+00           0.00000000E+00
  -0.46000000E+00           0.00000000E+00
  -0.45000000E+00           0.00000000E+00
  -0.44000000E+00           0.00000000E+00
  -0.43000000E+00           0.00000000E+00
  -0.42000000E+00           0.00000000E+00
  -0.41000000E+00           0.00000000E+00
  -0.40000000E+00           0.00000000E+00
  -0.39000000E+00           0.00000000E+00
  -0.38000000E+00           0.00000000E+00
  -0.37000000E+00           0.00000000E+00
  -0.36000000E+00           0.00000000E+00
  -0.35000000E+00           0.00000000E+00
  -0.34000000E+00           0.00000000E+00
  -0.33000000E+00           0.00000000E+00
  -0.32000000E+00           0.00000000E+00
  -0.31000000E+00           0.00000000E+00
  -0.30000000E+00           0.00000000E+00
  -0.29000000E+00           0.00000000E+00
  -0.28000000E+00           0.00000000E+00
  -0.27000000E+00           0.00000000E+00
  -0.26000000E+00           0.00000000E+00
  -0.25000000E+00           0.00000000E+00
  -0.24000000E+00           0.00000000E+00
  -0.23000000E+00           0.00000000E+00
  -0.22000000E+00           0.00000000E+00
  -0.21000000E+00           0.00000000E+00
  -0.20000000E+00           0.00000000E+00
  -0.19000000E+00           0.00000000E+00
  -0.18000000E+00           0.00000000E+00
  -0.17000000E+00           0.00000000E+00
  -0.16000000E+00           0.00000000E+00
  -0.15000000E+00           0.00000000E+00
  -0.14000000E+00           0.00000000E+00
  -0.13000000E+00           0.00000000E+00
  -0.12000000E+00           0.00000000E+00
  -0.11000000E+00           0.00000000E+00
  -0.10000000E+00           0.00000000E+00
  -0.90000000E-01           0.00000000E+00
  -0.80000000E-01           0.00000000E+00
  -0.70000000E-01           0.00000000E+00
  -0.60000000E-01           0.00000000E+00
  -0.50000000E-01           0.00000000E+00
  -0.40000000E-01           0.00000000E+00
  -0.30000000E-01           0.00000000E+00
  -0.20000000E-01           0.00000000E+00
  -0.10000000E-01           0.00000000E+00
   0.00000000E+00           0.00000000E+00
   0.10000000E-01           0.00000000E+00
   0.20000000E-01           0.00000000E+00
   0.30000000E-01           0.00000000E+00
   0.40000000E-01           0.00000000E+00
   0.50000000E-01           0.00000000E+00
   0.60000000E-01           0.00000000E+00
   0.70000000E-01           0.00000000E+00
   0.80000000E-01           0.00000000E+00
   0.90000000E-01           0.00000000E+00
   0.10000000E+00           0.00000000E+00
   0.11000000E+00           0.00000000E+00
   0.12000000E+00           0.00000000E+00
   0.13000000E+00           0.00000000E+00
   0.14000000E+00           0.00000000E+00
   0.15000000E+00           0.00000000E+00
   0.16000000E+00           0.00000000E+00
   0.17000000E+00           0.00000000E+00
   0.18000000E+00           0.00000000E+00
   0.19000000E+00           0.00000000E+00
   0.20000000E+00           0.00000000E+00
   0.21000000E+00           0.00000000E+00
   0.22000000E+00           0.00000000E+00
   0.23000000E+00           0.00000000E+00
   0.24000000E+00           0.00000000E+00
   0.25000000E+00           0.00000000E+00
   0.26000000E+00           0.00000000E+00
   0.27000000E+00           0.00000000E+00
   0.28000000E+00           0.00000000E+00
   0.29000000E+00           0.00000000E+00
   0.30000000E+00           0.00000000E+00
   0.31000000E+00           0.00000000E+00
   0.32000000E+00           0.00000000E+00
   0.33000000E+00           0.00000000E+00
   0.34000000E+00           0.00000000E+00
   0.35000000E+00           0.00000000E+00
   0.36000000E+00           0.00000000E+00
   0.37000000E+00           0.00000000E+00
   0.38000000E+00           0.00000000E+00
   0.39000000E+00           0.00000000E+00
   0.40000000E+00           0.00000000E+00
   0.41000000E+00           0.00000000E+00
   0.42000000E+00           0.00000000E+00
   0.43000000E+00           0.00000000E+00
   0.44000000E+00           0.00000000E+00
   0.45000000E+00           0.00000000E+00
   0.46000000E+00           0.00000000E+00
   0.47000000E+00           0.00000000E+00
   0.48000000E+00           0.00000000E+00
   0.49000000E+00           0.00000000E+00
   0.50000000E+00           0.00000000E+00
   0.51000000E+00           0.00000000E+00
   0.52000000E+00           0.00000000E+00
   0.53000000E+00           0.00000000E+00
   0.54000000E+00           0.00000000E+00
   0.55000000E+00           0.00000000E+00
   0.56000000E+00           0.00000000E+00
   0.57000000E+00           0.00000000E+00
   0.58000000E+00           0.00000000E+00
   0.59000000E+00           0.00000000E+00
   0.60000000E+00           0.00000000E+00
   0.61000000E+00           0.00000000E+00
   0.62000000E+00           0.00000000E+00
   0.63000000E+00           0.00000000E+00
   0.64000000E+00           0.00000000E+00
   0.65000000E+00           0.00000000E+00
   0.66000000E+00           0.00000000E+00
   0.67000000E+00           0.00000000E+00
   0.68000000E+00           0.00000000E+00
   0.69000000E+00           0.00000000E+00
   0.70000000E+00           0.00000000E+00
   0.71000000E+00           0.00000000E+00
   0.72000000E+00           0.00000000E+00
   0.73000000E+00           0.00000000E+00
   0.74000000E+00           0.00000000E+00
   0.75000000E+00           0.00000000E+00
   0.76000000E+00           0.00000000E+00
   0.77000000E+00           0.00000000E+00
   0.78000000E+00           0.00000000E+00
   0.79000000E+00           0.00000000E+00
   0.80000000E+00           0.00000000E+00
   0.81000000E+00           0.00000000E+00
   0.82000000E+00           0.00000000E+00
   0.83000000E+00           0.00000000E+00
   0.84000000E+00           0.00000000E+00
   0.85000000E+00           0.00000000E+00
   0.86000000E+00           0.00000000E+00
   0.87000000E+00           0.00000000E+00
   0.88000000E+00           0.00000000E+00
   0.89000000E+00           0.00000000E+00
   0.90000000E+00           0.00000000E+00
   0.91000000E+00           0.00000000E+00
   0.92000000E+00           0.00000000E+00
   0.93000000E+00           0.00000000E+00
   0.94000000E+00           0.00000000E+00
   0.95000000E+00           0.00000000E+00
   0.96000000E+00           0.00000000E+00
   0.97000000E+00           0.00000000E+00
   0.98000000E+00           0.00000000E+00
   0.99000000E+00           0.00000000E+00
   0.10000000E+01           0.00000000E+00
   0.10100000E+01           0.00000000E+00
   0.10200000E+01           0.00000000E+00
   0.10300000E+01           0.00000000E+00
   0.10400000E+01           0.00000000E+00
   0.10500000E+01           0.00000000E+00
   0.10600000E+01           0.00000000E+00
   0.10700000E+01           0.00000000E+00
   0.10800000E+01           0.00000000E+00
   0.10900000E+01           0.00000000E+00
   0.11000000E+01           0.00000000E+00
   0.11100000E+01           0.00000000E+00
   0.11200000E+01           0.00000000E+00
   0.11300000E+01           0.00000000E+00
   0.11400000E+01           0.00000000E+00
   0.11500000E+01           0.00000000E+00
   0.11600000E+01           0.00000000E+00
   0.11700000E+01           0.00000000E+00
   0.11800000E+01           0.10000000E-06
   0.11900000E+01           0.00000000E+00
   0.12000000E+01           0.00000000E+00
   0.12100000E+01           0.00000000E+00
   0.12200000E+01           0.00000000E+00
   0.12300000E+01           0.00000000E+00
   0.12400000E+01           0.00000000E+00
   0.12500000E+01           0.00000000E+00
   0.12600000E+01           0.00000000E+00
   0.12700000E+01           0.00000000E+00
   0.12800000E+01           0.50000000E-06
   0.12900000E+01           0.00000000E+00
   0.13000000E+01           0.18000000E-05
   0.13100000E+01           0.00000000E+00
   0.13200000E+01           0.22000000E-05
   0.13300000E+01           0.10000000E-06
   0.13400000E+01           0.70000000E-06
   0.13500000E+01           0.23000000E-05
   0.13600000E+01           0.59000000E-05
   0.13700000E+01           0.62000000E-05
   0.13800000E+01           0.10000000E-05
   0.13900000E+01           0.88000000E-05
   0.14000000E+01           0.88000000E-05
   0.14100000E+01           0.95000000E-05
   0.14200000E+01           0.90000000E-05
   0.14300000E+01           0.68000000E-05
   0.14400000E+01           0.20200000E-04
   0.14500000E+01           0.22400000E-04
   0.14600000E+01           0.35900000E-04
   0.14700000E+01           0.40900000E-04
   0.14800000E+01           0.58400000E-04
   0.14900000E+01           0.70900000E-04
   0.15000000E+01           0.98500000E-04
   0.15100000E+01           0.10720000E-03
   0.15200000E+01           0.13740000E-03
   0.15300000E+01           0.21470000E-03
   0.15400000E+01           0.27330000E-03
   0.15500000E+01           0.31580000E-03
   0.15600000E+01           0.45580000E-03
   0.15700000E+01           0.53310000E-03
   0.15800000E+01           0.68430000E-03
   0.15900000E+01           0.88050000E-03
   0.16000000E+01           0.11488000E-02
   0.16100000E+01           0.15205000E-02
   0.16200000E+01           0.19162000E-02
   0.16300000E+01           0.23628000E-02
   0.16400000E+01           0.30190000E-02
   0.16500000E+01           0.39698000E-02
   0.16600000E+01           0.49010000E-02
   0.16700000E+01           0.64580000E-02
   0.16800000E+01           0.85664000E-02
   0.16900000E+01           0.10947700E-01
   0.17000000E+01           0.14344000E-01
   0.17100000E+01           0.18255300E-01
   0.17200000E+01           0.23017200E-01
   0.17300000E+01           0.29860800E-01
   0.17400000E+01           0.38457100E-01
   0.17500000E+01           0.49710300E-01
   0.17600000E+01           0.63623500E-01
   0.17700000E+01           0.82013500E-01
   0.17800000E+01           0.10438120E+00
   0.17900000E+01           0.13431240E+00
   0.18000000E+01           0.17350420E+00
   0.18100000E+01           0.22119290E+00
   0.18200000E+01           0.28419410E+00
   0.18300000E+01           0.36537910E+00
   0.18400000E+01           0.46943850E+00
   0.18500000E+01           0.60235060E+00
   0.18600000E+01           0.77234990E+00
   0.18700000E+01           0.98895100E+00
   0.18800000E+01           0.12682535E+01
   0.18900000E+01           0.16278662E+01
   0.19000000E+01           0.20867308E+01
   0.19100000E+01           0.26746516E+01
   0.19200000E+01           0.34268820E+01
   0.19300000E+01           0.43895379E+01
   0.19400000E+01           0.56244964E+01
   0.19500000E+01           0.72007685E+01
   0.19600000E+01           0.92329356E+01
   0.19700000E+01           0.11826466E+02
   0.19800000E+01           0.15141056E+02
   0.19900000E+01           0.19380944E+02
   0.20000000E+01           0.11635252E+02
 #T=     3.0000
  -0.20000000E+01           0.00000000E+00
  -0.19900000E+01           0.00000000E+00
  -0.19800000E+01           0.00000000E+00
  -0.19700000E+01           0.00000000E+00
  -0.19600000E+01           0.00000000E+00
  -0.19500000E+01           0.00000000E+00
  -0.19400000E+01           0.00000000E+00
  -0.19300000E+01           0.00000000E+00
  -0.19200000E+01           0.00000000E+00
  -0.19100000E+01           0.00000000E+00
  -0.19000000E+01           0.00000000E+00
  -0.18900000E+01           0.00000000E+00
  -0.18800000E+01           0.00000000E+00
  -0.18700000E+01           0.00000000E+00
  -0.18600000E+01           0.00000000E+00
  -0.18500000E+01           0.00000000E+00
  -0.18400000E+01           0.00000000E+00
  -0.18300000E+01           0.00000000E+00
  -0.18200000E+01           0.00000000E+00
  -0.18100000E+01           0.00000000E+00
  -0.18000000E+01           0.00000000E+00
  -0.17900000E+01           0.00000000E+00
  -0.17800000E+01           0.00000000E+00
  -0.17700000E+01           0.00000000E+00
  -0.17600000E+01           0.00000000E+00
  -0.17500000E+01           0.00000000E+00
  -0.17400000E+01           0.00000000E+00
  -0.17300000E+01           0.00000000E+00
  -0.17200000E+01           0.00000000E+00
  -0.17100000E+01           0.00000000E+00
  -0.17000000E+01           0.00000000E+00
  -0.16900000E+01           0.00000000E+00
  -0.16800000E+01           0.00000000E+00
  -0.16700000E+01           0.00000000E+00
  -0.16600000E+01           0.00000000E+00
  -0.16500000E+01           0.00000000E+00
  -0.16400000E+01           0.00000000E+00
  -0.16300000E+01           0.00000000E+00
  -0.16200000E+01           0.00000000E+00
  -0.16100000E+01           0.00000000E+00
  -0.16000000E+01           0.00000000E+00
  -0.15900000E+01           0.00000000E+00
  -0.15800000E+01           0.00000000E+00
  -0.15700000E+01           0.00000000E+00
  -0.15600000E+01           0.00000000E+00
  -0.15500000E+01           0.00000000E+00
  -0.15400000E+01           0.00000000E+00
  -0.15300000E+01           0.00000000E+00
  -0.15200000E+01           0.00000000E+00
  -0.15100000E+01           0.00000000E+00
  -0.15000000E+01           0.00000000E+00
  -0.14900000E+01           0.00000000E+00
  -0.14800000E+01           0.00000000E+00
  -0.14700000E+01           0.00000000E+00
  -0.14600000E+01           0.00000000E+00
  -0.14500000E+01           0.00000000E+00
  -0.14400000E+01           0.00000000E+00
  -0.14300000E+01           0.00000000E+00
  -0.14200000E+01           0.00000000E+00
  -0.14100000E+01           0.00000000E+00
  -0.14000000E+01           0.00000000E+00
  -0.13900000E+01           0.00000000E+00
  -0.13800000E+01           0.00000000E+00
  -0.13700000E+01           0.00000000E+00
  -0.13600000E+01           0.00000000E+00
  -0.13500000E+01           0.00000000E+00
  -0.13400000E+01           0.00000000E+00
  -0.13300000E+01           0.00000000E+00
  -0.13200000E+01           0.00000000E+00
  -0.13100000E+01           0.00000000E+00
  -0.13000000E+01           0.00000000E+00
  -0.12900000E+01           0.00000000E+00
  -0.12800000E+01           0.00000000E+00
  -0.12700000E+01           0.00000000E+00
  -0.12600000E+01           0.00000000E+00
  -0.12500000E+01           0.00000000E+00
  -0.12400000E+01           0.00000000E+00
  -0.12300000E+01           0.00000000E+00
  -0.12200000E+01           0.00000000E+00
  -0.12100000E+01           0.00000000E+00
  -0.12000000E+01           0.00000000E+00
  -0.11900000E+01           0.00000000E+00
  -0.11800000E+01           0.00000000E+00
  -0.11700000E+01           0.00000000E+00
  -0.11600000E+01           0.00000000E+00
  -0.11500000E+01           0.00000000E+00
  -0.11400000E+01           0.00000000E+00
  -0.11300000E+01           0.00000000E+00
  -0.11200000E+01           0.00000000E+00
  -0.11100000E+01           0.00000000E+00
  -0.11000000E+01           0.00000000E+00
  -0.10900000E+01           0.00000000E+00
  -0.10800000E+01           0.00000000E+00
  -0.10700000E+01           0.00000000E+00
  -0.10600000E+01           0.00000000E+00
  -0.10500000E+01           0.00000000E+00
  -0.10400000E+01           0.00000000E+00
  -0.10300000E+01           0.00000000E+00
  -0.10200000E+01           0.00000000E+00
  -0.10100000E+01           0.00000000E+00
  -0.10000000E+01           0.00000000E+00
  -0.99000000E+00           0.00000000E+00
  -0.98000000E+00           0.00000000E+00
  -0.97000000E+00           0.00000000E+00
  -0.96000000E+00           0.00000000E+00
  -0.95000000E+00           0.00000000E+00
  -0.94000000E+00           0.00000000E+00
  -0.93000000E+00           0.00000000E+00
  -0.92000000E+00           0.00000000E+00
  -0.91000000E+00           0.00000000E+00
  -0.90000000E+00           0.00000000E+00
  -0.89000000E+00           0.00000000E+00
  -0.88000000E+00           0.00000000E+00
  -0.87000000E+00           0.00000000E+00
  -0.86000000E+00           0.00000000E+00
  -0.85000000E+00           0.00000000E+00
  -0.84000000E+00           0.00000000E+00
  -0.83000000E+00           0.00000000E+00
  -0.82000000E+00           0.00000000E+00
  -0.81000000E+00           0.00000000E+00
  -0.80000000E+00           0.00000000E+00
  -0.79000000E+00           0.00000000E+00
  -0.78000000E+00           0.00000000E+00
  -0.77000000E+00           0.00000000E+00
  -0.76000000E+00           0.00000000E+00
  -0.75000000E+00           0.00000000E+00
  -0.74000000E+00           0.00000000E+00
  -0.73000000E+00           0.00000000E+00
  -0.72000000E+00           0.00000000E+00
  -0.71000000E+00           0.00000000E+00
  -0.70000000E+00           0.00000000E+00
  -0.69000000E+00           0.00000000E+00
  -0.68000000E+00           0.00000000E+00
  -0.67000000E+00           0.00000000E+00
  -0.66000000E+00           0.00000000E+00
  -0.65000000E+00           0.00000000E+00
  -0.64000000E+00           0.00000000E+00
  -0.63000000E+00           0.00000000E+00
  -0.62000000E+00           0.00000000E+00
  -0.61000000E+00           0.00000000E+00
  -0.60000000E+00           0.00000000E+00
  -0.59000000E+00           0.00000000E+00
  -0.58000000E+00           0.00000000E+00
  -0.57000000E+00           0.00000000E+00
  -0.56000000E+00           0.00000000E+00
  -0.55000000E+00           0.00000000E+00
  -0.54000000E+00           0.00000000E+00
  -0.53000000E+00           0.00000000E+00
  -0.52000000E+00           0.00000000E+00
  -0.51000000E+00           0.00000000E+00
  -0.50000000E+00           0.00000000E+00
  -0.49000000E+00           0.00000000E+00
  -0.48000000E+00           0.00000000E+00
  -0.47000000E+00           0.00000000E+00
  -0.46000000E+00           0.00000000E+00
  -0.45000000E+00           0.00000000E+00
  -0.44000000E+00           0.00000000E+00
  -0.43000000E+00           0.00000000E+00
  -0.42000000E+00           0.00000000E+00
  -0.41000000E+00           0.00000000E+00
  -0.40000000E+00           0.00000000E+00
  -0.39000000E+00           0.00000000E+00
  -0.38000000E+00           0.00000000E+00
  -0.37000000E+00           0.00000000E+00
  -0.36000000E+00           0.00000000E+00
  -0.35000000E+00           0.00000000E+00
  -0.34000000E+00           0.00000000E+00
  -0.33000000E+00           0.00000000E+00
  -0.32000000E+00           0.00000000E+00
  -0.31000000E+00           0.00000000E+00
  -0.30000000E+00           0.00000000E+00
  -0.29000000E+00           0.00000000E+00
  -0.28000000E+00           0.00000000E+00
  -0.27000000E+00           0.00000000E+00
  -0.26000000E+00           0.00000000E+00
  -0.25000000E+00           0.00000000E+00
  -0.24000000E+00           0.00000000E+00
  -0.23000000E+00           0.00000000E+00
  -0.22000000E+00           0.00000000E+00
  -0.21000000E+00           0.00000000E+00
  -0.20000000E+00           0.00000000E+00
  -0.19000000E+00           0.00000000E+00
  -0.18000000E+00           0.00000000E+00
  -0.17000000E+00           0.00000000E+00
  -0.16000000E+00           0.00000000E+00
  -0.15000000E+00           0.00000000E+00
  -0.14000000E+00           0.00000000E+00
  -0.13000000E+00           0.00000000E+00
  -0.12000000E+00           0.00000000E+00
  -0.11000000E+00           0.00000000E+00
  -0.10000000E+00           0.00000000E+00
  -0.90000000E-01           0.00000000E+00
  -0.80000000E-01           0.00000000E+00
  -0.70000000E-01           0.00000000E+00
  -0.60000000E-01           0.00000000E+00
  -0.50000000E-01           0.00000000E+00
  -0.40000000E-01           0.00000000E+00
  -0.30000000E-01           0.00000000E+00
  -0.20000000E-01           0.00000000E+00
  -0.10000000E-01           0.00000000E+00
   0.00000000E+00           0.00000000E+00
   0.10000000E-01           0.00000000E+00
   0.20000000E-01           0.00000000E+00
   0.30000000E-01           0.00000000E+00
   0.40000000E-01           0.00000000E+00
   0.50000000E-01           0.00000000E+00
   0.60000000E-01           0.00000000E+00
   0.70000000E-01           0.00000000E+00
   0.80000000E-01           0.00000000E+00
   0.90000000E-01           0.00000000E+00
   0.10000000E+00           0.00000000E+00
   0.11000000E+00           0.00000000E+00
   0.12000000E+00           0.00000000E+00
   0.13000000E+00           0.00000000E+00
   0.14000000E+00           0.00000000E+00
   0.15000000E+00           0.00000000E+00
   0.16000000E+00           0.00000000E+00
   0.17000000E+00           0.00000000E+00
   0.18000000E+00           0.00000000E+00
   0.19000000E+00           0.00000000E+00
   0.20000000E+00           0.00000000E+00
   0.21000000E+00           0.00000000E+00
   0.22000000E+00           0.00000000E+00
   0.23000000E+00           0.00000000E+00
   0.24000000E+00           0.00000000E+00
   0.25000000E+00           0.00000000E+00
   0.26000000E+00           0.00000000E+00
   0.27000000E+00           0.00000000E+00
   0.28000000E+00           0.00000000E+00
   0.29000000E+00           0.00000000E+00
   0.30000000E+00           0.00000000E+00
   0.31000000E+00           0.00000000E+00
   0.32000000E+00           0.00000000E+00
   0.33000000E+00           0.00000000E+00
   0.34000000E+00           0.00000000E+00
   0.35000000E+00           0.00000000E+00
   0.36000000E+00           0.00000000E+00
   0.37000000E+00           0.00000000E+00
   0.38000000E+00           0.00000000E+00
   0.39000000E+00           0.00000000E+00
   0.40000000E+00           0.00000000E+00
   0.41000000E+00           0.00000000E+00
   0.42000000E+00           0.00000000E+00
   0.43000000E+00           0.00000000E+00
   0.44000000E+00           0.00000000E+00
   0.45000000E+00           0.00000000E+00
   0.46000000E+00           0.00000000E+00
   0.47000000E+00           0.00000000E+00
   0.48000000E+00           0.00000000E+00
   0.49000000E+00           0.00000000E+00
   0.50000000E+00           0.00000000E+00
   0.51000000E+00           0.00000000E+00
   0.52000000E+00           0.00000000E+00
   0.53000000E+00           0.00000000E+00
   0.54000000E+00           0.00000000E+00
   0.55000000E+00           0.00000000E+00
   0.56000000E+00           0.00000000E+00
   0.57000000E+00           0.00000000E+00
   0.58000000E+00           0.00000000E+00
   0.59000000E+00           0.00000000E+00
   0.60000000E+00           0.00000000E+00
   0.61000000E+00           0.00000000E+00
   0.62000000E+00           0.00000000E+00
   0.63000000E+00           0.00000000E+00
   0.64000000E+00           0.00000000E+00
   0.65000000E+00           0.00000000E+00
   0.66000000E+00           0.00000000E+00
   0.67000000E+00           0.10000000E-06
   0.68000000E+00           0.00000000E+00
   0.69000000E+00           0.00000000E+00
   0.70000000E+00           0.00000000E+00
   0.71000000E+00           0.00000000E+00
   0.72000000E+00           0.00000000E+00
   0.73000000E+00           0.00000000E+00
   0.74000000E+00           0.00000000E+00
   0.75000000E+00           0.10000000E-06
   0.76000000E+00           0.00000000E+00
   0.77000000E+00           0.00000000E+00
   0.78000000E+00           0.00000000E+00
   0.79000000E+00           0.00000000E+00
   0.80000000E+00           0.00000000E+00
   0.81000000E+00           0.00000000E+00
   0.82000000E+00           0.00000000E+00
   0.83000000E+00           0.00000000E+00
   0.84000000E+00           0.00000000E+00
   0.85000000E+00           0.10000000E-06
   0.86000000E+00           0.00000000E+00
   0.87000000E+00           0.00000000E+00
   0.88000000E+00           0.10000000E-06
   0.89000000E+00           0.00000000E+00
   0.90000000E+00           0.00000000E+00
   0.91000000E+00           0.00000000E+00
   0.92000000E+00           0.00000000E+00
   0.93000000E+00           0.10000000E-06
   0.94000000E+00           0.10000000E-06
   0.95000000E+00           0.00000000E+00
   0.96000000E+00           0.11000000E-05
   0.97000000E+00           0.40000000E-06
   0.98000000E+00           0.70000000E-06
   0.99000000E+00           0.70000000E-06
   0.10000000E+01           0.00000000E+00
   0.10100000E+01           0.14000000E-05
   0.10200000E+01           0.14000000E-05
   0.10300000E+01           0.90000000E-06
   0.10400000E+01           0.13000000E-05
   0.10500000E+01           0.12000000E-05
   0.10600000E+01           0.17000000E-05
   0.10700000E+01           0.52000000E-05
   0.10800000E+01           0.34000000E-05
   0.10900000E+01           0.33000000E-05
   0.11000000E+01           0.38000000E-05
   0.11100000E+01           0.90000000E-05
   0.11200000E+01           0.53000000E-05
   0.11300000E+01           0.64000000E-05
   0.11400000E+01           0.85000000E-05
   0.11500000E+01           0.17200000E-04
   0.11600000E+01           0.89000000E-05
   0.11700000E+01           0.24200000E-04
   0.11800000E+01           0.20700000E-04
   0.11900000E+01           0.28200000E-04
   0.12000000E+01           0.24000000E-04
   0.12100000E+01           0.33000000E-04
   0.12200000E+01           0.32400000E-04
   0.12300000E+01           0.40200000E-04
   0.12400000E+01           0.56600000E-04
   0.12500000E+01           0.62300000E-04
   0.12600000E+01           0.74500000E-04
   0.12700000E+01           0.98500000E-04
   0.12800000E+01           0.99200000E-04
   0.12900000E+01           0.11690000E-03
   0.13000000E+01           0.16510000E-03
   0.13100000E+01           0.17320000E-03
   0.13200000E+01           0.22880000E-03
   0.13300000E+01           0.28320000E-03
   0.13400000E+01           0.31190000E-03
   0.13500000E+01           0.35320000E-03
   0.13600000E+01           0.40200000E-03
   0.13700000E+01           0.50020000E-03
   0.13800000E+01           0.56960000E-03
   0.13900000E+01           0.64430000E-03
   0.14000000E+01           0.79190000E-03
   0.14100000E+01           0.92460000E-03
   0.14200000E+01           0.10399000E-02
   0.14300000E+01           0.12928000E-02
   0.14400000E+01           0.15214000E-02
   0.14500000E+01           0.18947000E-02
   0.14600000E+01           0.21470000E-02
   0.14700000E+01           0.25580000E-02
   0.14800000E+01           0.31435000E-02
   0.14900000E+01           0.36662000E-02
   0.15000000E+01           0.43563000E-02
   0.15100000E+01           0.51337000E-02
   0.15200000E+01           0.60410000E-02
   0.15300000E+01           0.70761000E-02
   0.15400000E+01           0.84172000E-02
   0.15500000E+01           0.99508000E-02
   0.15600000E+01           0.11727000E-01
   0.15700000E+01           0.13872100E-01
   0.15800000E+01           0.16531400E-01
   0.15900000E+01           0.19098000E-01
   0.16000000E+01           0.22943800E-01
   0.16100000E+01           0.27079900E-01
   0.16200000E+01           0.32247500E-01
   0.16300000E+01           0.37728100E-01
   0.16400000E+01           0.44817100E-01
   0.16500000E+01           0.52632300E-01
   0.16600000E+01           0.62021700E-01
   0.16700000E+01           0.73242900E-01
   0.16800000E+01           0.86089900E-01
   0.16900000E+01           0.10215560E+00
   0.17000000E+01           0.12059220E+00
   0.17100000E+01           0.14213820E+00
   0.17200000E+01           0.16807760E+00
   0.17300000E+01           0.19833080E+00
   0.17400000E+01           0.23314630E+00
   0.17500000E+01           0.27464640E+00
   0.17600000E+01           0.32475770E+00
   0.17700000E+01           0.38221750E+00
   0.17800000E+01           0.44975500E+00
   0.17900000E+01           0.53004320E+00
   0.18000000E+01           0.62715010E+00
   0.18100000E+01           0.73566110E+00
   0.18200000E+01           0.86821790E+00
   0.18300000E+01           0.10231195E+01
   0.18400000E+01           0.12035976E+01
   0.18500000E+01           0.14171852E+01
   0.18600000E+01           0.16694563E+01
   0.18700000E+01           0.19677531E+01
   0.18800000E+01           0.23143756E+01
   0.18900000E+01           0.27259257E+01
   0.19000000E+01           0.32093232E+01
   0.19100000E+01           0.37722211E+01
   0.19200000E+01           0.44452405E+01
   0.19300000E+01           0.52284392E+01
   0.19400000E+01           0.61485950E+01
   0.19500000E+01           0.72352033E+01
   0.19600000E+01           0.85093912E+01
   0.19700000E+01           0.10008818E+02
   0.19800000E+01           0.11762382E+02
   0.19900000E+01           0.13833418E+02
   0.20000000E+01           0.78042551E+01
 #T=     4.0000
  -0.20000000E+01           0.00000000E+00
  -0.19900000E+01           0.00000000E+00
  -0.19800000E+01           0.00000000E+00
  -0.19700000E+01           0.00000000E+00
  -0.19600000E+01           0.00000000E+00
  -0.19500000E+01           0.00000000E+00
  -0.19400000E+01           0.00000000E+00
  -0.19300000E+01           0.00000000E+00
  -0.19200000E+01           0.00000000E+00
  -0.19100000E+01           0.00000000E+00
  -0.19000000E+01           0.00000000E+00
  -0.18900000E+01           0.00000000E+00
  -0.18800000E+01           0.00000000E+00
  -0.18700000E+01           0.00000000E+00
  -0.18600000E+01           0.00000000E+00
  -0.18500000E+01           0.00000000E+00
  -0.18400000E+01           0.00000000E+00
  -0.18300000E+01           0.00000000E+00
  -0.18200000E+01           0.00000000E+00
  -0.18100000E+01           0.00000000E+00
  -0.18000000E+01           0.00000000E+00
  -0.17900000E+01           0.00000000E+00
  -0.17800000E+01           0.00000000E+00
  -0.17700000E+01           0.00000000E+00
  -0.17600000E+01           0.00000000E+00
  -0.17500000E+01           0.00000000E+00
  -0.17400000E+01           0.00000000E+00
  -0.17300000E+01           0.00000000E+00
  -0.17200000E+01           0.00000000E+00
  -0.17100000E+01           0.00000000E+00
  -0.17000000E+01           0.00000000E+00
  -0.16900000E+01           0.00000000E+00
  -0.16800000E+01           0.00000000E+00
  -0.16700000E+01           0.00000000E+00
  -0.16600000E+01           0.00000000E+00
  -0.16500000E+01           0.00000000E+00
  -0.16400000E+01           0.00000000E+00
  -0.16300000E+01           0.00000000E+00
  -0.16200000E+01           0.00000000E+00
  -0.16100000E+01           0.00000000E+00
  -0.16000000E+01           0.00000000E+00
  -0.15900000E+01           0.00000000E+00
  -0.15800000E+01           0.00000000E+00
  -0.15700000E+01           0.00000000E+00
  -0.15600000E+01           0.00000000E+00
  -0.15500000E+01           0.00000000E+00
  -0.15400000E+01           0.00000000E+00
  -0.15300000E+01           0.00000000E+00
  -0.15200000E+01           0.00000000E+00
  -0.15100000E+01           0.00000000E+00
  -0.15000000E+01           0.00000000E+00
  -0.14900000E+01           0.00000000E+00
  -0.14800000E+01           0.00000000E+00
  -0.14700000E+01           0.00000000E+00
  -0.14600000E+01           0.00000000E+00
  -0.14500000E+01           0.00000000E+00
  -0.14400000E+01           0.00000000E+00
  -0.14300000E+01           0.00000000E+00
  -0.14200000E+01           0.00000000E+00
  -0.14100000E+01           0.00000000E+00
  -0.14000000E+01           0.00000000E+00
  -0.13900000E+01           0.00000000E+00
  -0.13800000E+01           0.00000000E+00
  -0.13700000E+01           0.00000000E+00
  -0.13600000E+01           0.00000000E+00
  -0.13500000E+01           0.00000000E+00
  -0.13400000E+01           0.00000000E+00
  -0.13300000E+01           0.00000000E+00
  -0.13200000E+01           0.00000000E+00
  -0.13100000E+01           0.00000000E+00
  -0.13000000E+01           0.00000000E+00
  -0.12900000E+01           0.00000000E+00
  -0.12800000E+01           0.00000000E+00
  -0.12700000E+01           0.00000000E+00
  -0.12600000E+01           0.00000000E+00
  -0.12500000E+01           0.00000000E+00
  -0.12400000E+01           0.00000000E+00
  -0.12300000E+01           0.00000000E+00
  -0.12200000E+01           0.00000000E+00
  -0.12100000E+01           0.00000000E+00
  -0.12000000E+01           0.00000000E+00
  -0.11900000E+01           0.00000000E+00
  -0.11800000E+01           0.00000000E+00
  -0.11700000E+01           0.00000000E+00
  -0.11600000E+01           0.00000000E+00
  -0.11500000E+01           0.00000000E+00
  -0.11400000E+01           0.00000000E+00
  -0.11300000E+01           0.00000000E+00
  -0.11200000E+01           0.00000000E+00
  -0.11100000E+01           0.00000000E+00
  -0.11000000E+01           0.00000000E+00
  -0.10900000E+01           0.00000000E+00
  -0.10800000E+01           0.00000000E+00
  -0.10700000E+01           0.00000000E+00
  -0.10600000E+01           0.00000000E+00
  -0.10500000E+01           0.00000000E+00
  -0.10400000E+01           0.00000000E+00
  -0.10300000E+01           0.00000000E+00
  -0.10200000E+01           0.00000000E+00
  -0.10100000E+01           0.00000000E+00
  -0.10000000E+01           0.00000000E+00
  -0.99000000E+00           0.00000000E+00
  -0.98000000E+00           0.00000000E+00
  -0.97000000E+00           0.00000000E+00
  -0.96000000E+00           0.00000000E+00
  -0.95000000E+00           0.00000000E+00
  -0.94000000E+00           0.00000000E+00
  -0.93000000E+00           0.00000000E+00
  -0.92000000E+00           0.00000000E+00
  -0.91000000E+00           0.00000000E+00
  -0.90000000E+00           0.00000000E+00
  -0.89000000E+00           0.00000000E+00
  -0.88000000E+00           0.00000000E+00
  -0.87000000E+00           0.00000000E+00
  -0.86000000E+00           0.00000000E+00
  -0.85000000E+00           0.00000000E+00
  -0.84000000E+00           0.00000000E+00
  -0.83000000E+00           0.00000000E+00
  -0.82000000E+00           0.00000000E+00
  -0.81000000E+00           0.00000000E+00
  -0.80000000E+00           0.00000000E+00
  -0.79000000E+00           0.00000000E+00
  -0.78000000E+00           0.00000000E+00
  -0.77000000E+00           0.00000000E+00
  -0.76000000E+00           0.00000000E+00
  -0.75000000E+00           0.00000000E+00
  -0.74000000E+00           0.00000000E+00
  -0.73000000E+00           0.00000000E+00
  -0.72000000E+00           0.00000000E+00
  -0.71000000E+00           0.00000000E+00
  -0.70000000E+00           0.00000000E+00
  -0.69000000E+00           0.00000000E+00
  -0.68000000E+00           0.00000000E+00
  -0.67000000E+00           0.00000000E+00
  -0.66000000E+00           0.00000000E+00
  -0.65000000E+00           0.00000000E+00
  -0.64000000E+00           0.00000000E+00
  -0.63000000E+00           0.00000000E+00
  -0.62000000E+00           0.00000000E+00
  -0.61000000E+00           0.00000000E+00
  -0.60000000E+00           0.00000000E+00
  -0.59000000E+00           0.00000000E+00
  -0.58000000E+00           0.00000000E+00
  -0.57000000E+00           0.00000000E+00
  -0.56000000E+00           0.00000000E+00
  -0.55000000E+00           0.00000000E+00
  -0.54000000E+00           0.00000000E+00
  -0.53000000E+00           0.00000000E+00
  -0.52000000E+00           0.00000000E+00
  -0.51000000E+00           0.00000000E+00
  -0.50000000E+00           0.00000000E+00
  -0.49000000E+00           0.00000000E+00
  -0.48000000E+00           0.00000000E+00
  -0.47000000E+00           0.00000000E+00
  -0.46000000E+00           0.00000000E+00
  -0.45000000E+00           0.00000000E+00
  -0.44000000E+00           0.00000000E+00
  -0.43000000E+00           0.00000000E+00
  -0.42000000E+00           0.00000000E+00
  -0.41000000E+00           0.00000000E+00
  -0.40000000E+00           0.00000000E+00
  -0.39000000E+00           0.00000000E+00
  -0.38000000E+00           0.00000000E+00
  -0.37000000E+00           0.00000000E+00
  -0.36000000E+00           0.00000000E+00
  -0.35000000E+00           0.00000000E+00
  -0.34000000E+00           0.00000000E+00
  -0.33000000E+00           0.00000000E+00
  -0.32000000E+00           0.00000000E+00
  -0.31000000E+00           0.00000000E+00
  -0.30000000E+00           0.00000000E+00
  -0.29000000E+00           0.00000000E+00
  -0.28000000E+00           0.00000000E+00
  -0.27000000E+00           0.00000000E+00
  -0.26000000E+00           0.00000000E+00
  -0.25000000E+00           0.00000000E+00
  -0.24000000E+00           0.00000000E+00
  -0.23000000E+00           0.00000000E+00
  -0.22000000E+00           0.00000000E+00
  -0.21000000E+00           0.00000000E+00
  -0.20000000E+00           0.00000000E+00
  -0.19000000E+00           0.00000000E+00
  -0.18000000E+00           0.00000000E+00
  -0.17000000E+00           0.00000000E+00
  -0.16000000E+00           0.00000000E+00
  -0.15000000E+00           0.00000000E+00
  -0.14000000E+00           0.00000000E+00
  -0.13000000E+00           0.00000000E+00
  -0.12000000E+00           0.00000000E+00
  -0.11000000E+00           0.00000000E+00
  -0.10000000E+00           0.00000000E+00
  -0.90000000E-01           0.00000000E+00
  -0.80000000E-01           0.00000000E+00
  -0.70000000E-01           0.00000000E+00
  -0.60000000E-01           0.00000000E+00
  -0.50000000E-01           0.00000000E+00
  -0.40000000E-01           0.00000000E+00
  -0.30000000E-01           0.00000000E+00
  -0.20000000E-01           0.00000000E+00
  -0.10000000E-01           0.00000000E+00
   0.00000000E+00           0.00000000E+00
   0.10000000E-01           0.00000000E+00
   0.20000000E-01           0.00000000E+00
   0.30000000E-01           0.00000000E+00
   0.40000000E-01           0.00000000E+00
   0.50000000E-01           0.00000000E+00
   0.60000000E-01           0.00000000E+00
   0.70000000E-01           0.00000000E+00
   0.80000000E-01           0.00000000E+00
   0.90000000E-01           0.00000000E+00
   0.10000000E+00           0.00000000E+00
   0.11000000E+00           0.00000000E+00
   0.12000000E+00           0.00000000E+00
   0.13000000E+00           0.00000000E+00
   0.14000000E+00           0.00000000E+00
   0.15000000E+00           0.00000000E+00
   0.16000000E+00           0.00000000E+00
   0.17000000E+00           0.00000000E+00
   0.18000000E+00           0.00000000E+00
   0.19000000E+00           0.00000000E+00
   0.20000000E+00           0.00000000E+00
   0.21000000E+00           0.00000000E+00
   0.22000000E+00           0.00000000E+00
   0.23000000E+00           0.00000000E+00
   0.24000000E+00           0.00000000E+00
   0.25000000E+00           0.00000000E+00
   0.26000000E+00           0.00000000E+00
   0.27000000E+00           0.00000000E+00
   0.28000000E+00           0.00000000E+00
   0.29000000E+00           0.00000000E+00
   0.30000000E+00           0.00000000E+00
   0.31000000E+00           0.00000000E+00
   0.32000000E+00           0.00000000E+00
   0.33000000E+00           0.00000000E+00
   0.34000000E+00           0.00000000E+00
   0.35000000E+00           0.00000000E+00
   0.36000000E+00           0.00000000E+00
   0.37000000E+00           0.00000000E+00
   0.38000000E+00           0.00000000E+00
   0.39000000E+00           0.00000000E+00
   0.40000000E+00           0.00000000E+00
   0.41000000E+00           0.00000000E+00
   0.42000000E+00           0.00000000E+00
   0.43000000E+00           0.00000000E+00
   0.44000000E+00           0.00000000E+00
   0.45000000E+00           0.00000000E+00
   0.46000000E+00           0.00000000E+00
   0.47000000E+00           0.00000000E+00
   0.48000000E+00           0.00000000E+00
   0.49000000E+00           0.00000000E+00
   0.50000000E+00           0.00000000E+00
   0.51000000E+00           0.00000000E+00
   0.52000000E+00           0.00000000E+00
   0.53000000E+00           0.18000000E-05
   0.54000000E+00           0.00000000E+00
   0.55000000E+00           0.00000000E+00
   0.56000000E+00           0.10000000E-06
   0.57000000E+00           0.00000000E+00
   0.58000000E+00           0.80000000E-06
   0.59000000E+00           0.30000000E-06
   0.60000000E+00           0.00000000E+00
   0.61000000E+00           0.30000000E-06
   0.62000000E+00           0.00000000E+00
   0.63000000E+00           0.20000000E-06
   0.64000000E+00           0.70000000E-06
   0.65000000E+00           0.12000000E-05
   0.66000000E+00           0.20000000E-06
   0.67000000E+00           0.00000000E+00
   0.68000000E+00           0.90000000E-06
   0.69000000E+00           0.50000000E-06
   0.70000000E+00           0.14000000E-05
   0.71000000E+00           0.20000000E-06
   0.72000000E+00           0.30000000E-06
   0.73000000E+00           0.47000000E-05
   0.74000000E+00           0.28000000E-05
   0.75000000E+00           0.15000000E-05
   0.76000000E+00           0.30000000E-05
   0.77000000E+00           0.24000000E-05
   0.78000000E+00           0.10000000E-05
   0.79000000E+00           0.48000000E-05
   0.80000000E+00           0.11000000E-05
   0.81000000E+00           0.36000000E-05
   0.82000000E+00           0.24000000E-05
   0.83000000E+00           0.25000000E-05
   0.84000000E+00           0.46000000E-05
   0.85000000E+00           0.11000000E-04
   0.86000000E+00           0.57000000E-05
   0.87000000E+00           0.94000000E-05
   0.88000000E+00           0.19600000E-04
   0.89000000E+00           0.99000000E-05
   0.90000000E+00           0.13900000E-04
   0.91000000E+00           0.18300000E-04
   0.92000000E+00           0.20500000E-04
   0.93000000E+00           0.22500000E-04
   0.94000000E+00           0.22300000E-04
   0.95000000E+00           0.27500000E-04
   0.96000000E+00           0.31400000E-04
   0.97000000E+00           0.24500000E-04
   0.98000000E+00           0.47700000E-04
   0.99000000E+00           0.41400000E-04
   0.10000000E+01           0.52000000E-04
   0.10100000E+01           0.47000000E-04
   0.10200000E+01           0.60600000E-04
   0.10300000E+01           0.78800000E-04
   0.10400000E+01           0.97300000E-04
   0.10500000E+01           0.94300000E-04
   0.10600000E+01           0.93300000E-04
   0.10700000E+01           0.11970000E-03
   0.10800000E+01           0.13570000E-03
   0.10900000E+01           0.17740000E-03
   0.11000000E+01           0.18950000E-03
   0.11100000E+01           0.22790000E-03
   0.11200000E+01           0.24310000E-03
   0.11300000E+01           0.28830000E-03
   0.11400000E+01           0.31190000E-03
   0.11500000E+01           0.35520000E-03
   0.11600000E+01           0.41710000E-03
   0.11700000E+01           0.43840000E-03
   0.11800000E+01           0.52350000E-03
   0.11900000E+01           0.60620000E-03
   0.12000000E+01           0.65970000E-03
   0.12100000E+01           0.79090000E-03
   0.12200000E+01           0.80270000E-03
   0.12300000E+01           0.94950000E-03
   0.12400000E+01           0.11291000E-02
   0.12500000E+01           0.12503000E-02
   0.12600000E+01           0.14098000E-02
   0.12700000E+01           0.16431000E-02
   0.12800000E+01           0.18329000E-02
   0.12900000E+01           0.20398000E-02
   0.13000000E+01           0.23562000E-02
   0.13100000E+01           0.26558000E-02
   0.13200000E+01           0.30667000E-02
   0.13300000E+01           0.34240000E-02
   0.13400000E+01           0.38637000E-02
   0.13500000E+01           0.43220000E-02
   0.13600000E+01           0.50347000E-02
   0.13700000E+01           0.56156000E-02
   0.13800000E+01           0.65026000E-02
   0.13900000E+01           0.73312000E-02
   0.14000000E+01           0.81703000E-02
   0.14100000E+01           0.92006000E-02
   0.14200000E+01           0.10454600E-01
   0.14300000E+01           0.11865800E-01
   0.14400000E+01           0.13316100E-01
   0.14500000E+01           0.14925500E-01
   0.14600000E+01           0.17286200E-01
   0.14700000E+01           0.19167400E-01
   0.14800000E+01           0.21899900E-01
   0.14900000E+01           0.24914700E-01
   0.15000000E+01           0.27992800E-01
   0.15100000E+01           0.31664400E-01
   0.15200000E+01           0.35991900E-01
   0.15300000E+01           0.40764300E-01
   0.15400000E+01           0.46009100E-01
   0.15500000E+01           0.51663100E-01
   0.15600000E+01           0.58533000E-01
   0.15700000E+01           0.66397800E-01
   0.15800000E+01           0.74371100E-01
   0.15900000E+01           0.85049300E-01
   0.16000000E+01           0.95854800E-01
   0.16100000E+01           0.10797620E+00
   0.16200000E+01           0.12234220E+00
   0.16300000E+01           0.13811390E+00
   0.16400000E+01           0.15616500E+00
   0.16500000E+01           0.17653710E+00
   0.16600000E+01           0.19926180E+00
   0.16700000E+01           0.22461170E+00
   0.16800000E+01           0.25499220E+00
   0.16900000E+01           0.28698670E+00
   0.17000000E+01           0.32396690E+00
   0.17100000E+01           0.36636250E+00
   0.17200000E+01           0.41338570E+00
   0.17300000E+01           0.46635330E+00
   0.17400000E+01           0.52714150E+00
   0.17500000E+01           0.59515530E+00
   0.17600000E+01           0.67100650E+00
   0.17700000E+01           0.75689730E+00
   0.17800000E+01           0.85319410E+00
   0.17900000E+01           0.96252970E+00
   0.18000000E+01           0.10886922E+01
   0.18100000E+01           0.12295959E+01
   0.18200000E+01           0.13849607E+01
   0.18300000E+01           0.15629840E+01
   0.18400000E+01           0.17626256E+01
   0.18500000E+01           0.19871982E+01
   0.18600000E+01           0.22433634E+01
   0.18700000E+01           0.25244246E+01
   0.18800000E+01           0.28533175E+01
   0.18900000E+01           0.32161788E+01
   0.19000000E+01           0.36257374E+01
   0.19100000E+01           0.40907754E+01
   0.19200000E+01           0.46100250E+01
   0.19300000E+01           0.51960009E+01
   0.19400000E+01           0.58575322E+01
   0.19500000E+01           0.66010554E+01
   0.19600000E+01           0.74404472E+01
   0.19700000E+01           0.83797747E+01
   0.19800000E+01           0.94519807E+01
   0.19900000E+01           0.10642871E+02
   0.20000000E+01           0.58203802E+01
 #T=     5.0000
  -0.20000000E+01           0.00000000E+00
  -0.19900000E+01           0.00000000E+00
  -0.19800000E+01           0.00000000E+00
  -0.19700000E+01           0.00000000E+00
  -0.19600000E+01           0.00000000E+00
  -0.19500000E+01           0.00000000E+00
  -0.19400000E+01           0.00000000E+00
  -0.19300000E+01           0.00000000E+00
  -0.19200000E+01           0.00000000E+00
  -0.19100000E+01           0.00000000E+00
  -0.19000000E+01           0.00000000E+00
  -0.18900000E+01           0.00000000E+00
  -0.18800000E+01           0.00000000E+00
  -0.18700000E+01           0.00000000E+00
  -0.18600000E+01           0.00000000E+00
  -0.18500000E+01           0.00000000E+00
  -0.18400000E+01           0.00000000E+00
  -0.18300000E+01           0.00000000E+00
  -0.18200000E+01           0.00000000E+00
  -0.18100000E+01           0.00000000E+00
  -0.18000000E+01           0.00000000E+00
  -0.17900000E+01           0.00000000E+00
  -0.17800000E+01           0.00000000E+00
  -0.17700000E+01           0.00000000E+00
  -0.17600000E+01           0.00000000E+00
  -0.17500000E+01           0.00000000E+00
  -0.17400000E+01           0.00000000E+00
  -0.17300000E+01           0.00000000E+00
  -0.17200000E+01           0.00000000E+00
  -0.17100000E+01           0.00000000E+00
  -0.17000000E+01           0.00000000E+00
  -0.16900000E+01           0.00000000E+00
  -0.16800000E+01           0.00000000E+00
  -0.16700000E+01           0.00000000E+00
  -0.16600000E+01           0.00000000E+00
  -0.16500000E+01           0.00000000E+00
  -0.16400000E+01           0.00000000E+00
  -0.16300000E+01           0.00000000E+00
  -0.16200000E+01           0.00000000E+00
  -0.16100000E+01           0.00000000E+00
  -0.16000000E+01           0.00000000E+00
  -0.15900000E+01           0.00000000E+00
  -0.15800000E+01           0.00000000E+00
  -0.15700000E+01           0.00000000E+00
  -0.15600000E+01           0.00000000E+00
  -0.15500000E+01           0.00000000E+00
  -0.15400000E+01           0.00000000E+00
  -0.15300000E+01           0.00000000E+00
  -0.15200000E+01           0.00000000E+00
  -0.15100000E+01           0.00000000E+00
  -0.15000000E+01           0.00000000E+00
  -0.14900000E+01           0.00000000E+00
  -0.14800000E+01           0.00000000E+00
  -0.14700000E+01           0.00000000E+00
  -0.14600000E+01           0.00000000E+00
  -0.14500000E+01           0.00000000E+00
  -0.14400000E+01           0.00000000E+00
  -0.14300000E+01           0.00000000E+00
  -0.14200000E+01           0.00000000E+00
  -0.14100000E+01           0.00000000E+00
  -0.14000000E+01           0.00000000E+00
  -0.13900000E+01           0.00000000E+00
  -0.13800000E+01           0.00000000E+00
  -0.13700000E+01           0.00000000E+00
  -0.13600000E+01           0.00000000E+00
  -0.13500000E+01           0.00000000E+00
  -0.13400000E+01           0.00000000E+00
  -0.13300000E+01           0.00000000E+00
  -0.13200000E+01           0.00000000E+00
  -0.13100000E+01           0.00000000E+00
  -0.13000000E+01           0.00000000E+00
  -0.12900000E+01           0.00000000E+00
  -0.12800000E+01           0.00000000E+00
  -0.12700000E+01           0.00000000E+00
  -0.12600000E+01           0.00000000E+00
  -0.12500000E+01           0.00000000E+00
  -0.12400000E+01           0.00000000E+00
  -0.12300000E+01           0.00000000E+00
  -0.12200000E+01           0.00000000E+00
  -0.12100000E+01           0.00000000E+00
  -0.12000000E+01           0.00000000E+00
  -0.11900000E+01           0.00000000E+00
  -0.11800000E+01           0.00000000E+00
  -0.11700000E+01           0.00000000E+00
  -0.11600000E+01           0.00000000E+00
  -0.11500000E+01           0.00000000E+00
  -0.11400000E+01           0.00000000E+00
  -0.11300000E+01           0.00000000E+00
  -0.11200000E+01           0.00000000E+00
  -0.11100000E+01           0.00000000E+00
  -0.11000000E+01           0.00000000E+00
  -0.10900000E+01           0.00000000E+00
  -0.10800000E+01           0.00000000E+00
  -0.10700000E+01           0.00000000E+00
  -0.10600000E+01           0.00000000E+00
  -0.10500000E+01           0.00000000E+00
  -0.10400000E+01           0.00000000E+00
  -0.10300000E+01           0.00000000E+00
  -0.10200000E+01           0.00000000E+00
  -0.10100000E+01           0.00000000E+00
  -0.10000000E+01           0.00000000E+00
  -0.99000000E+00           0.00000000E+00
  -0.98000000E+00           0.00000000E+00
  -0.97000000E+00           0.00000000E+00
  -0.96000000E+00           0.00000000E+00
  -0.95000000E+00           0.00000000E+00
  -0.94000000E+00           0.00000000E+00
  -0.93000000E+00           0.00000000E+00
  -0.92000000E+00           0.00000000E+00
  -0.91000000E+00           0.00000000E+00
  -0.90000000E+00           0.00000000E+00
  -0.89000000E+00           0.00000000E+00
  -0.88000000E+00           0.00000000E+00
  -0.87000000E+00           0.00000000E+00
  -0.86000000E+00           0.00000000E+00
  -0.85000000E+00           0.00000000E+00
  -0.84000000E+00           0.00000000E+00
  -0.83000000E+00           0.00000000E+00
  -0.82000000E+00           0.00000000E+00
  -0.81000000E+00           0.00000000E+00
  -0.80000000E+00           0.00000000E+00
  -0.79000000E+00           0.00000000E+00
  -0.78000000E+00           0.00000000E+00
  -0.77000000E+00           0.00000000E+00
  -0.76000000E+00           0.00000000E+00
  -0.75000000E+00           0.00000000E+00
  -0.74000000E+00           0.00000000E+00
  -0.73000000E+00           0.00000000E+00
  -0.72000000E+00           0.00000000E+00
  -0.71000000E+00           0.00000000E+00
  -0.70000000E+00           0.00000000E+00
  -0.69000000E+00           0.00000000E+00
  -0.68000000E+00           0.00000000E+00
  -0.67000000E+00           0.00000000E+00
  -0.66000000E+00           0.00000000E+00
  -0.65000000E+00           0.00000000E+00
  -0.64000000E+00           0.00000000E+00
  -0.63000000E+00           0.00000000E+00
  -0.62000000E+00           0.00000000E+00
  -0.61000000E+00           0.00000000E+00
  -0.60000000E+00           0.00000000E+00
  -0.59000000E+00           0.00000000E+00
  -0.58000000E+00           0.00000000E+00
  -0.57000000E+00           0.00000000E+00
  -0.56000000E+00           0.00000000E+00
  -0.55000000E+00           0.00000000E+00
  -0.54000000E+00           0.00000000E+00
  -0.53000000E+00           0.00000000E+00
  -0.52000000E+00           0.00000000E+00
  -0.51000000E+00           0.00000000E+00
  -0.50000000E+00           0.00000000E+00
  -0.49000000E+00           0.00000000E+00
  -0.48000000E+00           0.00000000E+00
  -0.47000000E+00           0.00000000E+00
  -0.46000000E+00           0.00000000E+00
  -0.45000000E+00           0.00000000E+00
  -0.44000000E+00           0.00000000E+00
  -0.43000000E+00           0.00000000E+00
  -0.42000000E+00           0.00000000E+00
  -0.41000000E+00           0.00000000E+00
  -0.40000000E+00           0.00000000E+00
  -0.39000000E+00           0.00000000E+00
  -0.38000000E+00           0.00000000E+00
  -0.37000000E+00           0.00000000E+00
  -0.36000000E+00           0.00000000E+00
  -0.35000000E+00           0.00000000E+00
  -0.34000000E+00           0.00000000E+00
  -0.33000000E+00           0.00000000E+00
  -0.32000000E+00           0.00000000E+00
  -0.31000000E+00           0.00000000E+00
  -0.30000000E+00           0.00000000E+00
  -0.29000000E+00           0.00000000E+00
  -0.28000000E+00           0.00000000E+00
  -0.27000000E+00           0.00000000E+00
  -0.26000000E+00           0.00000000E+00
  -0.25000000E+00           0.00000000E+00
  -0.24000000E+00           0.00000000E+00
  -0.23000000E+00           0.00000000E+00
  -0.22000000E+00           0.00000000E+00
  -0.21000000E+00           0.00000000E+00
  -0.20000000E+00           0.00000000E+00
  -0.19000000E+00           0.00000000E+00
  -0.18000000E+00           0.00000000E+00
  -0.17000000E+00           0.00000000E+00
  -0.16000000E+00           0.00000000E+00
  -0.15000000E+00           0.00000000E+00
  -0.14000000E+00           0.00000000E+00
  -0.13000000E+00           0.00000000E+00
  -0.12000000E+00           0.00000000E+00
  -0.11000000E+00           0.00000000E+00
  -0.10000000E+00           0.00000000E+00
  -0.90000000E-01           0.00000000E+00
  -0.80000000E-01           0.00000000E+00
  -0.70000000E-01           0.00000000E+00
  -0.60000000E-01           0.00000000E+00
  -0.50000000E-01           0.00000000E+00
  -0.40000000E-01           0.00000000E+00
  -0.30000000E-01           0.00000000E+00
  -0.20000000E-01           0.00000000E+00
  -0.10000000E-01           0.00000000E+00
   0.00000000E+00           0.00000000E+00
   0.10000000E-01           0.00000000E+00
   0.20000000E-01           0.00000000E+00
   0.30000000E-01           0.00000000E+00
   0.40000000E-01           0.00000000E+00
   0.50000000E-01           0.00000000E+00
   0.60000000E-01           0.00000000E+00
   0.70000000E-01           0.00000000E+00
   0.80000000E-01           0.00000000E+00
   0.90000000E-01           0.00000000E+00
   0.10000000E+00           0.00000000E+00
   0.11000000E+00           0.10000000E-05
   0.12000000E+00           0.00000000E+00
   0.13000000E+00           0.00000000E+00
   0.14000000E+00           0.50000000E-06
   0.15000000E+00           0.20000000E-06
   0.16000000E+00           0.20000000E-06
   0.17000000E+00           0.00000000E+00
   0.18000000E+00           0.00000000E+00
   0.19000000E+00           0.00000000E+00
   0.20000000E+00           0.00000000E+00
   0.21000000E+00           0.00000000E+00
   0.22000000E+00           0.00000000E+00
   0.23000000E+00           0.70000000E-06
   0.24000000E+00           0.30000000E-06
   0.25000000E+00           0.12000000E-05
   0.26000000E+00           0.15000000E-05
   0.27000000E+00           0.30000000E-06
   0.28000000E+00           0.00000000E+00
   0.29000000E+00           0.30000000E-06
   0.30000000E+00           0.10000000E-06
   0.31000000E+00           0.22000000E-05
   0.32000000E+00           0.30000000E-06
   0.33000000E+00           0.20000000E-06
   0.34000000E+00           0.26000000E-05
   0.35000000E+00           0.40000000E-06
   0.36000000E+00           0.10000000E-06
   0.37000000E+00           0.30000000E-06
   0.38000000E+00           0.40000000E-06
   0.39000000E+00           0.20000000E-06
   0.40000000E+00           0.00000000E+00
   0.41000000E+00           0.12000000E-05
   0.42000000E+00           0.13000000E-05
   0.43000000E+00           0.80000000E-06
   0.44000000E+00           0.70000000E-06
   0.45000000E+00           0.12000000E-05
   0.46000000E+00           0.20000000E-06
   0.47000000E+00           0.90000000E-06
   0.48000000E+00           0.31000000E-05
   0.49000000E+00           0.10000000E-05
[...]
   0.13800000E+01           0.68903020E+00
   0.13900000E+01           0.69429990E+00
   0.14000000E+01           0.69944470E+00
   0.14100000E+01           0.70497080E+00
   0.14200000E+01           0.71026380E+00
   0.14300000E+01           0.71463660E+00
   0.14400000E+01           0.72061530E+00
   0.14500000E+01           0.72571260E+00
   0.14600000E+01           0.73044440E+00
   0.14700000E+01           0.73571630E+00
   0.14800000E+01           0.74130170E+00
   0.14900000E+01           0.74619000E+00
   0.15000000E+01           0.75175450E+00
   0.15100000E+01           0.75674520E+00
   0.15200000E+01           0.76232630E+00
   0.15300000E+01           0.76737940E+00
   0.15400000E+01           0.77285460E+00
   0.15500000E+01           0.77761590E+00
   0.15600000E+01           0.78321900E+00
   0.15700000E+01           0.78834710E+00
   0.15800000E+01           0.79377950E+00
   0.15900000E+01           0.79911770E+00
   0.16000000E+01           0.80468520E+00
   0.16100000E+01           0.80965280E+00
   0.16200000E+01           0.81489500E+00
   0.16300000E+01           0.81937960E+00
   0.16400000E+01           0.82555200E+00
   0.16500000E+01           0.83078410E+00
   0.16600000E+01           0.83633530E+00
   0.16700000E+01           0.84062720E+00
   0.16800000E+01           0.84638330E+00
   0.16900000E+01           0.85271310E+00
   0.17000000E+01           0.85729550E+00
   0.17100000E+01           0.86261980E+00
   0.17200000E+01           0.86771180E+00
   0.17300000E+01           0.87275420E+00
   0.17400000E+01           0.87873750E+00
   0.17500000E+01           0.88337390E+00
   0.17600000E+01           0.88926040E+00
   0.17700000E+01           0.89417960E+00
   0.17800000E+01           0.89941370E+00
   0.17900000E+01           0.90560660E+00
   0.18000000E+01           0.91126470E+00
   0.18100000E+01           0.91632210E+00
   0.18200000E+01           0.92086670E+00
   0.18300000E+01           0.92709340E+00
   0.18400000E+01           0.93196280E+00
   0.18500000E+01           0.93761940E+00
   0.18600000E+01           0.94408260E+00
   0.18700000E+01           0.94883820E+00
   0.18800000E+01           0.95423380E+00
   0.18900000E+01           0.95951020E+00
   0.19000000E+01           0.96499120E+00
   0.19100000E+01           0.97080170E+00
   0.19200000E+01           0.97574000E+00
   0.19300000E+01           0.98139000E+00
   0.19400000E+01           0.98669010E+00
   0.19500000E+01           0.99242600E+00
   0.19600000E+01           0.99714740E+00
   0.19700000E+01           0.10028328E+01
   0.19800000E+01           0.10083232E+01
   0.19900000E+01           0.10139141E+01
   0.20000000E+01           0.50904370E+00
 #T=   100.0000
  -0.20000000E+01           0.00000000E+00
  -0.19900000E+01           0.00000000E+00
  -0.19800000E+01           0.00000000E+00
  -0.19700000E+01           0.00000000E+00
  -0.19600000E+01           0.00000000E+00
  -0.19500000E+01           0.00000000E+00
  -0.19400000E+01           0.00000000E+00
  -0.19300000E+01           0.00000000E+00
  -0.19200000E+01           0.00000000E+00
  -0.19100000E+01           0.00000000E+00
  -0.19000000E+01           0.00000000E+00
  -0.18900000E+01           0.00000000E+00
  -0.18800000E+01           0.00000000E+00
  -0.18700000E+01           0.00000000E+00
  -0.18600000E+01           0.00000000E+00
  -0.18500000E+01           0.00000000E+00
  -0.18400000E+01           0.00000000E+00
  -0.18300000E+01           0.00000000E+00
  -0.18200000E+01           0.00000000E+00
  -0.18100000E+01           0.00000000E+00
  -0.18000000E+01           0.00000000E+00
  -0.17900000E+01           0.00000000E+00
  -0.17800000E+01           0.00000000E+00
  -0.17700000E+01           0.00000000E+00
  -0.17600000E+01           0.00000000E+00
  -0.17500000E+01           0.00000000E+00
  -0.17400000E+01           0.00000000E+00
  -0.17300000E+01           0.00000000E+00
  -0.17200000E+01           0.00000000E+00
  -0.17100000E+01           0.00000000E+00
  -0.17000000E+01           0.00000000E+00
  -0.16900000E+01           0.00000000E+00
  -0.16800000E+01           0.00000000E+00
  -0.16700000E+01           0.00000000E+00
  -0.16600000E+01           0.00000000E+00
  -0.16500000E+01           0.00000000E+00
  -0.16400000E+01           0.00000000E+00
  -0.16300000E+01           0.00000000E+00
  -0.16200000E+01           0.00000000E+00
  -0.16100000E+01           0.00000000E+00
  -0.16000000E+01           0.00000000E+00
  -0.15900000E+01           0.00000000E+00
  -0.15800000E+01           0.00000000E+00
  -0.15700000E+01           0.00000000E+00
  -0.15600000E+01           0.00000000E+00
  -0.15500000E+01           0.00000000E+00
  -0.15400000E+01           0.00000000E+00
  -0.15300000E+01           0.00000000E+00
  -0.15200000E+01           0.00000000E+00
  -0.15100000E+01           0.00000000E+00
  -0.15000000E+01           0.00000000E+00
  -0.14900000E+01           0.00000000E+00
  -0.14800000E+01           0.00000000E+00
  -0.14700000E+01           0.00000000E+00
  -0.14600000E+01           0.00000000E+00
  -0.14500000E+01           0.00000000E+00
  -0.14400000E+01           0.00000000E+00
  -0.14300000E+01           0.00000000E+00
  -0.14200000E+01           0.00000000E+00
  -0.14100000E+01           0.00000000E+00
  -0.14000000E+01           0.00000000E+00
  -0.13900000E+01           0.00000000E+00
  -0.13800000E+01           0.00000000E+00
  -0.13700000E+01           0.00000000E+00
  -0.13600000E+01           0.00000000E+00
  -0.13500000E+01           0.00000000E+00
  -0.13400000E+01           0.00000000E+00
  -0.13300000E+01           0.00000000E+00
  -0.13200000E+01           0.00000000E+00
  -0.13100000E+01           0.00000000E+00
  -0.13000000E+01           0.00000000E+00
  -0.12900000E+01           0.00000000E+00
  -0.12800000E+01           0.00000000E+00
  -0.12700000E+01           0.00000000E+00
  -0.12600000E+01           0.00000000E+00
  -0.12500000E+01           0.00000000E+00
  -0.12400000E+01           0.00000000E+00
  -0.12300000E+01           0.00000000E+00
  -0.12200000E+01           0.00000000E+00
  -0.12100000E+01           0.00000000E+00
  -0.12000000E+01           0.00000000E+00
  -0.11900000E+01           0.00000000E+00
  -0.11800000E+01           0.00000000E+00
  -0.11700000E+01           0.00000000E+00
  -0.11600000E+01           0.00000000E+00
  -0.11500000E+01           0.00000000E+00
  -0.11400000E+01           0.00000000E+00
  -0.11300000E+01           0.00000000E+00
  -0.11200000E+01           0.00000000E+00
  -0.11100000E+01           0.00000000E+00
  -0.11000000E+01           0.00000000E+00
  -0.10900000E+01           0.00000000E+00
  -0.10800000E+01           0.00000000E+00
  -0.10700000E+01           0.00000000E+00
  -0.10600000E+01           0.00000000E+00
  -0.10500000E+01           0.00000000E+00
  -0.10400000E+01           0.00000000E+00
  -0.10300000E+01           0.00000000E+00
  -0.10200000E+01           0.00000000E+00
  -0.10100000E+01           0.00000000E+00
  -0.10000000E+01           0.00000000E+00
  -0.99000000E+00           0.00000000E+00
  -0.98000000E+00           0.00000000E+00
  -0.97000000E+00           0.00000000E+00
  -0.96000000E+00           0.00000000E+00
  -0.95000000E+00           0.00000000E+00
  -0.94000000E+00           0.00000000E+00
  -0.93000000E+00           0.00000000E+00
  -0.92000000E+00           0.00000000E+00
  -0.91000000E+00           0.00000000E+00
  -0.90000000E+00           0.00000000E+00
  -0.89000000E+00           0.00000000E+00
  -0.88000000E+00           0.00000000E+00
  -0.87000000E+00           0.00000000E+00
  -0.86000000E+00           0.00000000E+00
  -0.85000000E+00           0.00000000E+00
  -0.84000000E+00           0.00000000E+00
  -0.83000000E+00           0.00000000E+00
  -0.82000000E+00           0.00000000E+00
  -0.81000000E+00           0.00000000E+00
  -0.80000000E+00           0.00000000E+00
  -0.79000000E+00           0.00000000E+00
  -0.78000000E+00           0.00000000E+00
  -0.77000000E+00           0.00000000E+00
  -0.76000000E+00           0.00000000E+00
  -0.75000000E+00           0.00000000E+00
  -0.74000000E+00           0.00000000E+00
  -0.73000000E+00           0.00000000E+00
  -0.72000000E+00           0.00000000E+00
  -0.71000000E+00           0.00000000E+00
  -0.70000000E+00           0.00000000E+00
  -0.69000000E+00           0.00000000E+00
  -0.68000000E+00           0.00000000E+00
  -0.67000000E+00           0.00000000E+00
  -0.66000000E+00           0.00000000E+00
  -0.65000000E+00           0.00000000E+00
  -0.64000000E+00           0.00000000E+00
  -0.63000000E+00           0.00000000E+00
  -0.62000000E+00           0.00000000E+00
  -0.61000000E+00           0.00000000E+00
  -0.60000000E+00           0.00000000E+00
  -0.59000000E+00           0.00000000E+00
  -0.58000000E+00           0.00000000E+00
  -0.57000000E+00           0.00000000E+00
  -0.56000000E+00           0.00000000E+00
  -0.55000000E+00           0.00000000E+00
  -0.54000000E+00           0.00000000E+00
  -0.53000000E+00           0.00000000E+00
  -0.52000000E+00           0.00000000E+00
  -0.51000000E+00           0.00000000E+00
  -0.50000000E+00           0.00000000E+00
  -0.49000000E+00           0.00000000E+00
  -0.48000000E+00           0.00000000E+00
  -0.47000000E+00           0.00000000E+00
  -0.46000000E+00           0.00000000E+00
  -0.45000000E+00           0.00000000E+00
  -0.44000000E+00           0.00000000E+00
  -0.43000000E+00           0.00000000E+00
  -0.42000000E+00           0.00000000E+00
  -0.41000000E+00           0.00000000E+00
  -0.40000000E+00           0.00000000E+00
  -0.39000000E+00           0.00000000E+00
  -0.38000000E+00           0.00000000E+00
  -0.37000000E+00           0.00000000E+00
  -0.36000000E+00           0.00000000E+00
  -0.35000000E+00           0.00000000E+00
  -0.34000000E+00           0.00000000E+00
  -0.33000000E+00           0.00000000E+00
  -0.32000000E+00           0.00000000E+00
  -0.31000000E+00           0.00000000E+00
  -0.30000000E+00           0.00000000E+00
  -0.29000000E+00           0.00000000E+00
  -0.28000000E+00           0.00000000E+00
  -0.27000000E+00           0.00000000E+00
  -0.26000000E+00           0.00000000E+00
  -0.25000000E+00           0.00000000E+00
  -0.24000000E+00           0.00000000E+00
  -0.23000000E+00           0.00000000E+00
  -0.22000000E+00           0.00000000E+00
  -0.21000000E+00           0.00000000E+00
  -0.20000000E+00           0.00000000E+00
  -0.19000000E+00           0.00000000E+00
  -0.18000000E+00           0.00000000E+00
  -0.17000000E+00           0.00000000E+00
  -0.16000000E+00           0.00000000E+00
  -0.15000000E+00           0.00000000E+00
  -0.14000000E+00           0.00000000E+00
  -0.13000000E+00           0.00000000E+00
  -0.12000000E+00           0.00000000E+00
  -0.11000000E+00           0.00000000E+00
  -0.10000000E+00           0.00000000E+00
  -0.90000000E-01           0.00000000E+00
  -0.80000000E-01           0.00000000E+00
  -0.70000000E-01           0.00000000E+00
  -0.60000000E-01           0.00000000E+00
  -0.50000000E-01           0.00000000E+00
  -0.40000000E-01           0.00000000E+00
  -0.30000000E-01           0.00000000E+00
  -0.20000000E-01           0.00000000E+00
  -0.10000000E-01           0.00000000E+00
   0.00000000E+00           0.60740000E-03
   0.10000000E-01           0.48869000E-02
   0.20000000E-01           0.98347000E-02
   0.30000000E-01           0.14776600E-01
   0.40000000E-01           0.19622000E-01
   0.50000000E-01           0.24526600E-01
   0.60000000E-01           0.29424300E-01
   0.70000000E-01           0.34364000E-01
   0.80000000E-01           0.39186900E-01
   0.90000000E-01           0.44080900E-01
   0.10000000E+00           0.49081700E-01
   0.11000000E+00           0.53989700E-01
   0.12000000E+00           0.58873600E-01
   0.13000000E+00           0.63829200E-01
   0.14000000E+00           0.68695800E-01
   0.15000000E+00           0.73641500E-01
   0.16000000E+00           0.78455400E-01
   0.17000000E+00           0.83468900E-01
   0.18000000E+00           0.88517600E-01
   0.19000000E+00           0.93446700E-01
   0.20000000E+00           0.98097200E-01
   0.21000000E+00           0.10307040E+00
   0.22000000E+00           0.10804970E+00
   0.23000000E+00           0.11290670E+00
   0.24000000E+00           0.11779770E+00
   0.25000000E+00           0.12287540E+00
   0.26000000E+00           0.12761350E+00
   0.27000000E+00           0.13258080E+00
   0.28000000E+00           0.13759850E+00
   0.29000000E+00           0.14253660E+00
   0.30000000E+00           0.14718980E+00
   0.31000000E+00           0.15233130E+00
   0.32000000E+00           0.15715200E+00
   0.33000000E+00           0.16198310E+00
   0.34000000E+00           0.16699430E+00
   0.35000000E+00           0.17178950E+00
   0.36000000E+00           0.17690790E+00
   0.37000000E+00           0.18184670E+00
   0.38000000E+00           0.18674900E+00
   0.39000000E+00           0.19169680E+00
   0.40000000E+00           0.19654290E+00
   0.41000000E+00           0.20155170E+00
   0.42000000E+00           0.20650380E+00
   0.43000000E+00           0.21128120E+00
   0.44000000E+00           0.21630890E+00
   0.45000000E+00           0.22114900E+00
   0.46000000E+00           0.22625250E+00
   0.47000000E+00           0.23117520E+00
   0.48000000E+00           0.23599350E+00
   0.49000000E+00           0.24095240E+00
   0.50000000E+00           0.24594120E+00
   0.51000000E+00           0.25075360E+00
   0.52000000E+00           0.25589150E+00
   0.53000000E+00           0.26029160E+00
   0.54000000E+00           0.26561640E+00
   0.55000000E+00           0.27048620E+00
   0.56000000E+00           0.27547490E+00
   0.57000000E+00           0.28061260E+00
   0.58000000E+00           0.28540560E+00
   0.59000000E+00           0.29058510E+00
   0.60000000E+00           0.29534850E+00
   0.61000000E+00           0.30016500E+00
   0.62000000E+00           0.30525930E+00
   0.63000000E+00           0.31049710E+00
   0.64000000E+00           0.31542050E+00
   0.65000000E+00           0.32030600E+00
   0.66000000E+00           0.32491790E+00
   0.67000000E+00           0.32984240E+00
   0.68000000E+00           0.33511240E+00
   0.69000000E+00           0.33995680E+00
   0.70000000E+00           0.34495900E+00
   0.71000000E+00           0.35002650E+00
   0.72000000E+00           0.35490380E+00
   0.73000000E+00           0.35996630E+00
   0.74000000E+00           0.36524970E+00
   0.75000000E+00           0.36991210E+00
   0.76000000E+00           0.37436270E+00
   0.77000000E+00           0.37991900E+00
   0.78000000E+00           0.38467610E+00
   0.79000000E+00           0.39015090E+00
   0.80000000E+00           0.39473260E+00
   0.81000000E+00           0.39931200E+00
   0.82000000E+00           0.40468030E+00
   0.83000000E+00           0.41000790E+00
   0.84000000E+00           0.41481840E+00
   0.85000000E+00           0.41978200E+00
   0.86000000E+00           0.42477430E+00
   0.87000000E+00           0.42996750E+00
   0.88000000E+00           0.43514910E+00
   0.89000000E+00           0.43975280E+00
   0.90000000E+00           0.44454970E+00
   0.91000000E+00           0.44979280E+00
   0.92000000E+00           0.45511720E+00
   0.93000000E+00           0.45967140E+00
   0.94000000E+00           0.46529080E+00
   0.95000000E+00           0.46966430E+00
   0.96000000E+00           0.47482400E+00
   0.97000000E+00           0.48024090E+00
   0.98000000E+00           0.48464740E+00
   0.99000000E+00           0.49020820E+00
   0.10000000E+01           0.49540780E+00
   0.10100000E+01           0.50052260E+00
   0.10200000E+01           0.50527990E+00
   0.10300000E+01           0.51055280E+00
   0.10400000E+01           0.51551380E+00
   0.10500000E+01           0.52066130E+00
   0.10600000E+01           0.52588790E+00
   0.10700000E+01           0.53047210E+00
   0.10800000E+01           0.53559320E+00
   0.10900000E+01           0.54097800E+00
   0.11000000E+01           0.54626550E+00
   0.11100000E+01           0.55135400E+00
   0.11200000E+01           0.55620330E+00
   0.11300000E+01           0.56143780E+00
   0.11400000E+01           0.56620130E+00
   0.11500000E+01           0.57087450E+00
   0.11600000E+01           0.57648990E+00
   0.11700000E+01           0.58157970E+00
   0.11800000E+01           0.58633520E+00
   0.11900000E+01           0.59154400E+00
   0.12000000E+01           0.59733590E+00
   0.12100000E+01           0.60197930E+00
   0.12200000E+01           0.60714650E+00
   0.12300000E+01           0.61189750E+00
   0.12400000E+01           0.61707230E+00
   0.12500000E+01           0.62222830E+00
   0.12600000E+01           0.62770530E+00
   0.12700000E+01           0.63259400E+00
   0.12800000E+01           0.63772950E+00
   0.12900000E+01           0.64305620E+00
   0.13000000E+01           0.64744460E+00
   0.13100000E+01           0.65315600E+00
   0.13200000E+01           0.65881130E+00
   0.13300000E+01           0.66377800E+00
   0.13400000E+01           0.66856640E+00
   0.13500000E+01           0.67321950E+00
   0.13600000E+01           0.67881630E+00
   0.13700000E+01           0.68385160E+00
   0.13800000E+01           0.68947380E+00
   0.13900000E+01           0.69465600E+00
   0.14000000E+01           0.69946940E+00
   0.14100000E+01           0.70471410E+00
   0.14200000E+01           0.70997490E+00
   0.14300000E+01           0.71469790E+00
   0.14400000E+01           0.72038020E+00
   0.14500000E+01           0.72572300E+00
   0.14600000E+01           0.73057190E+00
   0.14700000E+01           0.73585910E+00
   0.14800000E+01           0.74095080E+00
   0.14900000E+01           0.74638760E+00
   0.15000000E+01           0.75160880E+00
   0.15100000E+01           0.75681100E+00
   0.15200000E+01           0.76224550E+00
   0.15300000E+01           0.76756040E+00
   0.15400000E+01           0.77301650E+00
   0.15500000E+01           0.77762370E+00
   0.15600000E+01           0.78365820E+00
   0.15700000E+01           0.78846630E+00
   0.15800000E+01           0.79347450E+00
   0.15900000E+01           0.79883050E+00
   0.16000000E+01           0.80400790E+00
   0.16100000E+01           0.80928110E+00
   0.16200000E+01           0.81504530E+00
   0.16300000E+01           0.82007840E+00
   0.16400000E+01           0.82537880E+00
   0.16500000E+01           0.83098880E+00
   0.16600000E+01           0.83622410E+00
   0.16700000E+01           0.84155400E+00
   0.16800000E+01           0.84709740E+00
   0.16900000E+01           0.85179570E+00
   0.17000000E+01           0.85707280E+00
   0.17100000E+01           0.86220770E+00
   0.17200000E+01           0.86773450E+00
   0.17300000E+01           0.87340560E+00
   0.17400000E+01           0.87872380E+00
   0.17500000E+01           0.88421120E+00
   0.17600000E+01           0.88881690E+00
   0.17700000E+01           0.89418360E+00
   0.17800000E+01           0.89969420E+00
   0.17900000E+01           0.90484300E+00
   0.18000000E+01           0.91083390E+00
   0.18100000E+01           0.91555560E+00
   0.18200000E+01           0.92122040E+00
   0.18300000E+01           0.92624140E+00
   0.18400000E+01           0.93221250E+00
   0.18500000E+01           0.93725220E+00
   0.18600000E+01           0.94296980E+00
   0.18700000E+01           0.94793370E+00
   0.18800000E+01           0.95410490E+00
   0.18900000E+01           0.95923000E+00
   0.19000000E+01           0.96490960E+00
   0.19100000E+01           0.97020460E+00
   0.19200000E+01           0.97585070E+00
   0.19300000E+01           0.98105120E+00
   0.19400000E+01           0.98591920E+00
   0.19500000E+01           0.99189100E+00
   0.19600000E+01           0.99693490E+00
   0.19700000E+01           0.10025329E+01
   0.19800000E+01           0.10083336E+01
   0.19900000E+01           0.10139775E+01
   0.20000000E+01           0.50901570E+00
