 #written on 30Jan2025 at 11:46:49 
 #----------------------------------------------- MONTECARLO ---------------------------------------------------#
 # Temp      Magnetization     Energy_ave          C_M              Sus              U_E              U_M       #
 #--------------------------------------------------------------------------------------------------------------#
  71.0000   0.14081341E-01  -0.17583115E+03   0.13386803E+01   0.11168163E-02   0.66653429E+00   0.43708217E+00
  72.0000   0.14207046E-01  -0.17448295E+03   0.13495478E+01   0.11170300E-02   0.66652729E+00   0.43785470E+00
  73.0000   0.14305746E-01  -0.17312202E+03   0.13639411E+01   0.11181330E-02   0.66651959E+00   0.43792395E+00
  74.0000   0.14442839E-01  -0.17175703E+03   0.13796680E+01   0.11239511E-02   0.66651135E+00   0.43812160E+00
  75.0000   0.14556843E-01  -0.17037304E+03   0.13895158E+01   0.11249398E-02   0.66650337E+00   0.43860989E+00
  76.0000   0.14670284E-01  -0.16897975E+03   0.14022827E+01   0.11301638E-02   0.66649464E+00   0.43785365E+00
  77.0000   0.14792357E-01  -0.16757196E+03   0.14181462E+01   0.11342200E-02   0.66648509E+00   0.43781308E+00
  78.0000   0.14918629E-01  -0.16613498E+03   0.14310059E+01   0.11386456E-02   0.66647539E+00   0.43831453E+00
  79.0000   0.15051815E-01  -0.16470255E+03   0.14499031E+01   0.11395223E-02   0.66646438E+00   0.43887959E+00
  80.0000   0.15159668E-01  -0.16323836E+03   0.14613829E+01   0.11420982E-02   0.66645384E+00   0.43839016E+00
  81.0000   0.15289974E-01  -0.16177561E+03   0.14858254E+01   0.11467101E-02   0.66644082E+00   0.43913268E+00
  82.0000   0.15426246E-01  -0.16027789E+03   0.14983607E+01   0.11543852E-02   0.66642890E+00   0.43866482E+00
  83.0000   0.15538848E-01  -0.15877121E+03   0.15144518E+01   0.11517424E-02   0.66641573E+00   0.43989696E+00
  84.0000   0.15671212E-01  -0.15724822E+03   0.15300582E+01   0.11613966E-02   0.66640198E+00   0.43974680E+00
  85.0000   0.15781000E-01  -0.15570778E+03   0.15511753E+01   0.11618006E-02   0.66638642E+00   0.43985823E+00
  86.0000   0.15922540E-01  -0.15415258E+03   0.15745907E+01   0.11643132E-02   0.66636959E+00   0.44115495E+00
  87.0000   0.16031467E-01  -0.15255649E+03   0.15952159E+01   0.11708684E-02   0.66635219E+00   0.43996996E+00
  88.0000   0.16175975E-01  -0.15095381E+03   0.16176965E+01   0.11760606E-02   0.66633343E+00   0.44103564E+00
  89.0000   0.16294592E-01  -0.14933792E+03   0.16376162E+01   0.11776991E-02   0.66631413E+00   0.44124286E+00
  90.0000   0.16436249E-01  -0.14768110E+03   0.16577172E+01   0.11875040E-02   0.66629352E+00   0.44083211E+00
  91.0000   0.16566167E-01  -0.14600203E+03   0.16861443E+01   0.11871563E-02   0.66626969E+00   0.44212361E+00
  92.0000   0.16712860E-01  -0.14431596E+03   0.17110483E+01   0.11986942E-02   0.66624523E+00   0.44112830E+00
  93.0000   0.16849366E-01  -0.14258693E+03   0.17377069E+01   0.12040321E-02   0.66621871E+00   0.44157644E+00
  94.0000   0.16979469E-01  -0.14082834E+03   0.17723935E+01   0.12087711E-02   0.66618821E+00   0.44202183E+00
  95.0000   0.17107426E-01  -0.13904827E+03   0.17965501E+01   0.12166093E-02   0.66615859E+00   0.44136805E+00
  96.0000   0.17240528E-01  -0.13723200E+03   0.18363009E+01   0.12184430E-02   0.66612228E+00   0.44248068E+00
  97.0000   0.17396291E-01  -0.13538486E+03   0.18772311E+01   0.12294464E-02   0.66608303E+00   0.44177065E+00
  98.0000   0.17575201E-01  -0.13346882E+03   0.19182729E+01   0.12384151E-02   0.66604044E+00   0.44270092E+00
  99.0000   0.17716549E-01  -0.13153105E+03   0.19860989E+01   0.12501952E-02   0.66598565E+00   0.44184478E+00
 100.0000   0.17887328E-01  -0.12949035E+03   0.20797938E+01   0.12591869E-02   0.66591652E+00   0.44233369E+00
 101.0000   0.18065013E-01  -0.12732336E+03   0.22202660E+01   0.12713315E-02   0.66582246E+00   0.44285930E+00
 102.0000   0.18270791E-01  -0.12502871E+03   0.23917074E+01   0.12873433E-02   0.66570526E+00   0.44278399E+00
 103.0000   0.18486668E-01  -0.12254022E+03   0.25846711E+01   0.13022423E-02   0.66556313E+00   0.44344919E+00
 104.0000   0.18746423E-01  -0.11989662E+03   0.26722318E+01   0.13292482E-02   0.66544923E+00   0.44272445E+00
 105.0000   0.18983678E-01  -0.11725107E+03   0.25831318E+01   0.13485932E-02   0.66540957E+00   0.44298508E+00
 106.0000   0.19186575E-01  -0.11473483E+03   0.24266488E+01   0.13623629E-02   0.66540840E+00   0.44314759E+00
 107.0000   0.19357688E-01  -0.11238983E+03   0.22563654E+01   0.13732652E-02   0.66542468E+00   0.44389264E+00
 108.0000   0.19513700E-01  -0.11019693E+03   0.21462902E+01   0.13818233E-02   0.66541545E+00   0.44356667E+00
 109.0000   0.19634870E-01  -0.10808938E+03   0.20647666E+01   0.13860875E-02   0.66539330E+00   0.44401762E+00
 110.0000   0.19753099E-01  -0.10606597E+03   0.20013765E+01   0.13910493E-02   0.66536161E+00   0.44360594E+00
 111.0000   0.19849728E-01  -0.10409245E+03   0.19396225E+01   0.13905745E-02   0.66533006E+00   0.44401219E+00
 112.0000   0.19959088E-01  -0.10216707E+03   0.19124541E+01   0.13941647E-02   0.66527423E+00   0.44398000E+00
 113.0000   0.20054340E-01  -0.10026296E+03   0.18734078E+01   0.13934137E-02   0.66522461E+00   0.44412156E+00
 114.0000   0.20140128E-01  -0.98387727E+02   0.18476068E+01   0.13910205E-02   0.66516343E+00   0.44438929E+00
 115.0000   0.20204335E-01  -0.96571012E+02   0.18064489E+01   0.13932324E-02   0.66511424E+00   0.44366574E+00
 116.0000   0.20293413E-01  -0.94798762E+02   0.17699829E+01   0.13917208E-02   0.66506018E+00   0.44355463E+00
 117.0000   0.20362712E-01  -0.93057165E+02   0.17290085E+01   0.13862311E-02   0.66501014E+00   0.44461821E+00
 118.0000   0.20438888E-01  -0.91351466E+02   0.16894422E+01   0.13869664E-02   0.66495834E+00   0.44395583E+00
 119.0000   0.20509560E-01  -0.89689592E+02   0.16398479E+01   0.13812774E-02   0.66491684E+00   0.44480476E+00
 120.0000   0.20576449E-01  -0.88059831E+02   0.15954649E+01   0.13776687E-02   0.66487032E+00   0.44461931E+00
 121.0000   0.20616259E-01  -0.86503001E+02   0.15428954E+01   0.13739600E-02   0.66483611E+00   0.44481536E+00
 122.0000   0.20697253E-01  -0.84965378E+02   0.14974570E+01   0.13731110E-02   0.66479406E+00   0.44473917E+00
 123.0000   0.20745892E-01  -0.83511804E+02   0.14443938E+01   0.13689043E-02   0.66476627E+00   0.44437919E+00
 124.0000   0.20802572E-01  -0.82083463E+02   0.13899668E+01   0.13693365E-02   0.66474206E+00   0.44367359E+00
 125.0000   0.20846120E-01  -0.80730275E+02   0.13365961E+01   0.13613434E-02   0.66472190E+00   0.44433673E+00
 126.0000   0.20890793E-01  -0.79427334E+02   0.12770952E+01   0.13558960E-02   0.66471582E+00   0.44438909E+00
 127.0000   0.20937001E-01  -0.78176389E+02   0.12228109E+01   0.13479762E-02   0.66470745E+00   0.44492514E+00
 128.0000   0.20977322E-01  -0.76965381E+02   0.11749356E+01   0.13443163E-02   0.66469333E+00   0.44473524E+00
 129.0000   0.21029001E-01  -0.75817119E+02   0.11184527E+01   0.13407275E-02   0.66469977E+00   0.44477122E+00
 130.0000   0.21057293E-01  -0.74719122E+02   0.10713982E+01   0.13335202E-02   0.66469623E+00   0.44469848E+00
 131.0000   0.21085801E-01  -0.73678724E+02   0.10159917E+01   0.13296166E-02   0.66471477E+00   0.44417844E+00
 132.0000   0.21126006E-01  -0.72688822E+02   0.97075057E+00   0.13205695E-02   0.66472092E+00   0.44489961E+00
 133.0000   0.21168440E-01  -0.71746428E+02   0.92371357E+00   0.13173196E-02   0.66473688E+00   0.44421122E+00
 134.0000   0.21195196E-01  -0.70845436E+02   0.87934232E+00   0.13119074E-02   0.66475429E+00   0.44453517E+00
 135.0000   0.21231502E-01  -0.69983010E+02   0.83657733E+00   0.13070600E-02   0.66477368E+00   0.44439038E+00
 136.0000   0.21256475E-01  -0.69165989E+02   0.79602286E+00   0.13001385E-02   0.66479514E+00   0.44455434E+00
 137.0000   0.21285263E-01  -0.68384318E+02   0.75967962E+00   0.12946462E-02   0.66481199E+00   0.44430009E+00
 138.0000   0.21305250E-01  -0.67644689E+02   0.72486604E+00   0.12873368E-02   0.66483170E+00   0.44463567E+00
 139.0000   0.21328122E-01  -0.66936911E+02   0.69175677E+00   0.12805247E-02   0.66485253E+00   0.44468956E+00
 140.0000   0.21353068E-01  -0.66264229E+02   0.66039925E+00   0.12759406E-02   0.66487381E+00   0.44435094E+00
 141.0000   0.21364812E-01  -0.65617873E+02   0.63118713E+00   0.12635967E-02   0.66489394E+00   0.44477242E+00
 142.0000   0.21380819E-01  -0.65006600E+02   0.60381816E+00   0.12623829E-02   0.66491428E+00   0.44357199E+00
 143.0000   0.21387265E-01  -0.64407908E+02   0.57748263E+00   0.12512119E-02   0.66493556E+00   0.44415107E+00
 144.0000   0.21421222E-01  -0.63837177E+02   0.55596382E+00   0.12458627E-02   0.66494627E+00   0.44490782E+00
 145.0000   0.21407796E-01  -0.63299284E+02   0.53385800E+00   0.12400967E-02   0.66496327E+00   0.44374170E+00
 146.0000   0.21422495E-01  -0.62779063E+02   0.51310934E+00   0.12294587E-02   0.66497932E+00   0.44483490E+00
 147.0000   0.21465312E-01  -0.62269842E+02   0.49445807E+00   0.12260962E-02   0.66499088E+00   0.44448827E+00
 148.0000   0.21440396E-01  -0.61789466E+02   0.47642105E+00   0.12138434E-02   0.66500458E+00   0.44466750E+00
 149.0000   0.21457746E-01  -0.61321108E+02   0.45972484E+00   0.12105201E-02   0.66501598E+00   0.44428931E+00
 150.0000   0.21494067E-01  -0.60864024E+02   0.44282455E+00   0.12033523E-02   0.66503173E+00   0.44501800E+00
