 #written on 12Mar2025 at 19:05:11 
 #----------------------------------------------- MONTECARLO ---------------------------------------------------#
 # Temp      Magnetization     Energy_ave          C_M              Sus              U_E              U_M       #
 #--------------------------------------------------------------------------------------------------------------#
   5.0000   0.31699598E-02  -0.89649188E+02   0.10306724E+01   0.11224930E-02   0.66666478E+00   0.35394434E+00
   6.0000   0.34909758E-02  -0.88617105E+02   0.10275091E+01   0.11166903E-02   0.66666390E+00   0.35859068E+00
   7.0000   0.37904594E-02  -0.87577869E+02   0.10513352E+01   0.11108549E-02   0.66666272E+00   0.36112457E+00
   8.0000   0.40643461E-02  -0.86529573E+02   0.10500923E+01   0.11016145E-02   0.66666139E+00   0.36457029E+00
   9.0000   0.43281967E-02  -0.85476832E+02   0.10597961E+01   0.10915946E-02   0.66665976E+00   0.36987031E+00
  10.0000   0.45777996E-02  -0.84414982E+02   0.10691276E+01   0.10862454E-02   0.66665785E+00   0.37275654E+00
  11.0000   0.48205083E-02  -0.83343819E+02   0.10751187E+01   0.10821976E-02   0.66665566E+00   0.37555751E+00
  12.0000   0.50618766E-02  -0.82265968E+02   0.10845703E+01   0.10803355E-02   0.66665310E+00   0.37822221E+00
  13.0000   0.52853827E-02  -0.81179579E+02   0.10886344E+01   0.10724120E-02   0.66665026E+00   0.38222687E+00
  14.0000   0.55077833E-02  -0.80081495E+02   0.10980175E+01   0.10677528E-02   0.66664694E+00   0.38540344E+00
  15.0000   0.57211859E-02  -0.78974798E+02   0.11116790E+01   0.10661461E-02   0.66664309E+00   0.38785702E+00
  16.0000   0.59379719E-02  -0.77859161E+02   0.11176587E+01   0.10643267E-02   0.66663893E+00   0.39117710E+00
  17.0000   0.61392223E-02  -0.76729741E+02   0.11359432E+01   0.10577688E-02   0.66663389E+00   0.39434192E+00
  18.0000   0.63379388E-02  -0.75592545E+02   0.11489528E+01   0.10571042E-02   0.66662838E+00   0.39609043E+00
  19.0000   0.65461110E-02  -0.74442023E+02   0.11594547E+01   0.10531603E-02   0.66662228E+00   0.40011853E+00
  20.0000   0.67386355E-02  -0.73276763E+02   0.11709773E+01   0.10555315E-02   0.66661540E+00   0.40178611E+00
  21.0000   0.69357133E-02  -0.72098485E+02   0.11831025E+01   0.10536526E-02   0.66660768E+00   0.40484875E+00
  22.0000   0.71249336E-02  -0.70904828E+02   0.11968985E+01   0.10503937E-02   0.66659895E+00   0.40769887E+00
  23.0000   0.73224631E-02  -0.69697491E+02   0.12198044E+01   0.10503598E-02   0.66658861E+00   0.41090570E+00
  24.0000   0.75051323E-02  -0.68469526E+02   0.12358853E+01   0.10516164E-02   0.66657744E+00   0.41265530E+00
  25.0000   0.76876659E-02  -0.67223108E+02   0.12547468E+01   0.10522861E-02   0.66656469E+00   0.41413494E+00
  26.0000   0.78765827E-02  -0.65958397E+02   0.12742286E+01   0.10516682E-02   0.66655034E+00   0.41763629E+00
  27.0000   0.80539069E-02  -0.64671438E+02   0.12998078E+01   0.10521144E-02   0.66653356E+00   0.41927904E+00
  28.0000   0.82449783E-02  -0.63362768E+02   0.13187095E+01   0.10551062E-02   0.66651538E+00   0.42130843E+00
  29.0000   0.84179286E-02  -0.62027474E+02   0.13427765E+01   0.10556246E-02   0.66649424E+00   0.42300207E+00
  30.0000   0.86070831E-02  -0.60668025E+02   0.13759653E+01   0.10604192E-02   0.66646902E+00   0.42497684E+00
  31.0000   0.87841901E-02  -0.59277296E+02   0.14118055E+01   0.10633080E-02   0.66643989E+00   0.42670934E+00
  32.0000   0.89672935E-02  -0.57851592E+02   0.14348775E+01   0.10649377E-02   0.66640881E+00   0.42925749E+00
  33.0000   0.91508847E-02  -0.56399919E+02   0.14719490E+01   0.10704493E-02   0.66637074E+00   0.43105453E+00
  34.0000   0.93232572E-02  -0.54905355E+02   0.15098924E+01   0.10727699E-02   0.66632668E+00   0.43245154E+00
  35.0000   0.95129152E-02  -0.53373316E+02   0.15506400E+01   0.10767509E-02   0.66627517E+00   0.43416452E+00
  36.0000   0.96951034E-02  -0.51796759E+02   0.15923898E+01   0.10851140E-02   0.66621511E+00   0.43504879E+00
  37.0000   0.98746619E-02  -0.50180630E+02   0.16445751E+01   0.10907070E-02   0.66614187E+00   0.43670156E+00
  38.0000   0.10051011E-01  -0.48510872E+02   0.16945887E+01   0.10969776E-02   0.66605642E+00   0.43739291E+00
  39.0000   0.10235416E-01  -0.46788754E+02   0.17542795E+01   0.11052127E-02   0.66595156E+00   0.43905969E+00
  40.0000   0.10412954E-01  -0.45004737E+02   0.18147794E+01   0.11093994E-02   0.66582582E+00   0.43995915E+00
  41.0000   0.10604742E-01  -0.43162570E+02   0.18792698E+01   0.11219440E-02   0.66567250E+00   0.43999461E+00
  42.0000   0.10786198E-01  -0.41245467E+02   0.19531129E+01   0.11276506E-02   0.66547956E+00   0.44174734E+00
  43.0000   0.10965803E-01  -0.39245763E+02   0.20478434E+01   0.11359572E-02   0.66522652E+00   0.44230238E+00
  44.0000   0.11147892E-01  -0.37160336E+02   0.21416824E+01   0.11499331E-02   0.66490857E+00   0.44189007E+00
  45.0000   0.11340905E-01  -0.34967132E+02   0.22637939E+01   0.11591977E-02   0.66447333E+00   0.44298689E+00
  46.0000   0.11525705E-01  -0.32625885E+02   0.24073613E+01   0.11708788E-02   0.66387166E+00   0.44349901E+00
  47.0000   0.11719238E-01  -0.30135360E+02   0.26019010E+01   0.11815228E-02   0.66297469E+00   0.44379732E+00
  48.0000   0.11927526E-01  -0.27444533E+02   0.27193785E+01   0.11980253E-02   0.66180710E+00   0.44411508E+00
  49.0000   0.12113641E-01  -0.24880250E+02   0.23074418E+01   0.12102913E-02   0.66138050E+00   0.44474728E+00
  50.0000   0.12270882E-01  -0.22924362E+02   0.16365718E+01   0.12169093E-02   0.66204587E+00   0.44441090E+00
  51.0000   0.12411369E-01  -0.21520488E+02   0.12058117E+01   0.12179098E-02   0.66265657E+00   0.44491465E+00
  52.0000   0.12530803E-01  -0.20449441E+02   0.96991436E+00   0.12222074E-02   0.66296285E+00   0.44378574E+00
  53.0000   0.12633752E-01  -0.19558451E+02   0.81959779E+00   0.12146945E-02   0.66311781E+00   0.44486593E+00
  54.0000   0.12739735E-01  -0.18790481E+02   0.72140673E+00   0.12129184E-02   0.66315727E+00   0.44434595E+00
  55.0000   0.12840151E-01  -0.18110576E+02   0.64439317E+00   0.12078476E-02   0.66316878E+00   0.44496340E+00
  56.0000   0.12930664E-01  -0.17498565E+02   0.58474265E+00   0.12077241E-02   0.66314434E+00   0.44428811E+00
  57.0000   0.13024077E-01  -0.16937835E+02   0.53460422E+00   0.11992120E-02   0.66310661E+00   0.44517288E+00
  58.0000   0.13098132E-01  -0.16425344E+02   0.49180106E+00   0.11973339E-02   0.66306221E+00   0.44384809E+00
  59.0000   0.13178204E-01  -0.15951810E+02   0.45573164E+00   0.11867138E-02   0.66300322E+00   0.44496586E+00
  60.0000   0.13276751E-01  -0.15510498E+02   0.42499675E+00   0.11836938E-02   0.66293004E+00   0.44525970E+00
  61.0000   0.13332238E-01  -0.15100207E+02   0.39684135E+00   0.11750828E-02   0.66286172E+00   0.44510624E+00
  62.0000   0.13413025E-01  -0.14716877E+02   0.37254411E+00   0.11696468E-02   0.66278111E+00   0.44514821E+00
  63.0000   0.13468027E-01  -0.14356288E+02   0.34881797E+00   0.11656069E-02   0.66272202E+00   0.44385100E+00
  64.0000   0.13537815E-01  -0.14014229E+02   0.33071143E+00   0.11561457E-02   0.66261666E+00   0.44508272E+00
  65.0000   0.13617936E-01  -0.13695294E+02   0.31243505E+00   0.11499752E-02   0.66253442E+00   0.44509468E+00
  66.0000   0.13663065E-01  -0.13390086E+02   0.29618037E+00   0.11436015E-02   0.66244316E+00   0.44395723E+00
  67.0000   0.13736977E-01  -0.13100980E+02   0.28000071E+00   0.11360812E-02   0.66236902E+00   0.44465092E+00
  68.0000   0.13788355E-01  -0.12827868E+02   0.26647941E+00   0.11308116E-02   0.66227301E+00   0.44424730E+00
  69.0000   0.13856492E-01  -0.12568944E+02   0.25482544E+00   0.11231570E-02   0.66216032E+00   0.44451245E+00
  70.0000   0.13908567E-01  -0.12319789E+02   0.24277051E+00   0.11166800E-02   0.66206748E+00   0.44397193E+00
  71.0000   0.13970446E-01  -0.12080895E+02   0.23170052E+00   0.11115684E-02   0.66197276E+00   0.44398613E+00
  72.0000   0.14027425E-01  -0.11856232E+02   0.22187663E+00   0.11015510E-02   0.66186787E+00   0.44492590E+00
  73.0000   0.14076510E-01  -0.11639569E+02   0.21220581E+00   0.10993498E-02   0.66177211E+00   0.44388724E+00
  74.0000   0.14128552E-01  -0.11431926E+02   0.20349704E+00   0.10902509E-02   0.66166681E+00   0.44437810E+00
  75.0000   0.14189814E-01  -0.11230888E+02   0.19491970E+00   0.10841167E-02   0.66156950E+00   0.44462503E+00
  76.0000   0.14237400E-01  -0.11040939E+02   0.18787216E+00   0.10760038E-02   0.66144803E+00   0.44478805E+00
  77.0000   0.14287601E-01  -0.10856231E+02   0.18048707E+00   0.10712936E-02   0.66134543E+00   0.44431680E+00
  78.0000   0.14341968E-01  -0.10678362E+02   0.17354448E+00   0.10651223E-02   0.66124116E+00   0.44454411E+00
  79.0000   0.14380024E-01  -0.10508720E+02   0.16723631E+00   0.10546285E-02   0.66112892E+00   0.44539930E+00
  80.0000   0.14424307E-01  -0.10344359E+02   0.16126455E+00   0.10519500E-02   0.66101627E+00   0.44423306E+00
  81.0000   0.14475918E-01  -0.10185015E+02   0.15590206E+00   0.10450532E-02   0.66089092E+00   0.44476538E+00
  82.0000   0.14513095E-01  -0.10032049E+02   0.15058023E+00   0.10375691E-02   0.66077431E+00   0.44460785E+00
  83.0000   0.14568190E-01  -0.98847919E+01   0.14520521E+00   0.10296210E-02   0.66067165E+00   0.44535835E+00
  84.0000   0.14601683E-01  -0.97412763E+01   0.14056230E+00   0.10257309E-02   0.66054657E+00   0.44444287E+00
