 #written on 12Mar2025 at 19:05:11 
 #----------------- MONTECARLO -------------------#
 #        M                      P(M)             #
 #------------------------------------------------#
 #T=     5.0000
  -0.20000000E+01           0.00000000E+00
  -0.19900000E+01           0.00000000E+00
  -0.19800000E+01           0.00000000E+00
  -0.19700000E+01           0.00000000E+00
  -0.19600000E+01           0.00000000E+00
  -0.19500000E+01           0.00000000E+00
  -0.19400000E+01           0.00000000E+00
  -0.19300000E+01           0.00000000E+00
  -0.19200000E+01           0.00000000E+00
  -0.19100000E+01           0.00000000E+00
  -0.19000000E+01           0.00000000E+00
  -0.18900000E+01           0.00000000E+00
  -0.18800000E+01           0.00000000E+00
  -0.18700000E+01           0.00000000E+00
  -0.18600000E+01           0.00000000E+00
  -0.18500000E+01           0.00000000E+00
  -0.18400000E+01           0.00000000E+00
  -0.18300000E+01           0.00000000E+00
  -0.18200000E+01           0.00000000E+00
  -0.18100000E+01           0.00000000E+00
  -0.18000000E+01           0.00000000E+00
  -0.17900000E+01           0.00000000E+00
  -0.17800000E+01           0.00000000E+00
  -0.17700000E+01           0.00000000E+00
  -0.17600000E+01           0.00000000E+00
  -0.17500000E+01           0.00000000E+00
  -0.17400000E+01           0.00000000E+00
  -0.17300000E+01           0.00000000E+00
  -0.17200000E+01           0.00000000E+00
  -0.17100000E+01           0.00000000E+00
  -0.17000000E+01           0.00000000E+00
  -0.16900000E+01           0.00000000E+00
  -0.16800000E+01           0.00000000E+00
  -0.16700000E+01           0.00000000E+00
  -0.16600000E+01           0.00000000E+00
  -0.16500000E+01           0.00000000E+00
  -0.16400000E+01           0.00000000E+00
  -0.16300000E+01           0.00000000E+00
  -0.16200000E+01           0.00000000E+00
  -0.16100000E+01           0.00000000E+00
  -0.16000000E+01           0.00000000E+00
  -0.15900000E+01           0.00000000E+00
  -0.15800000E+01           0.00000000E+00
  -0.15700000E+01           0.00000000E+00
  -0.15600000E+01           0.00000000E+00
  -0.15500000E+01           0.00000000E+00
  -0.15400000E+01           0.00000000E+00
  -0.15300000E+01           0.00000000E+00
  -0.15200000E+01           0.00000000E+00
  -0.15100000E+01           0.00000000E+00
  -0.15000000E+01           0.00000000E+00
  -0.14900000E+01           0.00000000E+00
  -0.14800000E+01           0.00000000E+00
  -0.14700000E+01           0.00000000E+00
  -0.14600000E+01           0.00000000E+00
  -0.14500000E+01           0.00000000E+00
  -0.14400000E+01           0.00000000E+00
  -0.14300000E+01           0.00000000E+00
  -0.14200000E+01           0.00000000E+00
  -0.14100000E+01           0.00000000E+00
  -0.14000000E+01           0.00000000E+00
  -0.13900000E+01           0.00000000E+00
  -0.13800000E+01           0.00000000E+00
  -0.13700000E+01           0.00000000E+00
  -0.13600000E+01           0.00000000E+00
  -0.13500000E+01           0.00000000E+00
  -0.13400000E+01           0.00000000E+00
  -0.13300000E+01           0.00000000E+00
  -0.13200000E+01           0.00000000E+00
  -0.13100000E+01           0.00000000E+00
  -0.13000000E+01           0.00000000E+00
  -0.12900000E+01           0.00000000E+00
  -0.12800000E+01           0.00000000E+00
  -0.12700000E+01           0.00000000E+00
  -0.12600000E+01           0.00000000E+00
  -0.12500000E+01           0.00000000E+00
  -0.12400000E+01           0.00000000E+00
  -0.12300000E+01           0.00000000E+00
  -0.12200000E+01           0.00000000E+00
  -0.12100000E+01           0.00000000E+00
  -0.12000000E+01           0.00000000E+00
  -0.11900000E+01           0.00000000E+00
  -0.11800000E+01           0.00000000E+00
  -0.11700000E+01           0.00000000E+00
  -0.11600000E+01           0.00000000E+00
  -0.11500000E+01           0.00000000E+00
  -0.11400000E+01           0.00000000E+00
  -0.11300000E+01           0.00000000E+00
  -0.11200000E+01           0.00000000E+00
  -0.11100000E+01           0.00000000E+00
  -0.11000000E+01           0.00000000E+00
  -0.10900000E+01           0.00000000E+00
  -0.10800000E+01           0.00000000E+00
  -0.10700000E+01           0.00000000E+00
  -0.10600000E+01           0.00000000E+00
  -0.10500000E+01           0.00000000E+00
  -0.10400000E+01           0.00000000E+00
  -0.10300000E+01           0.00000000E+00
  -0.10200000E+01           0.00000000E+00
  -0.10100000E+01           0.00000000E+00
  -0.10000000E+01           0.00000000E+00
  -0.99000000E+00           0.00000000E+00
  -0.98000000E+00           0.00000000E+00
  -0.97000000E+00           0.00000000E+00
  -0.96000000E+00           0.00000000E+00
  -0.95000000E+00           0.00000000E+00
  -0.94000000E+00           0.00000000E+00
  -0.93000000E+00           0.00000000E+00
  -0.92000000E+00           0.00000000E+00
  -0.91000000E+00           0.00000000E+00
  -0.90000000E+00           0.00000000E+00
  -0.89000000E+00           0.00000000E+00
  -0.88000000E+00           0.00000000E+00
  -0.87000000E+00           0.00000000E+00
  -0.86000000E+00           0.00000000E+00
  -0.85000000E+00           0.00000000E+00
  -0.84000000E+00           0.00000000E+00
  -0.83000000E+00           0.00000000E+00
  -0.82000000E+00           0.00000000E+00
  -0.81000000E+00           0.00000000E+00
  -0.80000000E+00           0.00000000E+00
  -0.79000000E+00           0.00000000E+00
  -0.78000000E+00           0.00000000E+00
  -0.77000000E+00           0.00000000E+00
  -0.76000000E+00           0.00000000E+00
  -0.75000000E+00           0.00000000E+00
  -0.74000000E+00           0.00000000E+00
  -0.73000000E+00           0.00000000E+00
  -0.72000000E+00           0.00000000E+00
  -0.71000000E+00           0.00000000E+00
  -0.70000000E+00           0.00000000E+00
  -0.69000000E+00           0.00000000E+00
  -0.68000000E+00           0.00000000E+00
  -0.67000000E+00           0.00000000E+00
  -0.66000000E+00           0.00000000E+00
  -0.65000000E+00           0.00000000E+00
  -0.64000000E+00           0.00000000E+00
  -0.63000000E+00           0.00000000E+00
  -0.62000000E+00           0.00000000E+00
  -0.61000000E+00           0.00000000E+00
  -0.60000000E+00           0.00000000E+00
  -0.59000000E+00           0.00000000E+00
  -0.58000000E+00           0.00000000E+00
  -0.57000000E+00           0.00000000E+00
  -0.56000000E+00           0.00000000E+00
  -0.55000000E+00           0.00000000E+00
  -0.54000000E+00           0.00000000E+00
  -0.53000000E+00           0.00000000E+00
  -0.52000000E+00           0.00000000E+00
  -0.51000000E+00           0.00000000E+00
  -0.50000000E+00           0.00000000E+00
  -0.49000000E+00           0.00000000E+00
  -0.48000000E+00           0.00000000E+00
  -0.47000000E+00           0.00000000E+00
  -0.46000000E+00           0.00000000E+00
  -0.45000000E+00           0.00000000E+00
  -0.44000000E+00           0.00000000E+00
  -0.43000000E+00           0.00000000E+00
  -0.42000000E+00           0.00000000E+00
  -0.41000000E+00           0.00000000E+00
  -0.40000000E+00           0.00000000E+00
  -0.39000000E+00           0.00000000E+00
  -0.38000000E+00           0.00000000E+00
  -0.37000000E+00           0.00000000E+00
  -0.36000000E+00           0.00000000E+00
  -0.35000000E+00           0.00000000E+00
  -0.34000000E+00           0.00000000E+00
  -0.33000000E+00           0.00000000E+00
  -0.32000000E+00           0.00000000E+00
  -0.31000000E+00           0.00000000E+00
  -0.30000000E+00           0.00000000E+00
  -0.29000000E+00           0.00000000E+00
  -0.28000000E+00           0.00000000E+00
  -0.27000000E+00           0.00000000E+00
  -0.26000000E+00           0.00000000E+00
  -0.25000000E+00           0.00000000E+00
  -0.24000000E+00           0.00000000E+00
  -0.23000000E+00           0.00000000E+00
  -0.22000000E+00           0.00000000E+00
  -0.21000000E+00           0.00000000E+00
  -0.20000000E+00           0.00000000E+00
  -0.19000000E+00           0.00000000E+00
  -0.18000000E+00           0.00000000E+00
  -0.17000000E+00           0.00000000E+00
  -0.16000000E+00           0.00000000E+00
  -0.15000000E+00           0.00000000E+00
  -0.14000000E+00           0.00000000E+00
  -0.13000000E+00           0.00000000E+00
  -0.12000000E+00           0.00000000E+00
  -0.11000000E+00           0.00000000E+00
  -0.10000000E+00           0.00000000E+00
  -0.90000000E-01           0.00000000E+00
  -0.80000000E-01           0.00000000E+00
  -0.70000000E-01           0.00000000E+00
  -0.60000000E-01           0.00000000E+00
  -0.50000000E-01           0.00000000E+00
  -0.40000000E-01           0.00000000E+00
  -0.30000000E-01           0.00000000E+00
  -0.20000000E-01           0.00000000E+00
  -0.10000000E-01           0.00000000E+00
   0.00000000E+00           0.23196296E-01
   0.10000000E-01           0.18572734E+00
   0.20000000E-01           0.37145026E+00
   0.30000000E-01           0.55304065E+00
   0.40000000E-01           0.73141764E+00
   0.50000000E-01           0.90996693E+00
   0.60000000E-01           0.10812423E+01
   0.70000000E-01           0.12449220E+01
   0.80000000E-01           0.14034105E+01
   0.90000000E-01           0.15539595E+01
   0.10000000E+00           0.16951281E+01
   0.11000000E+00           0.18294350E+01
   0.12000000E+00           0.19537176E+01
   0.13000000E+00           0.20707239E+01
   0.14000000E+00           0.21739657E+01
   0.15000000E+00           0.22665481E+01
   0.16000000E+00           0.23495517E+01
   0.17000000E+00           0.24241749E+01
   0.18000000E+00           0.24812810E+01
   0.19000000E+00           0.25338683E+01
   0.20000000E+00           0.25719199E+01
   0.21000000E+00           0.26052630E+01
   0.22000000E+00           0.26172590E+01
   0.23000000E+00           0.26250508E+01
   0.24000000E+00           0.26227842E+01
   0.25000000E+00           0.26109222E+01
   0.26000000E+00           0.25911253E+01
   0.27000000E+00           0.25638754E+01
   0.28000000E+00           0.25224451E+01
   0.29000000E+00           0.24805349E+01
   0.30000000E+00           0.24286290E+01
   0.31000000E+00           0.23717275E+01
   0.32000000E+00           0.23103034E+01
   0.33000000E+00           0.22396368E+01
   0.34000000E+00           0.21682252E+01
   0.35000000E+00           0.20946507E+01
   0.36000000E+00           0.20181347E+01
   0.37000000E+00           0.19355084E+01
   0.38000000E+00           0.18543419E+01
   0.39000000E+00           0.17722110E+01
   0.40000000E+00           0.16897823E+01
   0.41000000E+00           0.16035243E+01
   0.42000000E+00           0.15194936E+01
   0.43000000E+00           0.14365667E+01
   0.44000000E+00           0.13560739E+01
   0.45000000E+00           0.12751916E+01
   0.46000000E+00           0.11968011E+01
   0.47000000E+00           0.11214884E+01
   0.48000000E+00           0.10456321E+01
   0.49000000E+00           0.97322610E+00
   0.50000000E+00           0.90531270E+00
   0.51000000E+00           0.83973721E+00
   0.52000000E+00           0.77652319E+00
   0.53000000E+00           0.71645847E+00
   0.54000000E+00           0.65983519E+00
   0.55000000E+00           0.60586490E+00
   0.56000000E+00           0.55493254E+00
   0.57000000E+00           0.50789859E+00
   0.58000000E+00           0.46356764E+00
   0.59000000E+00           0.42079497E+00
   0.60000000E+00           0.38284030E+00
   0.61000000E+00           0.34693457E+00
   0.62000000E+00           0.31292011E+00
   0.63000000E+00           0.28161746E+00
   0.64000000E+00           0.25365635E+00
   0.65000000E+00           0.22731323E+00
   0.66000000E+00           0.20356041E+00
   0.67000000E+00           0.18137743E+00
   0.68000000E+00           0.16191552E+00
   0.69000000E+00           0.14388325E+00
   0.70000000E+00           0.12762037E+00
   0.71000000E+00           0.11282954E+00
   0.72000000E+00           0.99934127E-01
   0.73000000E+00           0.87790123E-01
   0.74000000E+00           0.77058377E-01
   0.75000000E+00           0.67425661E-01
   0.76000000E+00           0.59078483E-01
   0.77000000E+00           0.51219841E-01
   0.78000000E+00           0.44710053E-01
   0.79000000E+00           0.38872575E-01
   0.80000000E+00           0.33537831E-01
   0.81000000E+00           0.28994444E-01
   0.82000000E+00           0.25013228E-01
   0.83000000E+00           0.21430776E-01
   0.84000000E+00           0.18444797E-01
   0.85000000E+00           0.15803086E-01
   0.86000000E+00           0.13445062E-01
   0.87000000E+00           0.11456085E-01
   0.88000000E+00           0.97492945E-02
   0.89000000E+00           0.82571429E-02
   0.90000000E+00           0.68898589E-02
   0.91000000E+00           0.58753968E-02
   0.92000000E+00           0.49017637E-02
   0.93000000E+00           0.41139330E-02
   0.94000000E+00           0.34465608E-02
   0.95000000E+00           0.28894180E-02
   0.96000000E+00           0.23534392E-02
   0.97000000E+00           0.19878307E-02
   0.98000000E+00           0.16240741E-02
   0.99000000E+00           0.13637566E-02
   0.10000000E+01           0.11102293E-02
   0.10100000E+01           0.92689594E-03
   0.10200000E+01           0.73783069E-03
   0.10300000E+01           0.60044092E-03
   0.10400000E+01           0.49047619E-03
   0.10500000E+01           0.39858907E-03
   0.10600000E+01           0.33209877E-03
   0.10700000E+01           0.26825397E-03
   0.10800000E+01           0.21111111E-03
   0.10900000E+01           0.16340388E-03
   0.11000000E+01           0.13932981E-03
   0.11100000E+01           0.10414462E-03
   0.11200000E+01           0.88977072E-04
   0.11300000E+01           0.65520282E-04
   0.11400000E+01           0.59876543E-04
   0.11500000E+01           0.43033510E-04
   0.11600000E+01           0.35449735E-04
   0.11700000E+01           0.27160494E-04
   0.11800000E+01           0.19841270E-04
   0.11900000E+01           0.14638448E-04
   0.12000000E+01           0.12433862E-04
   0.12100000E+01           0.71428571E-05
   0.12200000E+01           0.57319224E-05
   0.12300000E+01           0.60846561E-05
   0.12400000E+01           0.24691358E-05
   0.12500000E+01           0.25573192E-05
   0.12600000E+01           0.22927690E-05
   0.12700000E+01           0.22045855E-05
   0.12800000E+01           0.12345679E-05
   0.12900000E+01           0.10582011E-05
   0.13000000E+01           0.26455026E-06
   0.13100000E+01           0.88183422E-06
   0.13200000E+01           0.88183422E-07
   0.13300000E+01           0.35273369E-06
   0.13400000E+01           0.44091711E-06
   0.13500000E+01           0.88183422E-07
   0.13600000E+01           0.88183422E-07
   0.13700000E+01           0.00000000E+00
   0.13800000E+01           0.00000000E+00
   0.13900000E+01           0.88183422E-07
   0.14000000E+01           0.00000000E+00
   0.14100000E+01           0.00000000E+00
   0.14200000E+01           0.00000000E+00
   0.14300000E+01           0.00000000E+00
   0.14400000E+01           0.00000000E+00
   0.14500000E+01           0.00000000E+00
   0.14600000E+01           0.00000000E+00
   0.14700000E+01           0.00000000E+00
   0.14800000E+01           0.00000000E+00
   0.14900000E+01           0.00000000E+00
   0.15000000E+01           0.00000000E+00
   0.15100000E+01           0.00000000E+00
   0.15200000E+01           0.00000000E+00
   0.15300000E+01           0.00000000E+00
   0.15400000E+01           0.00000000E+00
   0.15500000E+01           0.00000000E+00
   0.15600000E+01           0.00000000E+00
   0.15700000E+01           0.00000000E+00
   0.15800000E+01           0.00000000E+00
   0.15900000E+01           0.00000000E+00
   0.16000000E+01           0.00000000E+00
   0.16100000E+01           0.00000000E+00
   0.16200000E+01           0.00000000E+00
   0.16300000E+01           0.00000000E+00
   0.16400000E+01           0.00000000E+00
   0.16500000E+01           0.00000000E+00
   0.16600000E+01           0.00000000E+00
   0.16700000E+01           0.00000000E+00
   0.16800000E+01           0.00000000E+00
   0.16900000E+01           0.00000000E+00
   0.17000000E+01           0.00000000E+00
   0.17100000E+01           0.00000000E+00
   0.17200000E+01           0.00000000E+00
   0.17300000E+01           0.00000000E+00
   0.17400000E+01           0.00000000E+00
   0.17500000E+01           0.00000000E+00
   0.17600000E+01           0.00000000E+00
   0.17700000E+01           0.00000000E+00
   0.17800000E+01           0.00000000E+00
   0.17900000E+01           0.00000000E+00
   0.18000000E+01           0.00000000E+00
   0.18100000E+01           0.00000000E+00
   0.18200000E+01           0.00000000E+00
   0.18300000E+01           0.00000000E+00
   0.18400000E+01           0.00000000E+00
   0.18500000E+01           0.00000000E+00
   0.18600000E+01           0.00000000E+00
   0.18700000E+01           0.00000000E+00
   0.18800000E+01           0.00000000E+00
   0.18900000E+01           0.00000000E+00
   0.19000000E+01           0.00000000E+00
   0.19100000E+01           0.00000000E+00
   0.19200000E+01           0.00000000E+00
   0.19300000E+01           0.00000000E+00
   0.19400000E+01           0.00000000E+00
   0.19500000E+01           0.00000000E+00
   0.19600000E+01           0.00000000E+00
   0.19700000E+01           0.00000000E+00
   0.19800000E+01           0.00000000E+00
   0.19900000E+01           0.00000000E+00
   0.20000000E+01           0.00000000E+00
 #T=     6.0000
  -0.20000000E+01           0.00000000E+00
  -0.19900000E+01           0.00000000E+00
  -0.19800000E+01           0.00000000E+00
  -0.19700000E+01           0.00000000E+00
  -0.19600000E+01           0.00000000E+00
  -0.19500000E+01           0.00000000E+00
  -0.19400000E+01           0.00000000E+00
  -0.19300000E+01           0.00000000E+00
  -0.19200000E+01           0.00000000E+00
  -0.19100000E+01           0.00000000E+00
  -0.19000000E+01           0.00000000E+00
  -0.18900000E+01           0.00000000E+00
  -0.18800000E+01           0.00000000E+00
  -0.18700000E+01           0.00000000E+00
  -0.18600000E+01           0.00000000E+00
  -0.18500000E+01           0.00000000E+00
  -0.18400000E+01           0.00000000E+00
  -0.18300000E+01           0.00000000E+00
  -0.18200000E+01           0.00000000E+00
  -0.18100000E+01           0.00000000E+00
  -0.18000000E+01           0.00000000E+00
  -0.17900000E+01           0.00000000E+00
  -0.17800000E+01           0.00000000E+00
  -0.17700000E+01           0.00000000E+00
  -0.17600000E+01           0.00000000E+00
  -0.17500000E+01           0.00000000E+00
  -0.17400000E+01           0.00000000E+00
  -0.17300000E+01           0.00000000E+00
  -0.17200000E+01           0.00000000E+00
  -0.17100000E+01           0.00000000E+00
  -0.17000000E+01           0.00000000E+00
  -0.16900000E+01           0.00000000E+00
  -0.16800000E+01           0.00000000E+00
  -0.16700000E+01           0.00000000E+00
  -0.16600000E+01           0.00000000E+00
  -0.16500000E+01           0.00000000E+00
  -0.16400000E+01           0.00000000E+00
  -0.16300000E+01           0.00000000E+00
  -0.16200000E+01           0.00000000E+00
  -0.16100000E+01           0.00000000E+00
  -0.16000000E+01           0.00000000E+00
  -0.15900000E+01           0.00000000E+00
  -0.15800000E+01           0.00000000E+00
  -0.15700000E+01           0.00000000E+00
  -0.15600000E+01           0.00000000E+00
  -0.15500000E+01           0.00000000E+00
  -0.15400000E+01           0.00000000E+00
  -0.15300000E+01           0.00000000E+00
  -0.15200000E+01           0.00000000E+00
  -0.15100000E+01           0.00000000E+00
  -0.15000000E+01           0.00000000E+00
  -0.14900000E+01           0.00000000E+00
  -0.14800000E+01           0.00000000E+00
  -0.14700000E+01           0.00000000E+00
  -0.14600000E+01           0.00000000E+00
  -0.14500000E+01           0.00000000E+00
  -0.14400000E+01           0.00000000E+00
  -0.14300000E+01           0.00000000E+00
  -0.14200000E+01           0.00000000E+00
  -0.14100000E+01           0.00000000E+00
  -0.14000000E+01           0.00000000E+00
  -0.13900000E+01           0.00000000E+00
  -0.13800000E+01           0.00000000E+00
  -0.13700000E+01           0.00000000E+00
  -0.13600000E+01           0.00000000E+00
  -0.13500000E+01           0.00000000E+00
  -0.13400000E+01           0.00000000E+00
  -0.13300000E+01           0.00000000E+00
  -0.13200000E+01           0.00000000E+00
  -0.13100000E+01           0.00000000E+00
  -0.13000000E+01           0.00000000E+00
  -0.12900000E+01           0.00000000E+00
  -0.12800000E+01           0.00000000E+00
  -0.12700000E+01           0.00000000E+00
  -0.12600000E+01           0.00000000E+00
  -0.12500000E+01           0.00000000E+00
  -0.12400000E+01           0.00000000E+00
  -0.12300000E+01           0.00000000E+00
  -0.12200000E+01           0.00000000E+00
  -0.12100000E+01           0.00000000E+00
  -0.12000000E+01           0.00000000E+00
  -0.11900000E+01           0.00000000E+00
  -0.11800000E+01           0.00000000E+00
  -0.11700000E+01           0.00000000E+00
  -0.11600000E+01           0.00000000E+00
  -0.11500000E+01           0.00000000E+00
  -0.11400000E+01           0.00000000E+00
  -0.11300000E+01           0.00000000E+00
  -0.11200000E+01           0.00000000E+00
  -0.11100000E+01           0.00000000E+00
  -0.11000000E+01           0.00000000E+00
  -0.10900000E+01           0.00000000E+00
  -0.10800000E+01           0.00000000E+00
  -0.10700000E+01           0.00000000E+00
  -0.10600000E+01           0.00000000E+00
  -0.10500000E+01           0.00000000E+00
  -0.10400000E+01           0.00000000E+00
  -0.10300000E+01           0.00000000E+00
  -0.10200000E+01           0.00000000E+00
  -0.10100000E+01           0.00000000E+00
  -0.10000000E+01           0.00000000E+00
  -0.99000000E+00           0.00000000E+00
  -0.98000000E+00           0.00000000E+00
  -0.97000000E+00           0.00000000E+00
  -0.96000000E+00           0.00000000E+00
  -0.95000000E+00           0.00000000E+00
  -0.94000000E+00           0.00000000E+00
  -0.93000000E+00           0.00000000E+00
  -0.92000000E+00           0.00000000E+00
  -0.91000000E+00           0.00000000E+00
  -0.90000000E+00           0.00000000E+00
  -0.89000000E+00           0.00000000E+00
  -0.88000000E+00           0.00000000E+00
  -0.87000000E+00           0.00000000E+00
  -0.86000000E+00           0.00000000E+00
  -0.85000000E+00           0.00000000E+00
  -0.84000000E+00           0.00000000E+00
  -0.83000000E+00           0.00000000E+00
  -0.82000000E+00           0.00000000E+00
  -0.81000000E+00           0.00000000E+00
  -0.80000000E+00           0.00000000E+00
  -0.79000000E+00           0.00000000E+00
  -0.78000000E+00           0.00000000E+00
  -0.77000000E+00           0.00000000E+00
  -0.76000000E+00           0.00000000E+00
  -0.75000000E+00           0.00000000E+00
  -0.74000000E+00           0.00000000E+00
  -0.73000000E+00           0.00000000E+00
  -0.72000000E+00           0.00000000E+00
  -0.71000000E+00           0.00000000E+00
  -0.70000000E+00           0.00000000E+00
  -0.69000000E+00           0.00000000E+00
  -0.68000000E+00           0.00000000E+00
  -0.67000000E+00           0.00000000E+00
  -0.66000000E+00           0.00000000E+00
  -0.65000000E+00           0.00000000E+00
  -0.64000000E+00           0.00000000E+00
  -0.63000000E+00           0.00000000E+00
  -0.62000000E+00           0.00000000E+00
  -0.61000000E+00           0.00000000E+00
  -0.60000000E+00           0.00000000E+00
  -0.59000000E+00           0.00000000E+00
  -0.58000000E+00           0.00000000E+00
  -0.57000000E+00           0.00000000E+00
  -0.56000000E+00           0.00000000E+00
  -0.55000000E+00           0.00000000E+00
  -0.54000000E+00           0.00000000E+00
  -0.53000000E+00           0.00000000E+00
  -0.52000000E+00           0.00000000E+00
  -0.51000000E+00           0.00000000E+00
  -0.50000000E+00           0.00000000E+00
  -0.49000000E+00           0.00000000E+00
  -0.48000000E+00           0.00000000E+00
  -0.47000000E+00           0.00000000E+00
  -0.46000000E+00           0.00000000E+00
  -0.45000000E+00           0.00000000E+00
  -0.44000000E+00           0.00000000E+00
  -0.43000000E+00           0.00000000E+00
  -0.42000000E+00           0.00000000E+00
  -0.41000000E+00           0.00000000E+00
  -0.40000000E+00           0.00000000E+00
  -0.39000000E+00           0.00000000E+00
  -0.38000000E+00           0.00000000E+00
  -0.37000000E+00           0.00000000E+00
  -0.36000000E+00           0.00000000E+00
  -0.35000000E+00           0.00000000E+00
  -0.34000000E+00           0.00000000E+00
  -0.33000000E+00           0.00000000E+00
  -0.32000000E+00           0.00000000E+00
  -0.31000000E+00           0.00000000E+00
  -0.30000000E+00           0.00000000E+00
  -0.29000000E+00           0.00000000E+00
  -0.28000000E+00           0.00000000E+00
  -0.27000000E+00           0.00000000E+00
  -0.26000000E+00           0.00000000E+00
  -0.25000000E+00           0.00000000E+00
  -0.24000000E+00           0.00000000E+00
  -0.23000000E+00           0.00000000E+00
  -0.22000000E+00           0.00000000E+00
  -0.21000000E+00           0.00000000E+00
  -0.20000000E+00           0.00000000E+00
  -0.19000000E+00           0.00000000E+00
  -0.18000000E+00           0.00000000E+00
  -0.17000000E+00           0.00000000E+00
  -0.16000000E+00           0.00000000E+00
  -0.15000000E+00           0.00000000E+00
  -0.14000000E+00           0.00000000E+00
  -0.13000000E+00           0.00000000E+00
  -0.12000000E+00           0.00000000E+00
  -0.11000000E+00           0.00000000E+00
  -0.10000000E+00           0.00000000E+00
  -0.90000000E-01           0.00000000E+00
  -0.80000000E-01           0.00000000E+00
  -0.70000000E-01           0.00000000E+00
  -0.60000000E-01           0.00000000E+00
  -0.50000000E-01           0.00000000E+00
  -0.40000000E-01           0.00000000E+00
  -0.30000000E-01           0.00000000E+00
  -0.20000000E-01           0.00000000E+00
  -0.10000000E-01           0.00000000E+00
   0.00000000E+00           0.19234921E-01
   0.10000000E-01           0.15429118E+00
   0.20000000E-01           0.30737698E+00
   0.30000000E-01           0.45854074E+00
   0.40000000E-01           0.60967037E+00
   0.50000000E-01           0.75552134E+00
   0.60000000E-01           0.89945511E+00
   0.70000000E-01           0.10389160E+01
   0.80000000E-01           0.11768698E+01
   0.90000000E-01           0.13045001E+01
   0.10000000E+00           0.14295265E+01
   0.11000000E+00           0.15472439E+01
   0.12000000E+00           0.16596413E+01
   0.13000000E+00           0.17638285E+01
   0.14000000E+00           0.18583989E+01
   0.15000000E+00           0.19485867E+01
   0.16000000E+00           0.20294612E+01
   0.17000000E+00           0.21030825E+01
   0.18000000E+00           0.21674603E+01
   0.19000000E+00           0.22243382E+01
   0.20000000E+00           0.22712720E+01
   0.21000000E+00           0.23104086E+01
   0.22000000E+00           0.23455776E+01
   0.23000000E+00           0.23679334E+01
   0.24000000E+00           0.23827877E+01
   0.25000000E+00           0.23908252E+01
   0.26000000E+00           0.23938414E+01
   0.27000000E+00           0.23858557E+01
   0.28000000E+00           0.23716939E+01
   0.29000000E+00           0.23522520E+01
   0.30000000E+00           0.23242227E+01
   0.31000000E+00           0.22914202E+01
   0.32000000E+00           0.22542157E+01
   0.33000000E+00           0.22110622E+01
   0.34000000E+00           0.21645567E+01
   0.35000000E+00           0.21128775E+01
   0.36000000E+00           0.20572968E+01
   0.37000000E+00           0.20002047E+01
   0.38000000E+00           0.19387067E+01
   0.39000000E+00           0.18740496E+01
   0.40000000E+00           0.18087362E+01
   0.41000000E+00           0.17407814E+01
   0.42000000E+00           0.16710977E+01
   0.43000000E+00           0.16037045E+01
   0.44000000E+00           0.15320537E+01
   0.45000000E+00           0.14626060E+01
   0.46000000E+00           0.13942165E+01
   0.47000000E+00           0.13251153E+01
   0.48000000E+00           0.12562630E+01
   0.49000000E+00           0.11902141E+01
   0.50000000E+00           0.11230802E+01
   0.51000000E+00           0.10589090E+01
   0.52000000E+00           0.99563051E+00
   0.53000000E+00           0.93454709E+00
   0.54000000E+00           0.87572134E+00
   0.55000000E+00           0.81958307E+00
   0.56000000E+00           0.76439506E+00
   0.57000000E+00           0.71180944E+00
   0.58000000E+00           0.66161702E+00
   0.59000000E+00           0.61440811E+00
   0.60000000E+00           0.56803501E+00
   0.61000000E+00           0.52498836E+00
   0.62000000E+00           0.48516014E+00
   0.63000000E+00           0.44538924E+00
   0.64000000E+00           0.40906323E+00
   0.65000000E+00           0.37496684E+00
   0.66000000E+00           0.34300344E+00
   0.67000000E+00           0.31332011E+00
   0.68000000E+00           0.28554727E+00
   0.69000000E+00           0.25954665E+00
   0.70000000E+00           0.23562213E+00
   0.71000000E+00           0.21364109E+00
   0.72000000E+00           0.19283316E+00
   0.73000000E+00           0.17433624E+00
   0.74000000E+00           0.15683783E+00
   0.75000000E+00           0.14091349E+00
   0.76000000E+00           0.12650247E+00
   0.77000000E+00           0.11324586E+00
   0.78000000E+00           0.10087381E+00
   0.79000000E+00           0.90126279E-01
   0.80000000E+00           0.80053086E-01
   0.81000000E+00           0.71084303E-01
   0.82000000E+00           0.62865079E-01
   0.83000000E+00           0.55563228E-01
   0.84000000E+00           0.49154674E-01
   0.85000000E+00           0.43044621E-01
   0.86000000E+00           0.38020370E-01
   0.87000000E+00           0.33292681E-01
   0.88000000E+00           0.29117284E-01
   0.89000000E+00           0.25488801E-01
   0.90000000E+00           0.22189771E-01
   0.91000000E+00           0.19204586E-01
   0.92000000E+00           0.16726543E-01
   0.93000000E+00           0.14494621E-01
   0.94000000E+00           0.12509612E-01
   0.95000000E+00           0.10760582E-01
   0.96000000E+00           0.93159612E-02
   0.97000000E+00           0.80076720E-02
   0.98000000E+00           0.67842152E-02
   0.99000000E+00           0.58217813E-02
   0.10000000E+01           0.49684303E-02
   0.10100000E+01           0.42232804E-02
   0.10200000E+01           0.35895944E-02
   0.10300000E+01           0.29920635E-02
   0.10400000E+01           0.25745150E-02
   0.10500000E+01           0.21458554E-02
   0.10600000E+01           0.18142857E-02
   0.10700000E+01           0.15159612E-02
   0.10800000E+01           0.12729277E-02
   0.10900000E+01           0.10410935E-02
   0.11000000E+01           0.87310406E-03
   0.11100000E+01           0.73298060E-03
   0.11200000E+01           0.60458554E-03
   0.11300000E+01           0.50485009E-03
   0.11400000E+01           0.40864198E-03
   0.11500000E+01           0.34118166E-03
   0.11600000E+01           0.26622575E-03
   0.11700000E+01           0.23007055E-03
   0.11800000E+01           0.18553792E-03
   0.11900000E+01           0.14911817E-03
   0.12000000E+01           0.11816578E-03
   0.12100000E+01           0.10114638E-03
   0.12200000E+01           0.80511464E-04
   0.12300000E+01           0.63580247E-04
   0.12400000E+01           0.54938272E-04
   0.12500000E+01           0.45238095E-04
   0.12600000E+01           0.37477954E-04
   0.12700000E+01           0.26102293E-04
   0.12800000E+01           0.22045855E-04
   0.12900000E+01           0.14902998E-04
   0.13000000E+01           0.10317460E-04
   0.13100000E+01           0.82010582E-05
   0.13200000E+01           0.94356261E-05
   0.13300000E+01           0.55555556E-05
   0.13400000E+01           0.43209877E-05
   0.13500000E+01           0.40564374E-05
   0.13600000E+01           0.28218695E-05
   0.13700000E+01           0.20282187E-05
   0.13800000E+01           0.22045855E-05
   0.13900000E+01           0.15873016E-05
   0.14000000E+01           0.20282187E-05
   0.14100000E+01           0.10582011E-05
   0.14200000E+01           0.35273369E-06
   0.14300000E+01           0.44091711E-06
   0.14400000E+01           0.44091711E-06
   0.14500000E+01           0.17636684E-06
   0.14600000E+01           0.88183422E-07
   0.14700000E+01           0.00000000E+00
   0.14800000E+01           0.88183422E-07
   0.14900000E+01           0.88183422E-07
   0.15000000E+01           0.17636684E-06
   0.15100000E+01           0.00000000E+00
   0.15200000E+01           0.88183422E-07
   0.15300000E+01           0.00000000E+00
   0.15400000E+01           0.00000000E+00
   0.15500000E+01           0.88183422E-07
   0.15600000E+01           0.00000000E+00
   0.15700000E+01           0.00000000E+00
   0.15800000E+01           0.00000000E+00
   0.15900000E+01           0.00000000E+00
   0.16000000E+01           0.00000000E+00
   0.16100000E+01           0.00000000E+00
   0.16200000E+01           0.00000000E+00
   0.16300000E+01           0.00000000E+00
   0.16400000E+01           0.00000000E+00
   0.16500000E+01           0.00000000E+00
   0.16600000E+01           0.00000000E+00
   0.16700000E+01           0.00000000E+00
   0.16800000E+01           0.00000000E+00
   0.16900000E+01           0.00000000E+00
   0.17000000E+01           0.00000000E+00
   0.17100000E+01           0.00000000E+00
   0.17200000E+01           0.00000000E+00
   0.17300000E+01           0.00000000E+00
   0.17400000E+01           0.00000000E+00
   0.17500000E+01           0.00000000E+00
   0.17600000E+01           0.88183422E-07
   0.17700000E+01           0.00000000E+00
   0.17800000E+01           0.00000000E+00
   0.17900000E+01           0.00000000E+00
   0.18000000E+01           0.00000000E+00
   0.18100000E+01           0.00000000E+00
   0.18200000E+01           0.00000000E+00
   0.18300000E+01           0.00000000E+00
   0.18400000E+01           0.00000000E+00
   0.18500000E+01           0.00000000E+00
   0.18600000E+01           0.00000000E+00
   0.18700000E+01           0.00000000E+00
   0.18800000E+01           0.00000000E+00
   0.18900000E+01           0.00000000E+00
   0.19000000E+01           0.00000000E+00
   0.19100000E+01           0.00000000E+00
   0.19200000E+01           0.00000000E+00
   0.19300000E+01           0.00000000E+00
   0.19400000E+01           0.00000000E+00
   0.19500000E+01           0.00000000E+00
   0.19600000E+01           0.00000000E+00
   0.19700000E+01           0.00000000E+00
   0.19800000E+01           0.00000000E+00
   0.19900000E+01           0.00000000E+00
   0.20000000E+01           0.00000000E+00
 #T=     7.0000
  -0.20000000E+01           0.00000000E+00
  -0.19900000E+01           0.00000000E+00
  -0.19800000E+01           0.00000000E+00
  -0.19700000E+01           0.00000000E+00
  -0.19600000E+01           0.00000000E+00
  -0.19500000E+01           0.00000000E+00
  -0.19400000E+01           0.00000000E+00
  -0.19300000E+01           0.00000000E+00
  -0.19200000E+01           0.00000000E+00
  -0.19100000E+01           0.00000000E+00
  -0.19000000E+01           0.00000000E+00
  -0.18900000E+01           0.00000000E+00
  -0.18800000E+01           0.00000000E+00
  -0.18700000E+01           0.00000000E+00
  -0.18600000E+01           0.00000000E+00
  -0.18500000E+01           0.00000000E+00
  -0.18400000E+01           0.00000000E+00
  -0.18300000E+01           0.00000000E+00
  -0.18200000E+01           0.00000000E+00
  -0.18100000E+01           0.00000000E+00
  -0.18000000E+01           0.00000000E+00
  -0.17900000E+01           0.00000000E+00
  -0.17800000E+01           0.00000000E+00
  -0.17700000E+01           0.00000000E+00
  -0.17600000E+01           0.00000000E+00
  -0.17500000E+01           0.00000000E+00
  -0.17400000E+01           0.00000000E+00
  -0.17300000E+01           0.00000000E+00
  -0.17200000E+01           0.00000000E+00
  -0.17100000E+01           0.00000000E+00
  -0.17000000E+01           0.00000000E+00
  -0.16900000E+01           0.00000000E+00
  -0.16800000E+01           0.00000000E+00
  -0.16700000E+01           0.00000000E+00
  -0.16600000E+01           0.00000000E+00
  -0.16500000E+01           0.00000000E+00
  -0.16400000E+01           0.00000000E+00
  -0.16300000E+01           0.00000000E+00
  -0.16200000E+01           0.00000000E+00
  -0.16100000E+01           0.00000000E+00
  -0.16000000E+01           0.00000000E+00
  -0.15900000E+01           0.00000000E+00
  -0.15800000E+01           0.00000000E+00
  -0.15700000E+01           0.00000000E+00
  -0.15600000E+01           0.00000000E+00
  -0.15500000E+01           0.00000000E+00
  -0.15400000E+01           0.00000000E+00
  -0.15300000E+01           0.00000000E+00
  -0.15200000E+01           0.00000000E+00
  -0.15100000E+01           0.00000000E+00
  -0.15000000E+01           0.00000000E+00
  -0.14900000E+01           0.00000000E+00
  -0.14800000E+01           0.00000000E+00
  -0.14700000E+01           0.00000000E+00
  -0.14600000E+01           0.00000000E+00
  -0.14500000E+01           0.00000000E+00
  -0.14400000E+01           0.00000000E+00
  -0.14300000E+01           0.00000000E+00
  -0.14200000E+01           0.00000000E+00
  -0.14100000E+01           0.00000000E+00
  -0.14000000E+01           0.00000000E+00
  -0.13900000E+01           0.00000000E+00
  -0.13800000E+01           0.00000000E+00
  -0.13700000E+01           0.00000000E+00
  -0.13600000E+01           0.00000000E+00
  -0.13500000E+01           0.00000000E+00
  -0.13400000E+01           0.00000000E+00
  -0.13300000E+01           0.00000000E+00
  -0.13200000E+01           0.00000000E+00
  -0.13100000E+01           0.00000000E+00
  -0.13000000E+01           0.00000000E+00
  -0.12900000E+01           0.00000000E+00
  -0.12800000E+01           0.00000000E+00
  -0.12700000E+01           0.00000000E+00
  -0.12600000E+01           0.00000000E+00
  -0.12500000E+01           0.00000000E+00
  -0.12400000E+01           0.00000000E+00
  -0.12300000E+01           0.00000000E+00
  -0.12200000E+01           0.00000000E+00
  -0.12100000E+01           0.00000000E+00
  -0.12000000E+01           0.00000000E+00
  -0.11900000E+01           0.00000000E+00
  -0.11800000E+01           0.00000000E+00
  -0.11700000E+01           0.00000000E+00
  -0.11600000E+01           0.00000000E+00
  -0.11500000E+01           0.00000000E+00
  -0.11400000E+01           0.00000000E+00
  -0.11300000E+01           0.00000000E+00
  -0.11200000E+01           0.00000000E+00
  -0.11100000E+01           0.00000000E+00
  -0.11000000E+01           0.00000000E+00
  -0.10900000E+01           0.00000000E+00
  -0.10800000E+01           0.00000000E+00
  -0.10700000E+01           0.00000000E+00
  -0.10600000E+01           0.00000000E+00
  -0.10500000E+01           0.00000000E+00
  -0.10400000E+01           0.00000000E+00
  -0.10300000E+01           0.00000000E+00
  -0.10200000E+01           0.00000000E+00
  -0.10100000E+01           0.00000000E+00
  -0.10000000E+01           0.00000000E+00
  -0.99000000E+00           0.00000000E+00
  -0.98000000E+00           0.00000000E+00
  -0.97000000E+00           0.00000000E+00
  -0.96000000E+00           0.00000000E+00
  -0.95000000E+00           0.00000000E+00
  -0.94000000E+00           0.00000000E+00
  -0.93000000E+00           0.00000000E+00
  -0.92000000E+00           0.00000000E+00
  -0.91000000E+00           0.00000000E+00
  -0.90000000E+00           0.00000000E+00
  -0.89000000E+00           0.00000000E+00
  -0.88000000E+00           0.00000000E+00
  -0.87000000E+00           0.00000000E+00
  -0.86000000E+00           0.00000000E+00
  -0.85000000E+00           0.00000000E+00
  -0.84000000E+00           0.00000000E+00
  -0.83000000E+00           0.00000000E+00
  -0.82000000E+00           0.00000000E+00
  -0.81000000E+00           0.00000000E+00
  -0.80000000E+00           0.00000000E+00
  -0.79000000E+00           0.00000000E+00
  -0.78000000E+00           0.00000000E+00
  -0.77000000E+00           0.00000000E+00
  -0.76000000E+00           0.00000000E+00
  -0.75000000E+00           0.00000000E+00
  -0.74000000E+00           0.00000000E+00
  -0.73000000E+00           0.00000000E+00
  -0.72000000E+00           0.00000000E+00
  -0.71000000E+00           0.00000000E+00
  -0.70000000E+00           0.00000000E+00
  -0.69000000E+00           0.00000000E+00
  -0.68000000E+00           0.00000000E+00
  -0.67000000E+00           0.00000000E+00
  -0.66000000E+00           0.00000000E+00
  -0.65000000E+00           0.00000000E+00
  -0.64000000E+00           0.00000000E+00
  -0.63000000E+00           0.00000000E+00
  -0.62000000E+00           0.00000000E+00
  -0.61000000E+00           0.00000000E+00
  -0.60000000E+00           0.00000000E+00
  -0.59000000E+00           0.00000000E+00
  -0.58000000E+00           0.00000000E+00
  -0.57000000E+00           0.00000000E+00
  -0.56000000E+00           0.00000000E+00
  -0.55000000E+00           0.00000000E+00
  -0.54000000E+00           0.00000000E+00
  -0.53000000E+00           0.00000000E+00
  -0.52000000E+00           0.00000000E+00
  -0.51000000E+00           0.00000000E+00
  -0.50000000E+00           0.00000000E+00
  -0.49000000E+00           0.00000000E+00
  -0.48000000E+00           0.00000000E+00
  -0.47000000E+00           0.00000000E+00
  -0.46000000E+00           0.00000000E+00
  -0.45000000E+00           0.00000000E+00
  -0.44000000E+00           0.00000000E+00
  -0.43000000E+00           0.00000000E+00
  -0.42000000E+00           0.00000000E+00
  -0.41000000E+00           0.00000000E+00
  -0.40000000E+00           0.00000000E+00
  -0.39000000E+00           0.00000000E+00
  -0.38000000E+00           0.00000000E+00
  -0.37000000E+00           0.00000000E+00
  -0.36000000E+00           0.00000000E+00
  -0.35000000E+00           0.00000000E+00
  -0.34000000E+00           0.00000000E+00
  -0.33000000E+00           0.00000000E+00
  -0.32000000E+00           0.00000000E+00
  -0.31000000E+00           0.00000000E+00
  -0.30000000E+00           0.00000000E+00
  -0.29000000E+00           0.00000000E+00
  -0.28000000E+00           0.00000000E+00
  -0.27000000E+00           0.00000000E+00
  -0.26000000E+00           0.00000000E+00
  -0.25000000E+00           0.00000000E+00
  -0.24000000E+00           0.00000000E+00
  -0.23000000E+00           0.00000000E+00
  -0.22000000E+00           0.00000000E+00
  -0.21000000E+00           0.00000000E+00
  -0.20000000E+00           0.00000000E+00
  -0.19000000E+00           0.00000000E+00
  -0.18000000E+00           0.00000000E+00
  -0.17000000E+00           0.00000000E+00
  -0.16000000E+00           0.00000000E+00
  -0.15000000E+00           0.00000000E+00
  -0.14000000E+00           0.00000000E+00
  -0.13000000E+00           0.00000000E+00
  -0.12000000E+00           0.00000000E+00
  -0.11000000E+00           0.00000000E+00
  -0.10000000E+00           0.00000000E+00
  -0.90000000E-01           0.00000000E+00
  -0.80000000E-01           0.00000000E+00
  -0.70000000E-01           0.00000000E+00
  -0.60000000E-01           0.00000000E+00
  -0.50000000E-01           0.00000000E+00
  -0.40000000E-01           0.00000000E+00
  -0.30000000E-01           0.00000000E+00
  -0.20000000E-01           0.00000000E+00
  -0.10000000E-01           0.00000000E+00
   0.00000000E+00           0.16492152E-01
   0.10000000E-01           0.13125926E+00
   0.20000000E-01           0.26186852E+00
   0.30000000E-01           0.39178386E+00
   0.40000000E-01           0.52077822E+00
   0.50000000E-01           0.64759339E+00
   0.60000000E-01           0.77001332E+00
   0.70000000E-01           0.89191605E+00
   0.80000000E-01           0.10098058E+01
   0.90000000E-01           0.11221485E+01
   0.10000000E+00           0.12310015E+01
   0.11000000E+00           0.13350641E+01
   0.12000000E+00           0.14364222E+01
   0.13000000E+00           0.15303811E+01
   0.14000000E+00           0.16188101E+01
   0.15000000E+00           0.17034657E+01
   0.16000000E+00           0.17797302E+01
   0.17000000E+00           0.18524815E+01
   0.18000000E+00           0.19174437E+01
   0.19000000E+00           0.19771399E+01
   0.20000000E+00           0.20262354E+01
   0.21000000E+00           0.20734273E+01
   0.22000000E+00           0.21108745E+01
   0.23000000E+00           0.21448299E+01
   0.24000000E+00           0.21720222E+01
   0.25000000E+00           0.21883571E+01
   0.26000000E+00           0.22048165E+01
   0.27000000E+00           0.22106828E+01
   0.28000000E+00           0.22110641E+01
   0.29000000E+00           0.22082999E+01
   0.30000000E+00           0.21959356E+01
   0.31000000E+00           0.21825513E+01
   0.32000000E+00           0.21599523E+01
   0.33000000E+00           0.21364724E+01
   0.34000000E+00           0.21057470E+01
   0.35000000E+00           0.20713626E+01
   0.36000000E+00           0.20366090E+01
   0.37000000E+00           0.19932571E+01
   0.38000000E+00           0.19487779E+01
   0.39000000E+00           0.19018226E+01
   0.40000000E+00           0.18534717E+01
   0.41000000E+00           0.17996322E+01
   0.42000000E+00           0.17483327E+01
   0.43000000E+00           0.16894529E+01
   0.44000000E+00           0.16317202E+01
   0.45000000E+00           0.15744613E+01
   0.46000000E+00           0.15145531E+01
   0.47000000E+00           0.14561943E+01
   0.48000000E+00           0.13951033E+01
   0.49000000E+00           0.13362852E+01
   0.50000000E+00           0.12769965E+01
   0.51000000E+00           0.12178923E+01
   0.52000000E+00           0.11599822E+01
   0.53000000E+00           0.11016326E+01
   0.54000000E+00           0.10471161E+01
   0.55000000E+00           0.99046711E+00
   0.56000000E+00           0.93642619E+00
   0.57000000E+00           0.88351561E+00
   0.58000000E+00           0.83250353E+00
   0.59000000E+00           0.78223307E+00
   0.60000000E+00           0.73532063E+00
   0.61000000E+00           0.68931817E+00
   0.62000000E+00           0.64463113E+00
   0.63000000E+00           0.60238439E+00
   0.64000000E+00           0.56237540E+00
   0.65000000E+00           0.52275688E+00
   0.66000000E+00           0.48572698E+00
   0.67000000E+00           0.45050556E+00
   0.68000000E+00           0.41734982E+00
   0.69000000E+00           0.38557169E+00
   0.70000000E+00           0.35580723E+00
   0.71000000E+00           0.32799136E+00
   0.72000000E+00           0.30130961E+00
   0.73000000E+00           0.27688131E+00
   0.74000000E+00           0.25346958E+00
   0.75000000E+00           0.23240150E+00
   0.76000000E+00           0.21228157E+00
   0.77000000E+00           0.19311093E+00
   0.78000000E+00           0.17576966E+00
   0.79000000E+00           0.16012707E+00
   0.80000000E+00           0.14517063E+00
   0.81000000E+00           0.13128554E+00
   0.82000000E+00           0.11860018E+00
   0.83000000E+00           0.10726243E+00
   0.84000000E+00           0.96728836E-01
   0.85000000E+00           0.86588624E-01
   0.86000000E+00           0.78040653E-01
   0.87000000E+00           0.69688360E-01
   0.88000000E+00           0.62618783E-01
   0.89000000E+00           0.55688713E-01
   0.90000000E+00           0.49505820E-01
   0.91000000E+00           0.43962698E-01
   0.92000000E+00           0.39208730E-01
   0.93000000E+00           0.34636067E-01
   0.94000000E+00           0.30665079E-01
   0.95000000E+00           0.27030159E-01
   0.96000000E+00           0.23761111E-01
   0.97000000E+00           0.21008818E-01
   0.98000000E+00           0.18381922E-01
   0.99000000E+00           0.16035626E-01
   0.10000000E+01           0.14160847E-01
   0.10100000E+01           0.12342416E-01
   0.10200000E+01           0.10746561E-01
   0.10300000E+01           0.93425926E-02
   0.10400000E+01           0.80346561E-02
   0.10500000E+01           0.70235450E-02
   0.10600000E+01           0.60341270E-02
   0.10700000E+01           0.51946208E-02
   0.10800000E+01           0.44466490E-02
   0.10900000E+01           0.38546737E-02
   0.11000000E+01           0.32654321E-02
   0.11100000E+01           0.27897707E-02
   0.11200000E+01           0.23956790E-02
   0.11300000E+01           0.20360670E-02
   0.11400000E+01           0.17037037E-02
   0.11500000E+01           0.14607584E-02
   0.11600000E+01           0.12492063E-02
   0.11700000E+01           0.10408289E-02
   0.11800000E+01           0.89603175E-03
   0.11900000E+01           0.75502646E-03
   0.12000000E+01           0.62936508E-03
   0.12100000E+01           0.52539683E-03
   0.12200000E+01           0.42839506E-03
   0.12300000E+01           0.34929453E-03
   0.12400000E+01           0.28641975E-03
   0.12500000E+01           0.25361552E-03
   0.12600000E+01           0.20705467E-03
   0.12700000E+01           0.16948854E-03
   0.12800000E+01           0.14964727E-03
   0.12900000E+01           0.11543210E-03
   0.13000000E+01           0.91446208E-04
   0.13100000E+01           0.73809524E-04
   0.13200000E+01           0.65432099E-04
   0.13300000E+01           0.53527337E-04
   0.13400000E+01           0.42063492E-04
   0.13500000E+01           0.30158730E-04
   0.13600000E+01           0.23368607E-04
   0.13700000E+01           0.21957672E-04
   0.13800000E+01           0.14902998E-04
   0.13900000E+01           0.15608466E-04
   0.14000000E+01           0.13580247E-04
   0.14100000E+01           0.78483245E-05
   0.14200000E+01           0.72310406E-05
   0.14300000E+01           0.51146384E-05
   0.14400000E+01           0.40564374E-05
   0.14500000E+01           0.27336861E-05
   0.14600000E+01           0.22927690E-05
   0.14700000E+01           0.21164021E-05
   0.14800000E+01           0.22927690E-05
   0.14900000E+01           0.14991182E-05
   0.15000000E+01           0.12345679E-05
   0.15100000E+01           0.44091711E-06
   0.15200000E+01           0.52910053E-06
   0.15300000E+01           0.26455026E-06
   0.15400000E+01           0.26455026E-06
   0.15500000E+01           0.88183422E-07
   0.15600000E+01           0.26455026E-06
   0.15700000E+01           0.17636684E-06
   0.15800000E+01           0.26455026E-06
   0.15900000E+01           0.88183422E-07
   0.16000000E+01           0.00000000E+00
   0.16100000E+01           0.88183422E-07
   0.16200000E+01           0.00000000E+00
   0.16300000E+01           0.00000000E+00
   0.16400000E+01           0.00000000E+00
   0.16500000E+01           0.00000000E+00
   0.16600000E+01           0.00000000E+00
   0.16700000E+01           0.00000000E+00
   0.16800000E+01           0.00000000E+00
   0.16900000E+01           0.00000000E+00
   0.17000000E+01           0.00000000E+00
   0.17100000E+01           0.00000000E+00
   0.17200000E+01           0.00000000E+00
   0.17300000E+01           0.00000000E+00
   0.17400000E+01           0.00000000E+00
   0.17500000E+01           0.00000000E+00
   0.17600000E+01           0.00000000E+00
   0.17700000E+01           0.00000000E+00
   0.17800000E+01           0.00000000E+00
   0.17900000E+01           0.00000000E+00
   0.18000000E+01           0.00000000E+00
   0.18100000E+01           0.00000000E+00
   0.18200000E+01           0.00000000E+00
   0.18300000E+01           0.00000000E+00
   0.18400000E+01           0.00000000E+00
   0.18500000E+01           0.00000000E+00
   0.18600000E+01           0.00000000E+00
   0.18700000E+01           0.00000000E+00
   0.18800000E+01           0.00000000E+00
   0.18900000E+01           0.00000000E+00
   0.19000000E+01           0.00000000E+00
   0.19100000E+01           0.00000000E+00
   0.19200000E+01           0.00000000E+00
   0.19300000E+01           0.00000000E+00
   0.19400000E+01           0.00000000E+00
   0.19500000E+01           0.00000000E+00
   0.19600000E+01           0.00000000E+00
   0.19700000E+01           0.00000000E+00
   0.19800000E+01           0.00000000E+00
   0.19900000E+01           0.00000000E+00
   0.20000000E+01           0.00000000E+00
 #T=     8.0000
  -0.20000000E+01           0.00000000E+00
  -0.19900000E+01           0.00000000E+00
  -0.19800000E+01           0.00000000E+00
  -0.19700000E+01           0.00000000E+00
  -0.19600000E+01           0.00000000E+00
  -0.19500000E+01           0.00000000E+00
  -0.19400000E+01           0.00000000E+00
  -0.19300000E+01           0.00000000E+00
  -0.19200000E+01           0.00000000E+00
  -0.19100000E+01           0.00000000E+00
  -0.19000000E+01           0.00000000E+00
  -0.18900000E+01           0.00000000E+00
  -0.18800000E+01           0.00000000E+00
  -0.18700000E+01           0.00000000E+00
  -0.18600000E+01           0.00000000E+00
  -0.18500000E+01           0.00000000E+00
  -0.18400000E+01           0.00000000E+00
  -0.18300000E+01           0.00000000E+00
  -0.18200000E+01           0.00000000E+00
  -0.18100000E+01           0.00000000E+00
  -0.18000000E+01           0.00000000E+00
  -0.17900000E+01           0.00000000E+00
  -0.17800000E+01           0.00000000E+00
  -0.17700000E+01           0.00000000E+00
  -0.17600000E+01           0.00000000E+00
  -0.17500000E+01           0.00000000E+00
  -0.17400000E+01           0.00000000E+00
  -0.17300000E+01           0.00000000E+00
  -0.17200000E+01           0.00000000E+00
  -0.17100000E+01           0.00000000E+00
  -0.17000000E+01           0.00000000E+00
  -0.16900000E+01           0.00000000E+00
  -0.16800000E+01           0.00000000E+00
  -0.16700000E+01           0.00000000E+00
  -0.16600000E+01           0.00000000E+00
  -0.16500000E+01           0.00000000E+00
  -0.16400000E+01           0.00000000E+00
  -0.16300000E+01           0.00000000E+00
  -0.16200000E+01           0.00000000E+00
  -0.16100000E+01           0.00000000E+00
  -0.16000000E+01           0.00000000E+00
  -0.15900000E+01           0.00000000E+00
  -0.15800000E+01           0.00000000E+00
  -0.15700000E+01           0.00000000E+00
  -0.15600000E+01           0.00000000E+00
  -0.15500000E+01           0.00000000E+00
  -0.15400000E+01           0.00000000E+00
  -0.15300000E+01           0.00000000E+00
  -0.15200000E+01           0.00000000E+00
  -0.15100000E+01           0.00000000E+00
  -0.15000000E+01           0.00000000E+00
  -0.14900000E+01           0.00000000E+00
  -0.14800000E+01           0.00000000E+00
  -0.14700000E+01           0.00000000E+00
  -0.14600000E+01           0.00000000E+00
  -0.14500000E+01           0.00000000E+00
  -0.14400000E+01           0.00000000E+00
  -0.14300000E+01           0.00000000E+00
  -0.14200000E+01           0.00000000E+00
  -0.14100000E+01           0.00000000E+00
  -0.14000000E+01           0.00000000E+00
  -0.13900000E+01           0.00000000E+00
  -0.13800000E+01           0.00000000E+00
  -0.13700000E+01           0.00000000E+00
  -0.13600000E+01           0.00000000E+00
  -0.13500000E+01           0.00000000E+00
  -0.13400000E+01           0.00000000E+00
  -0.13300000E+01           0.00000000E+00
  -0.13200000E+01           0.00000000E+00
  -0.13100000E+01           0.00000000E+00
  -0.13000000E+01           0.00000000E+00
  -0.12900000E+01           0.00000000E+00
  -0.12800000E+01           0.00000000E+00
  -0.12700000E+01           0.00000000E+00
  -0.12600000E+01           0.00000000E+00
  -0.12500000E+01           0.00000000E+00
  -0.12400000E+01           0.00000000E+00
  -0.12300000E+01           0.00000000E+00
  -0.12200000E+01           0.00000000E+00
  -0.12100000E+01           0.00000000E+00
  -0.12000000E+01           0.00000000E+00
  -0.11900000E+01           0.00000000E+00
  -0.11800000E+01           0.00000000E+00
  -0.11700000E+01           0.00000000E+00
  -0.11600000E+01           0.00000000E+00
  -0.11500000E+01           0.00000000E+00
  -0.11400000E+01           0.00000000E+00
  -0.11300000E+01           0.00000000E+00
  -0.11200000E+01           0.00000000E+00
  -0.11100000E+01           0.00000000E+00
  -0.11000000E+01           0.00000000E+00
  -0.10900000E+01           0.00000000E+00
  -0.10800000E+01           0.00000000E+00
  -0.10700000E+01           0.00000000E+00
  -0.10600000E+01           0.00000000E+00
  -0.10500000E+01           0.00000000E+00
  -0.10400000E+01           0.00000000E+00
  -0.10300000E+01           0.00000000E+00
  -0.10200000E+01           0.00000000E+00
  -0.10100000E+01           0.00000000E+00
  -0.10000000E+01           0.00000000E+00
  -0.99000000E+00           0.00000000E+00
  -0.98000000E+00           0.00000000E+00
  -0.97000000E+00           0.00000000E+00
  -0.96000000E+00           0.00000000E+00
  -0.95000000E+00           0.00000000E+00
  -0.94000000E+00           0.00000000E+00
  -0.93000000E+00           0.00000000E+00
  -0.92000000E+00           0.00000000E+00
  -0.91000000E+00           0.00000000E+00
  -0.90000000E+00           0.00000000E+00
  -0.89000000E+00           0.00000000E+00
  -0.88000000E+00           0.00000000E+00
  -0.87000000E+00           0.00000000E+00
  -0.86000000E+00           0.00000000E+00
  -0.85000000E+00           0.00000000E+00
  -0.84000000E+00           0.00000000E+00
  -0.83000000E+00           0.00000000E+00
  -0.82000000E+00           0.00000000E+00
  -0.81000000E+00           0.00000000E+00
  -0.80000000E+00           0.00000000E+00
  -0.79000000E+00           0.00000000E+00
  -0.78000000E+00           0.00000000E+00
  -0.77000000E+00           0.00000000E+00
  -0.76000000E+00           0.00000000E+00
  -0.75000000E+00           0.00000000E+00
  -0.74000000E+00           0.00000000E+00
  -0.73000000E+00           0.00000000E+00
  -0.72000000E+00           0.00000000E+00
  -0.71000000E+00           0.00000000E+00
  -0.70000000E+00           0.00000000E+00
  -0.69000000E+00           0.00000000E+00
  -0.68000000E+00           0.00000000E+00
  -0.67000000E+00           0.00000000E+00
  -0.66000000E+00           0.00000000E+00
  -0.65000000E+00           0.00000000E+00
  -0.64000000E+00           0.00000000E+00
  -0.63000000E+00           0.00000000E+00
  -0.62000000E+00           0.00000000E+00
  -0.61000000E+00           0.00000000E+00
  -0.60000000E+00           0.00000000E+00
  -0.59000000E+00           0.00000000E+00
  -0.58000000E+00           0.00000000E+00
  -0.57000000E+00           0.00000000E+00
  -0.56000000E+00           0.00000000E+00
  -0.55000000E+00           0.00000000E+00
  -0.54000000E+00           0.00000000E+00
  -0.53000000E+00           0.00000000E+00
  -0.52000000E+00           0.00000000E+00
  -0.51000000E+00           0.00000000E+00
  -0.50000000E+00           0.00000000E+00
  -0.49000000E+00           0.00000000E+00
  -0.48000000E+00           0.00000000E+00
  -0.47000000E+00           0.00000000E+00
  -0.46000000E+00           0.00000000E+00
  -0.45000000E+00           0.00000000E+00
  -0.44000000E+00           0.00000000E+00
  -0.43000000E+00           0.00000000E+00
  -0.42000000E+00           0.00000000E+00
  -0.41000000E+00           0.00000000E+00
  -0.40000000E+00           0.00000000E+00
  -0.39000000E+00           0.00000000E+00
  -0.38000000E+00           0.00000000E+00
  -0.37000000E+00           0.00000000E+00
  -0.36000000E+00           0.00000000E+00
  -0.35000000E+00           0.00000000E+00
  -0.34000000E+00           0.00000000E+00
  -0.33000000E+00           0.00000000E+00
  -0.32000000E+00           0.00000000E+00
  -0.31000000E+00           0.00000000E+00
  -0.30000000E+00           0.00000000E+00
  -0.29000000E+00           0.00000000E+00
  -0.28000000E+00           0.00000000E+00
  -0.27000000E+00           0.00000000E+00
  -0.26000000E+00           0.00000000E+00
  -0.25000000E+00           0.00000000E+00
  -0.24000000E+00           0.00000000E+00
  -0.23000000E+00           0.00000000E+00
  -0.22000000E+00           0.00000000E+00
  -0.21000000E+00           0.00000000E+00
  -0.20000000E+00           0.00000000E+00
  -0.19000000E+00           0.00000000E+00
  -0.18000000E+00           0.00000000E+00
  -0.17000000E+00           0.00000000E+00
  -0.16000000E+00           0.00000000E+00
  -0.15000000E+00           0.00000000E+00
  -0.14000000E+00           0.00000000E+00
  -0.13000000E+00           0.00000000E+00
  -0.12000000E+00           0.00000000E+00
  -0.11000000E+00           0.00000000E+00
  -0.10000000E+00           0.00000000E+00
  -0.90000000E-01           0.00000000E+00
  -0.80000000E-01           0.00000000E+00
  -0.70000000E-01           0.00000000E+00
  -0.60000000E-01           0.00000000E+00
  -0.50000000E-01           0.00000000E+00
  -0.40000000E-01           0.00000000E+00
  -0.30000000E-01           0.00000000E+00
  -0.20000000E-01           0.00000000E+00
  -0.10000000E-01           0.00000000E+00
   0.00000000E+00           0.14161376E-01
   0.10000000E-01           0.11435132E+00
   0.20000000E-01           0.22857822E+00
   0.30000000E-01           0.34062522E+00
   0.40000000E-01           0.45317892E+00
   0.50000000E-01           0.56327399E+00
   0.60000000E-01           0.67206049E+00
   0.70000000E-01           0.77743757E+00
   0.80000000E-01           0.88154683E+00
   0.90000000E-01           0.98306799E+00
   0.10000000E+00           0.10804923E+01
   0.11000000E+00           0.11735541E+01
   0.12000000E+00           0.12653763E+01
   0.13000000E+00           0.13508598E+01
   0.14000000E+00           0.14337636E+01
   0.15000000E+00           0.15095122E+01
   0.16000000E+00           0.15844178E+01
   0.17000000E+00           0.16522602E+01
   0.18000000E+00           0.17160252E+01
   0.19000000E+00           0.17730863E+01
   0.20000000E+00           0.18258877E+01
   0.21000000E+00           0.18740101E+01
   0.22000000E+00           0.19161567E+01
   0.23000000E+00           0.19529857E+01
   0.24000000E+00           0.19834586E+01
   0.25000000E+00           0.20087839E+01
   0.26000000E+00           0.20308528E+01
   0.27000000E+00           0.20456326E+01
   0.28000000E+00           0.20590573E+01
   0.29000000E+00           0.20632392E+01
   0.30000000E+00           0.20636019E+01
   0.31000000E+00           0.20618140E+01
   0.32000000E+00           0.20536693E+01
   0.33000000E+00           0.20409071E+01
   0.34000000E+00           0.20237947E+01
   0.35000000E+00           0.20021927E+01
   0.36000000E+00           0.19785301E+01
   0.37000000E+00           0.19493940E+01
   0.38000000E+00           0.19186028E+01
   0.39000000E+00           0.18860188E+01
   0.40000000E+00           0.18491108E+01
   0.41000000E+00           0.18090509E+01
   0.42000000E+00           0.17682191E+01
   0.43000000E+00           0.17244806E+01
   0.44000000E+00           0.16796335E+01
   0.45000000E+00           0.16310148E+01
   0.46000000E+00           0.15827793E+01
   0.47000000E+00           0.15321162E+01
   0.48000000E+00           0.14802692E+01
   0.49000000E+00           0.14332565E+01
   0.50000000E+00           0.13795461E+01
   0.51000000E+00           0.13290378E+01
   0.52000000E+00           0.12763705E+01
   0.53000000E+00           0.12245062E+01
   0.54000000E+00           0.11726397E+01
   0.55000000E+00           0.11201284E+01
   0.56000000E+00           0.10706002E+01
   0.57000000E+00           0.10198180E+01
   0.58000000E+00           0.97163016E+00
   0.59000000E+00           0.92162266E+00
   0.60000000E+00           0.87450697E+00
   0.61000000E+00           0.82977390E+00
   0.62000000E+00           0.78528104E+00
   0.63000000E+00           0.74118510E+00
   0.64000000E+00           0.69850908E+00
   0.65000000E+00           0.65688616E+00
   0.66000000E+00           0.61890247E+00
   0.67000000E+00           0.58090829E+00
   0.68000000E+00           0.54449259E+00
   0.69000000E+00           0.50986287E+00
   0.70000000E+00           0.47650203E+00
   0.71000000E+00           0.44427972E+00
   0.72000000E+00           0.41411252E+00
   0.73000000E+00           0.38477081E+00
   0.74000000E+00           0.35702549E+00
   0.75000000E+00           0.33183007E+00
   0.76000000E+00           0.30702981E+00
   0.77000000E+00           0.28395714E+00
   0.78000000E+00           0.26172769E+00
   0.79000000E+00           0.24170379E+00
   0.80000000E+00           0.22219568E+00
   0.81000000E+00           0.20447055E+00
   0.82000000E+00           0.18731931E+00
   0.83000000E+00           0.17167284E+00
   0.84000000E+00           0.15703563E+00
   0.85000000E+00           0.14346940E+00
   0.86000000E+00           0.13073060E+00
   0.87000000E+00           0.11898845E+00
   0.88000000E+00           0.10820168E+00
   0.89000000E+00           0.98175397E-01
   0.90000000E+00           0.88762963E-01
   0.91000000E+00           0.80461199E-01
   0.92000000E+00           0.72632628E-01
   0.93000000E+00           0.65644092E-01
   0.94000000E+00           0.59104409E-01
   0.95000000E+00           0.52960053E-01
   0.96000000E+00           0.47529718E-01
   0.97000000E+00           0.42696649E-01
   0.98000000E+00           0.38000000E-01
   0.99000000E+00           0.34071781E-01
   0.10000000E+01           0.30266226E-01
   0.10100000E+01           0.26898589E-01
   0.10200000E+01           0.23963404E-01
   0.10300000E+01           0.21272487E-01
   0.10400000E+01           0.18800794E-01
   0.10500000E+01           0.16602293E-01
   0.10600000E+01           0.14661993E-01
   0.10700000E+01           0.12932099E-01
   0.10800000E+01           0.11323457E-01
   0.10900000E+01           0.99445326E-02
   0.11000000E+01           0.87032628E-02
   0.11100000E+01           0.75761905E-02
   0.11200000E+01           0.66298942E-02
   0.11300000E+01           0.57969136E-02
   0.11400000E+01           0.49871252E-02
   0.11500000E+01           0.43890653E-02
   0.11600000E+01           0.37953263E-02
   0.11700000E+01           0.32533510E-02
   0.11800000E+01           0.28136684E-02
   0.11900000E+01           0.24005291E-02
   0.12000000E+01           0.20880952E-02
   0.12100000E+01           0.17634921E-02
   0.12200000E+01           0.15112875E-02
   0.12300000E+01           0.13014109E-02
   0.12400000E+01           0.11000000E-02
   0.12500000E+01           0.94700176E-03
   0.12600000E+01           0.77962963E-03
   0.12700000E+01           0.67125220E-03
   0.12800000E+01           0.57275132E-03
   0.12900000E+01           0.48156966E-03
   0.13000000E+01           0.39982363E-03
   0.13100000E+01           0.33977072E-03
   0.13200000E+01           0.28518519E-03
   0.13300000E+01           0.23077601E-03
   0.13400000E+01           0.19320988E-03
   0.13500000E+01           0.16331570E-03
   0.13600000E+01           0.13659612E-03
   0.13700000E+01           0.10555556E-03
   0.13800000E+01           0.93650794E-04
   0.13900000E+01           0.76631393E-04
   0.14000000E+01           0.61287478E-04
   0.14100000E+01           0.50440917E-04
   0.14200000E+01           0.43033510E-04
   0.14300000E+01           0.33597884E-04
   0.14400000E+01           0.26807760E-04
   0.14500000E+01           0.23721340E-04
   0.14600000E+01           0.16049383E-04
   0.14700000E+01           0.16049383E-04
   0.14800000E+01           0.11111111E-04
   0.14900000E+01           0.89065256E-05
   0.15000000E+01           0.68783069E-05
   0.15100000E+01           0.72310406E-05
   0.15200000E+01           0.43209877E-05
   0.15300000E+01           0.38800705E-05
   0.15400000E+01           0.26455026E-05
   0.15500000E+01           0.27336861E-05
   0.15600000E+01           0.16754850E-05
   0.15700000E+01           0.15873016E-05
   0.15800000E+01           0.12345679E-05
   0.15900000E+01           0.35273369E-06
   0.16000000E+01           0.52910053E-06
   0.16100000E+01           0.26455026E-06
   0.16200000E+01           0.35273369E-06
   0.16300000E+01           0.44091711E-06
   0.16400000E+01           0.35273369E-06
   0.16500000E+01           0.44091711E-06
   0.16600000E+01           0.26455026E-06
   0.16700000E+01           0.88183422E-07
   0.16800000E+01           0.00000000E+00
   0.16900000E+01           0.88183422E-07
   0.17000000E+01           0.88183422E-07
   0.17100000E+01           0.00000000E+00
   0.17200000E+01           0.00000000E+00
   0.17300000E+01           0.00000000E+00
   0.17400000E+01           0.00000000E+00
   0.17500000E+01           0.00000000E+00
   0.17600000E+01           0.00000000E+00
   0.17700000E+01           0.00000000E+00
   0.17800000E+01           0.00000000E+00
   0.17900000E+01           0.00000000E+00
   0.18000000E+01           0.00000000E+00
   0.18100000E+01           0.00000000E+00
   0.18200000E+01           0.00000000E+00
   0.18300000E+01           0.00000000E+00
   0.18400000E+01           0.00000000E+00
   0.18500000E+01           0.88183422E-07
   0.18600000E+01           0.00000000E+00
   0.18700000E+01           0.00000000E+00
   0.18800000E+01           0.00000000E+00
   0.18900000E+01           0.00000000E+00
   0.19000000E+01           0.00000000E+00
   0.19100000E+01           0.00000000E+00
   0.19200000E+01           0.00000000E+00
   0.19300000E+01           0.00000000E+00
   0.19400000E+01           0.00000000E+00
   0.19500000E+01           0.00000000E+00
   0.19600000E+01           0.00000000E+00
   0.19700000E+01           0.00000000E+00
   0.19800000E+01           0.00000000E+00
   0.19900000E+01           0.00000000E+00
   0.20000000E+01           0.00000000E+00
 #T=     9.0000
  -0.20000000E+01           0.00000000E+00
  -0.19900000E+01           0.00000000E+00
  -0.19800000E+01           0.00000000E+00
  -0.19700000E+01           0.00000000E+00
  -0.19600000E+01           0.00000000E+00
  -0.19500000E+01           0.00000000E+00
  -0.19400000E+01           0.00000000E+00
  -0.19300000E+01           0.00000000E+00
  -0.19200000E+01           0.00000000E+00
  -0.19100000E+01           0.00000000E+00
  -0.19000000E+01           0.00000000E+00
  -0.18900000E+01           0.00000000E+00
  -0.18800000E+01           0.00000000E+00
  -0.18700000E+01           0.00000000E+00
  -0.18600000E+01           0.00000000E+00
  -0.18500000E+01           0.00000000E+00
  -0.18400000E+01           0.00000000E+00
  -0.18300000E+01           0.00000000E+00
  -0.18200000E+01           0.00000000E+00
  -0.18100000E+01           0.00000000E+00
  -0.18000000E+01           0.00000000E+00
  -0.17900000E+01           0.00000000E+00
  -0.17800000E+01           0.00000000E+00
  -0.17700000E+01           0.00000000E+00
  -0.17600000E+01           0.00000000E+00
  -0.17500000E+01           0.00000000E+00
  -0.17400000E+01           0.00000000E+00
  -0.17300000E+01           0.00000000E+00
  -0.17200000E+01           0.00000000E+00
  -0.17100000E+01           0.00000000E+00
  -0.17000000E+01           0.00000000E+00
  -0.16900000E+01           0.00000000E+00
  -0.16800000E+01           0.00000000E+00
  -0.16700000E+01           0.00000000E+00
  -0.16600000E+01           0.00000000E+00
  -0.16500000E+01           0.00000000E+00
  -0.16400000E+01           0.00000000E+00
  -0.16300000E+01           0.00000000E+00
  -0.16200000E+01           0.00000000E+00
  -0.16100000E+01           0.00000000E+00
  -0.16000000E+01           0.00000000E+00
  -0.15900000E+01           0.00000000E+00
  -0.15800000E+01           0.00000000E+00
  -0.15700000E+01           0.00000000E+00
  -0.15600000E+01           0.00000000E+00
  -0.15500000E+01           0.00000000E+00
  -0.15400000E+01           0.00000000E+00
  -0.15300000E+01           0.00000000E+00
  -0.15200000E+01           0.00000000E+00
  -0.15100000E+01           0.00000000E+00
  -0.15000000E+01           0.00000000E+00
  -0.14900000E+01           0.00000000E+00
  -0.14800000E+01           0.00000000E+00
  -0.14700000E+01           0.00000000E+00
  -0.14600000E+01           0.00000000E+00
  -0.14500000E+01           0.00000000E+00
  -0.14400000E+01           0.00000000E+00
  -0.14300000E+01           0.00000000E+00
  -0.14200000E+01           0.00000000E+00
  -0.14100000E+01           0.00000000E+00
  -0.14000000E+01           0.00000000E+00
  -0.13900000E+01           0.00000000E+00
  -0.13800000E+01           0.00000000E+00
  -0.13700000E+01           0.00000000E+00
  -0.13600000E+01           0.00000000E+00
  -0.13500000E+01           0.00000000E+00
  -0.13400000E+01           0.00000000E+00
  -0.13300000E+01           0.00000000E+00
  -0.13200000E+01           0.00000000E+00
  -0.13100000E+01           0.00000000E+00
  -0.13000000E+01           0.00000000E+00
  -0.12900000E+01           0.00000000E+00
  -0.12800000E+01           0.00000000E+00
  -0.12700000E+01           0.00000000E+00
  -0.12600000E+01           0.00000000E+00
  -0.12500000E+01           0.00000000E+00
  -0.12400000E+01           0.00000000E+00
  -0.12300000E+01           0.00000000E+00
  -0.12200000E+01           0.00000000E+00
  -0.12100000E+01           0.00000000E+00
  -0.12000000E+01           0.00000000E+00
  -0.11900000E+01           0.00000000E+00
  -0.11800000E+01           0.00000000E+00
  -0.11700000E+01           0.00000000E+00
  -0.11600000E+01           0.00000000E+00
  -0.11500000E+01           0.00000000E+00
  -0.11400000E+01           0.00000000E+00
  -0.11300000E+01           0.00000000E+00
  -0.11200000E+01           0.00000000E+00
  -0.11100000E+01           0.00000000E+00
  -0.11000000E+01           0.00000000E+00
  -0.10900000E+01           0.00000000E+00
  -0.10800000E+01           0.00000000E+00
  -0.10700000E+01           0.00000000E+00
  -0.10600000E+01           0.00000000E+00
  -0.10500000E+01           0.00000000E+00
  -0.10400000E+01           0.00000000E+00
  -0.10300000E+01           0.00000000E+00
  -0.10200000E+01           0.00000000E+00
  -0.10100000E+01           0.00000000E+00
  -0.10000000E+01           0.00000000E+00
  -0.99000000E+00           0.00000000E+00
  -0.98000000E+00           0.00000000E+00
  -0.97000000E+00           0.00000000E+00
  -0.96000000E+00           0.00000000E+00
  -0.95000000E+00           0.00000000E+00
  -0.94000000E+00           0.00000000E+00
  -0.93000000E+00           0.00000000E+00
  -0.92000000E+00           0.00000000E+00
  -0.91000000E+00           0.00000000E+00
  -0.90000000E+00           0.00000000E+00
  -0.89000000E+00           0.00000000E+00
  -0.88000000E+00           0.00000000E+00
  -0.87000000E+00           0.00000000E+00
  -0.86000000E+00           0.00000000E+00
  -0.85000000E+00           0.00000000E+00
  -0.84000000E+00           0.00000000E+00
  -0.83000000E+00           0.00000000E+00
  -0.82000000E+00           0.00000000E+00
  -0.81000000E+00           0.00000000E+00
  -0.80000000E+00           0.00000000E+00
  -0.79000000E+00           0.00000000E+00
  -0.78000000E+00           0.00000000E+00
  -0.77000000E+00           0.00000000E+00
  -0.76000000E+00           0.00000000E+00
  -0.75000000E+00           0.00000000E+00
  -0.74000000E+00           0.00000000E+00
  -0.73000000E+00           0.00000000E+00
  -0.72000000E+00           0.00000000E+00
  -0.71000000E+00           0.00000000E+00
  -0.70000000E+00           0.00000000E+00
  -0.69000000E+00           0.00000000E+00
  -0.68000000E+00           0.00000000E+00
  -0.67000000E+00           0.00000000E+00
  -0.66000000E+00           0.00000000E+00
  -0.65000000E+00           0.00000000E+00
  -0.64000000E+00           0.00000000E+00
  -0.63000000E+00           0.00000000E+00
  -0.62000000E+00           0.00000000E+00
  -0.61000000E+00           0.00000000E+00
  -0.60000000E+00           0.00000000E+00
  -0.59000000E+00           0.00000000E+00
  -0.58000000E+00           0.00000000E+00
  -0.57000000E+00           0.00000000E+00
  -0.56000000E+00           0.00000000E+00
  -0.55000000E+00           0.00000000E+00
  -0.54000000E+00           0.00000000E+00
  -0.53000000E+00           0.00000000E+00
  -0.52000000E+00           0.00000000E+00
  -0.51000000E+00           0.00000000E+00
  -0.50000000E+00           0.00000000E+00
  -0.49000000E+00           0.00000000E+00
  -0.48000000E+00           0.00000000E+00
  -0.47000000E+00           0.00000000E+00
  -0.46000000E+00           0.00000000E+00
  -0.45000000E+00           0.00000000E+00
  -0.44000000E+00           0.00000000E+00
  -0.43000000E+00           0.00000000E+00
  -0.42000000E+00           0.00000000E+00
  -0.41000000E+00           0.00000000E+00
  -0.40000000E+00           0.00000000E+00
  -0.39000000E+00           0.00000000E+00
  -0.38000000E+00           0.00000000E+00
  -0.37000000E+00           0.00000000E+00
  -0.36000000E+00           0.00000000E+00
  -0.35000000E+00           0.00000000E+00
  -0.34000000E+00           0.00000000E+00
  -0.33000000E+00           0.00000000E+00
  -0.32000000E+00           0.00000000E+00
  -0.31000000E+00           0.00000000E+00
  -0.30000000E+00           0.00000000E+00
  -0.29000000E+00           0.00000000E+00
  -0.28000000E+00           0.00000000E+00
  -0.27000000E+00           0.00000000E+00
  -0.26000000E+00           0.00000000E+00
  -0.25000000E+00           0.00000000E+00
  -0.24000000E+00           0.00000000E+00
  -0.23000000E+00           0.00000000E+00
  -0.22000000E+00           0.00000000E+00
  -0.21000000E+00           0.00000000E+00
  -0.20000000E+00           0.00000000E+00
  -0.19000000E+00           0.00000000E+00
  -0.18000000E+00           0.00000000E+00
  -0.17000000E+00           0.00000000E+00
  -0.16000000E+00           0.00000000E+00
  -0.15000000E+00           0.00000000E+00
  -0.14000000E+00           0.00000000E+00
  -0.13000000E+00           0.00000000E+00
  -0.12000000E+00           0.00000000E+00
  -0.11000000E+00           0.00000000E+00
  -0.10000000E+00           0.00000000E+00
  -0.90000000E-01           0.00000000E+00
  -0.80000000E-01           0.00000000E+00
  -0.70000000E-01           0.00000000E+00
  -0.60000000E-01           0.00000000E+00
  -0.50000000E-01           0.00000000E+00
  -0.40000000E-01           0.00000000E+00
  -0.30000000E-01           0.00000000E+00
  -0.20000000E-01           0.00000000E+00
  -0.10000000E-01           0.00000000E+00
   0.00000000E+00           0.12652998E-01
   0.10000000E-01           0.10086949E+00
   0.20000000E-01           0.20156437E+00
   0.30000000E-01           0.30244162E+00
   0.40000000E-01           0.40087513E+00
   0.50000000E-01           0.49979586E+00
   0.60000000E-01           0.59555406E+00
   0.70000000E-01           0.68965838E+00
   0.80000000E-01           0.78311966E+00
   0.90000000E-01           0.87352293E+00
   0.10000000E+00           0.96134083E+00
   0.11000000E+00           0.10472675E+01
   0.12000000E+00           0.11295086E+01
   0.13000000E+00           0.12072464E+01
   0.14000000E+00           0.12850927E+01
   0.15000000E+00           0.13550948E+01
   0.16000000E+00           0.14229137E+01
   0.17000000E+00           0.14875660E+01
   0.18000000E+00           0.15484758E+01
   0.19000000E+00           0.16059189E+01
   0.20000000E+00           0.16556072E+01
   0.21000000E+00           0.17056415E+01
   0.22000000E+00           0.17487431E+01
   0.23000000E+00           0.17877856E+01
   0.24000000E+00           0.18227092E+01
   0.25000000E+00           0.18543489E+01
   0.26000000E+00           0.18791139E+01
   0.27000000E+00           0.18984712E+01
   0.28000000E+00           0.19165854E+01
   0.29000000E+00           0.19291786E+01
   0.30000000E+00           0.19375856E+01
   0.31000000E+00           0.19412310E+01
   0.32000000E+00           0.19427049E+01
   0.33000000E+00           0.19390638E+01
   0.34000000E+00           0.19314061E+01
   0.35000000E+00           0.19214155E+01
   0.36000000E+00           0.19076388E+01
   0.37000000E+00           0.18890545E+01
   0.38000000E+00           0.18693492E+01
   0.39000000E+00           0.18461776E+01
   0.40000000E+00           0.18186066E+01
   0.41000000E+00           0.17898105E+01
   0.42000000E+00           0.17586509E+01
   0.43000000E+00           0.17244398E+01
   0.44000000E+00           0.16875284E+01
   0.45000000E+00           0.16516430E+01
   0.46000000E+00           0.16119290E+01
   0.47000000E+00           0.15713883E+01
   0.48000000E+00           0.15298205E+01
   0.49000000E+00           0.14865502E+01
[...]
   0.13800000E+01           0.68930529E+00
   0.13900000E+01           0.69083968E+00
   0.14000000E+01           0.69303466E+00
   0.14100000E+01           0.69507557E+00
   0.14200000E+01           0.69680212E+00
   0.14300000E+01           0.69850370E+00
   0.14400000E+01           0.70069453E+00
   0.14500000E+01           0.70251817E+00
   0.14600000E+01           0.70378316E+00
   0.14700000E+01           0.70588439E+00
   0.14800000E+01           0.70672681E+00
   0.14900000E+01           0.70837319E+00
   0.15000000E+01           0.70996041E+00
   0.15100000E+01           0.71113668E+00
   0.15200000E+01           0.71278836E+00
   0.15300000E+01           0.71409832E+00
   0.15400000E+01           0.71551120E+00
   0.15500000E+01           0.71635811E+00
   0.15600000E+01           0.71758492E+00
   0.15700000E+01           0.71863051E+00
   0.15800000E+01           0.71978915E+00
   0.15900000E+01           0.72051296E+00
   0.16000000E+01           0.72193166E+00
   0.16100000E+01           0.72270838E+00
   0.16200000E+01           0.72342884E+00
   0.16300000E+01           0.72462125E+00
   0.16400000E+01           0.72496393E+00
   0.16500000E+01           0.72586023E+00
   0.16600000E+01           0.72642989E+00
   0.16700000E+01           0.72716323E+00
   0.16800000E+01           0.72816931E+00
   0.16900000E+01           0.72785123E+00
   0.17000000E+01           0.72829638E+00
   0.17100000E+01           0.72892945E+00
   0.17200000E+01           0.72982266E+00
   0.17300000E+01           0.72988078E+00
   0.17400000E+01           0.72979471E+00
   0.17500000E+01           0.73044903E+00
   0.17600000E+01           0.73050467E+00
   0.17700000E+01           0.73080123E+00
   0.17800000E+01           0.73026049E+00
   0.17900000E+01           0.73014074E+00
   0.18000000E+01           0.73070608E+00
   0.18100000E+01           0.73020247E+00
   0.18200000E+01           0.73036861E+00
   0.18300000E+01           0.73024788E+00
   0.18400000E+01           0.73047390E+00
   0.18500000E+01           0.72996261E+00
   0.18600000E+01           0.72972187E+00
   0.18700000E+01           0.72951517E+00
   0.18800000E+01           0.72884912E+00
   0.18900000E+01           0.72838025E+00
   0.19000000E+01           0.72759471E+00
   0.19100000E+01           0.72744612E+00
   0.19200000E+01           0.72705935E+00
   0.19300000E+01           0.72668051E+00
   0.19400000E+01           0.72578721E+00
   0.19500000E+01           0.72548554E+00
   0.19600000E+01           0.72420626E+00
   0.19700000E+01           0.72364594E+00
   0.19800000E+01           0.72310291E+00
   0.19900000E+01           0.72199991E+00
   0.20000000E+01           0.36073342E+00
 #T=    84.0000
  -0.20000000E+01           0.00000000E+00
  -0.19900000E+01           0.00000000E+00
  -0.19800000E+01           0.00000000E+00
  -0.19700000E+01           0.00000000E+00
  -0.19600000E+01           0.00000000E+00
  -0.19500000E+01           0.00000000E+00
  -0.19400000E+01           0.00000000E+00
  -0.19300000E+01           0.00000000E+00
  -0.19200000E+01           0.00000000E+00
  -0.19100000E+01           0.00000000E+00
  -0.19000000E+01           0.00000000E+00
  -0.18900000E+01           0.00000000E+00
  -0.18800000E+01           0.00000000E+00
  -0.18700000E+01           0.00000000E+00
  -0.18600000E+01           0.00000000E+00
  -0.18500000E+01           0.00000000E+00
  -0.18400000E+01           0.00000000E+00
  -0.18300000E+01           0.00000000E+00
  -0.18200000E+01           0.00000000E+00
  -0.18100000E+01           0.00000000E+00
  -0.18000000E+01           0.00000000E+00
  -0.17900000E+01           0.00000000E+00
  -0.17800000E+01           0.00000000E+00
  -0.17700000E+01           0.00000000E+00
  -0.17600000E+01           0.00000000E+00
  -0.17500000E+01           0.00000000E+00
  -0.17400000E+01           0.00000000E+00
  -0.17300000E+01           0.00000000E+00
  -0.17200000E+01           0.00000000E+00
  -0.17100000E+01           0.00000000E+00
  -0.17000000E+01           0.00000000E+00
  -0.16900000E+01           0.00000000E+00
  -0.16800000E+01           0.00000000E+00
  -0.16700000E+01           0.00000000E+00
  -0.16600000E+01           0.00000000E+00
  -0.16500000E+01           0.00000000E+00
  -0.16400000E+01           0.00000000E+00
  -0.16300000E+01           0.00000000E+00
  -0.16200000E+01           0.00000000E+00
  -0.16100000E+01           0.00000000E+00
  -0.16000000E+01           0.00000000E+00
  -0.15900000E+01           0.00000000E+00
  -0.15800000E+01           0.00000000E+00
  -0.15700000E+01           0.00000000E+00
  -0.15600000E+01           0.00000000E+00
  -0.15500000E+01           0.00000000E+00
  -0.15400000E+01           0.00000000E+00
  -0.15300000E+01           0.00000000E+00
  -0.15200000E+01           0.00000000E+00
  -0.15100000E+01           0.00000000E+00
  -0.15000000E+01           0.00000000E+00
  -0.14900000E+01           0.00000000E+00
  -0.14800000E+01           0.00000000E+00
  -0.14700000E+01           0.00000000E+00
  -0.14600000E+01           0.00000000E+00
  -0.14500000E+01           0.00000000E+00
  -0.14400000E+01           0.00000000E+00
  -0.14300000E+01           0.00000000E+00
  -0.14200000E+01           0.00000000E+00
  -0.14100000E+01           0.00000000E+00
  -0.14000000E+01           0.00000000E+00
  -0.13900000E+01           0.00000000E+00
  -0.13800000E+01           0.00000000E+00
  -0.13700000E+01           0.00000000E+00
  -0.13600000E+01           0.00000000E+00
  -0.13500000E+01           0.00000000E+00
  -0.13400000E+01           0.00000000E+00
  -0.13300000E+01           0.00000000E+00
  -0.13200000E+01           0.00000000E+00
  -0.13100000E+01           0.00000000E+00
  -0.13000000E+01           0.00000000E+00
  -0.12900000E+01           0.00000000E+00
  -0.12800000E+01           0.00000000E+00
  -0.12700000E+01           0.00000000E+00
  -0.12600000E+01           0.00000000E+00
  -0.12500000E+01           0.00000000E+00
  -0.12400000E+01           0.00000000E+00
  -0.12300000E+01           0.00000000E+00
  -0.12200000E+01           0.00000000E+00
  -0.12100000E+01           0.00000000E+00
  -0.12000000E+01           0.00000000E+00
  -0.11900000E+01           0.00000000E+00
  -0.11800000E+01           0.00000000E+00
  -0.11700000E+01           0.00000000E+00
  -0.11600000E+01           0.00000000E+00
  -0.11500000E+01           0.00000000E+00
  -0.11400000E+01           0.00000000E+00
  -0.11300000E+01           0.00000000E+00
  -0.11200000E+01           0.00000000E+00
  -0.11100000E+01           0.00000000E+00
  -0.11000000E+01           0.00000000E+00
  -0.10900000E+01           0.00000000E+00
  -0.10800000E+01           0.00000000E+00
  -0.10700000E+01           0.00000000E+00
  -0.10600000E+01           0.00000000E+00
  -0.10500000E+01           0.00000000E+00
  -0.10400000E+01           0.00000000E+00
  -0.10300000E+01           0.00000000E+00
  -0.10200000E+01           0.00000000E+00
  -0.10100000E+01           0.00000000E+00
  -0.10000000E+01           0.00000000E+00
  -0.99000000E+00           0.00000000E+00
  -0.98000000E+00           0.00000000E+00
  -0.97000000E+00           0.00000000E+00
  -0.96000000E+00           0.00000000E+00
  -0.95000000E+00           0.00000000E+00
  -0.94000000E+00           0.00000000E+00
  -0.93000000E+00           0.00000000E+00
  -0.92000000E+00           0.00000000E+00
  -0.91000000E+00           0.00000000E+00
  -0.90000000E+00           0.00000000E+00
  -0.89000000E+00           0.00000000E+00
  -0.88000000E+00           0.00000000E+00
  -0.87000000E+00           0.00000000E+00
  -0.86000000E+00           0.00000000E+00
  -0.85000000E+00           0.00000000E+00
  -0.84000000E+00           0.00000000E+00
  -0.83000000E+00           0.00000000E+00
  -0.82000000E+00           0.00000000E+00
  -0.81000000E+00           0.00000000E+00
  -0.80000000E+00           0.00000000E+00
  -0.79000000E+00           0.00000000E+00
  -0.78000000E+00           0.00000000E+00
  -0.77000000E+00           0.00000000E+00
  -0.76000000E+00           0.00000000E+00
  -0.75000000E+00           0.00000000E+00
  -0.74000000E+00           0.00000000E+00
  -0.73000000E+00           0.00000000E+00
  -0.72000000E+00           0.00000000E+00
  -0.71000000E+00           0.00000000E+00
  -0.70000000E+00           0.00000000E+00
  -0.69000000E+00           0.00000000E+00
  -0.68000000E+00           0.00000000E+00
  -0.67000000E+00           0.00000000E+00
  -0.66000000E+00           0.00000000E+00
  -0.65000000E+00           0.00000000E+00
  -0.64000000E+00           0.00000000E+00
  -0.63000000E+00           0.00000000E+00
  -0.62000000E+00           0.00000000E+00
  -0.61000000E+00           0.00000000E+00
  -0.60000000E+00           0.00000000E+00
  -0.59000000E+00           0.00000000E+00
  -0.58000000E+00           0.00000000E+00
  -0.57000000E+00           0.00000000E+00
  -0.56000000E+00           0.00000000E+00
  -0.55000000E+00           0.00000000E+00
  -0.54000000E+00           0.00000000E+00
  -0.53000000E+00           0.00000000E+00
  -0.52000000E+00           0.00000000E+00
  -0.51000000E+00           0.00000000E+00
  -0.50000000E+00           0.00000000E+00
  -0.49000000E+00           0.00000000E+00
  -0.48000000E+00           0.00000000E+00
  -0.47000000E+00           0.00000000E+00
  -0.46000000E+00           0.00000000E+00
  -0.45000000E+00           0.00000000E+00
  -0.44000000E+00           0.00000000E+00
  -0.43000000E+00           0.00000000E+00
  -0.42000000E+00           0.00000000E+00
  -0.41000000E+00           0.00000000E+00
  -0.40000000E+00           0.00000000E+00
  -0.39000000E+00           0.00000000E+00
  -0.38000000E+00           0.00000000E+00
  -0.37000000E+00           0.00000000E+00
  -0.36000000E+00           0.00000000E+00
  -0.35000000E+00           0.00000000E+00
  -0.34000000E+00           0.00000000E+00
  -0.33000000E+00           0.00000000E+00
  -0.32000000E+00           0.00000000E+00
  -0.31000000E+00           0.00000000E+00
  -0.30000000E+00           0.00000000E+00
  -0.29000000E+00           0.00000000E+00
  -0.28000000E+00           0.00000000E+00
  -0.27000000E+00           0.00000000E+00
  -0.26000000E+00           0.00000000E+00
  -0.25000000E+00           0.00000000E+00
  -0.24000000E+00           0.00000000E+00
  -0.23000000E+00           0.00000000E+00
  -0.22000000E+00           0.00000000E+00
  -0.21000000E+00           0.00000000E+00
  -0.20000000E+00           0.00000000E+00
  -0.19000000E+00           0.00000000E+00
  -0.18000000E+00           0.00000000E+00
  -0.17000000E+00           0.00000000E+00
  -0.16000000E+00           0.00000000E+00
  -0.15000000E+00           0.00000000E+00
  -0.14000000E+00           0.00000000E+00
  -0.13000000E+00           0.00000000E+00
  -0.12000000E+00           0.00000000E+00
  -0.11000000E+00           0.00000000E+00
  -0.10000000E+00           0.00000000E+00
  -0.90000000E-01           0.00000000E+00
  -0.80000000E-01           0.00000000E+00
  -0.70000000E-01           0.00000000E+00
  -0.60000000E-01           0.00000000E+00
  -0.50000000E-01           0.00000000E+00
  -0.40000000E-01           0.00000000E+00
  -0.30000000E-01           0.00000000E+00
  -0.20000000E-01           0.00000000E+00
  -0.10000000E-01           0.00000000E+00
   0.00000000E+00           0.84726631E-03
   0.10000000E-01           0.66597002E-02
   0.20000000E-01           0.13358466E-01
   0.30000000E-01           0.20083951E-01
   0.40000000E-01           0.26688007E-01
   0.50000000E-01           0.33380952E-01
   0.60000000E-01           0.40112963E-01
   0.70000000E-01           0.46673369E-01
   0.80000000E-01           0.53369136E-01
   0.90000000E-01           0.60049206E-01
   0.10000000E+00           0.66732892E-01
   0.11000000E+00           0.73337390E-01
   0.12000000E+00           0.80046561E-01
   0.13000000E+00           0.86579894E-01
   0.14000000E+00           0.93445679E-01
   0.15000000E+00           0.99863845E-01
   0.16000000E+00           0.10649453E+00
   0.17000000E+00           0.11331914E+00
   0.18000000E+00           0.11967328E+00
   0.19000000E+00           0.12622399E+00
   0.20000000E+00           0.13283827E+00
   0.21000000E+00           0.13939718E+00
   0.22000000E+00           0.14598757E+00
   0.23000000E+00           0.15245370E+00
   0.24000000E+00           0.15919021E+00
   0.25000000E+00           0.16551852E+00
   0.26000000E+00           0.17204418E+00
   0.27000000E+00           0.17842628E+00
   0.28000000E+00           0.18483589E+00
   0.29000000E+00           0.19148668E+00
   0.30000000E+00           0.19787954E+00
   0.31000000E+00           0.20393333E+00
   0.32000000E+00           0.21060750E+00
   0.33000000E+00           0.21698113E+00
   0.34000000E+00           0.22306120E+00
   0.35000000E+00           0.22970723E+00
   0.36000000E+00           0.23598025E+00
   0.37000000E+00           0.24233439E+00
   0.38000000E+00           0.24851349E+00
   0.39000000E+00           0.25475256E+00
   0.40000000E+00           0.26108836E+00
   0.41000000E+00           0.26725414E+00
   0.42000000E+00           0.27321093E+00
   0.43000000E+00           0.27938677E+00
   0.44000000E+00           0.28543580E+00
   0.45000000E+00           0.29162945E+00
   0.46000000E+00           0.29765688E+00
   0.47000000E+00           0.30376905E+00
   0.48000000E+00           0.30971314E+00
   0.49000000E+00           0.31575944E+00
   0.50000000E+00           0.32157478E+00
   0.51000000E+00           0.32743580E+00
   0.52000000E+00           0.33328466E+00
   0.53000000E+00           0.33924056E+00
   0.54000000E+00           0.34520776E+00
   0.55000000E+00           0.35098686E+00
   0.56000000E+00           0.35709339E+00
   0.57000000E+00           0.36257055E+00
   0.58000000E+00           0.36805653E+00
   0.59000000E+00           0.37391261E+00
   0.60000000E+00           0.37965362E+00
   0.61000000E+00           0.38517884E+00
   0.62000000E+00           0.39103483E+00
   0.63000000E+00           0.39642072E+00
   0.64000000E+00           0.40189550E+00
   0.65000000E+00           0.40718219E+00
   0.66000000E+00           0.41281252E+00
   0.67000000E+00           0.41776420E+00
   0.68000000E+00           0.42340106E+00
   0.69000000E+00           0.42874788E+00
   0.70000000E+00           0.43400441E+00
   0.71000000E+00           0.43956587E+00
   0.72000000E+00           0.44456869E+00
   0.73000000E+00           0.44991305E+00
   0.74000000E+00           0.45475785E+00
   0.75000000E+00           0.46005679E+00
   0.76000000E+00           0.46516314E+00
   0.77000000E+00           0.47005176E+00
   0.78000000E+00           0.47498228E+00
   0.79000000E+00           0.48016429E+00
   0.80000000E+00           0.48483748E+00
   0.81000000E+00           0.48940379E+00
   0.82000000E+00           0.49445309E+00
   0.83000000E+00           0.49948915E+00
   0.84000000E+00           0.50418254E+00
   0.85000000E+00           0.50885265E+00
   0.86000000E+00           0.51329709E+00
   0.87000000E+00           0.51789709E+00
   0.88000000E+00           0.52245847E+00
   0.89000000E+00           0.52698095E+00
   0.90000000E+00           0.53170996E+00
   0.91000000E+00           0.53571279E+00
   0.92000000E+00           0.54029515E+00
   0.93000000E+00           0.54437540E+00
   0.94000000E+00           0.54860485E+00
   0.95000000E+00           0.55340026E+00
   0.96000000E+00           0.55773510E+00
   0.97000000E+00           0.56144894E+00
   0.98000000E+00           0.56575335E+00
   0.99000000E+00           0.56978651E+00
   0.10000000E+01           0.57370168E+00
   0.10100000E+01           0.57782372E+00
   0.10200000E+01           0.58154065E+00
   0.10300000E+01           0.58516305E+00
   0.10400000E+01           0.58929912E+00
   0.10500000E+01           0.59264400E+00
   0.10600000E+01           0.59690018E+00
   0.10700000E+01           0.60053986E+00
   0.10800000E+01           0.60398695E+00
   0.10900000E+01           0.60720670E+00
   0.11000000E+01           0.61100952E+00
   0.11100000E+01           0.61459171E+00
   0.11200000E+01           0.61794250E+00
   0.11300000E+01           0.62118228E+00
   0.11400000E+01           0.62471869E+00
   0.11500000E+01           0.62776226E+00
   0.11600000E+01           0.63109497E+00
   0.11700000E+01           0.63412160E+00
   0.11800000E+01           0.63749400E+00
   0.11900000E+01           0.64061173E+00
   0.12000000E+01           0.64355212E+00
   0.12100000E+01           0.64663810E+00
   0.12200000E+01           0.64942011E+00
   0.12300000E+01           0.65211684E+00
   0.12400000E+01           0.65501958E+00
   0.12500000E+01           0.65800758E+00
   0.12600000E+01           0.66058236E+00
   0.12700000E+01           0.66340750E+00
   0.12800000E+01           0.66593113E+00
   0.12900000E+01           0.66852663E+00
   0.13000000E+01           0.67096129E+00
   0.13100000E+01           0.67364788E+00
   0.13200000E+01           0.67567954E+00
   0.13300000E+01           0.67834788E+00
   0.13400000E+01           0.68093792E+00
   0.13500000E+01           0.68331243E+00
   0.13600000E+01           0.68490115E+00
   0.13700000E+01           0.68745917E+00
   0.13800000E+01           0.68951358E+00
   0.13900000E+01           0.69184065E+00
   0.14000000E+01           0.69325908E+00
   0.14100000E+01           0.69503545E+00
   0.14200000E+01           0.69732231E+00
   0.14300000E+01           0.69924418E+00
   0.14400000E+01           0.70091129E+00
   0.14500000E+01           0.70269083E+00
   0.14600000E+01           0.70433025E+00
   0.14700000E+01           0.70601429E+00
   0.14800000E+01           0.70790750E+00
   0.14900000E+01           0.70901764E+00
   0.15000000E+01           0.71071958E+00
   0.15100000E+01           0.71196217E+00
   0.15200000E+01           0.71354436E+00
   0.15300000E+01           0.71522363E+00
   0.15400000E+01           0.71604118E+00
   0.15500000E+01           0.71732337E+00
   0.15600000E+01           0.71857416E+00
   0.15700000E+01           0.71972169E+00
   0.15800000E+01           0.72078554E+00
   0.15900000E+01           0.72233122E+00
   0.16000000E+01           0.72315547E+00
   0.16100000E+01           0.72474841E+00
   0.16200000E+01           0.72483104E+00
   0.16300000E+01           0.72566085E+00
   0.16400000E+01           0.72675661E+00
   0.16500000E+01           0.72745194E+00
   0.16600000E+01           0.72793554E+00
   0.16700000E+01           0.72821120E+00
   0.16800000E+01           0.72947434E+00
   0.16900000E+01           0.72977337E+00
   0.17000000E+01           0.73009974E+00
   0.17100000E+01           0.73072981E+00
   0.17200000E+01           0.73129727E+00
   0.17300000E+01           0.73187346E+00
   0.17400000E+01           0.73170388E+00
   0.17500000E+01           0.73242143E+00
   0.17600000E+01           0.73289727E+00
   0.17700000E+01           0.73276940E+00
   0.17800000E+01           0.73333210E+00
   0.17900000E+01           0.73269938E+00
   0.18000000E+01           0.73321755E+00
   0.18100000E+01           0.73313457E+00
   0.18200000E+01           0.73281526E+00
   0.18300000E+01           0.73323668E+00
   0.18400000E+01           0.73256111E+00
   0.18500000E+01           0.73255891E+00
   0.18600000E+01           0.73239489E+00
   0.18700000E+01           0.73240723E+00
   0.18800000E+01           0.73176896E+00
   0.18900000E+01           0.73148598E+00
   0.19000000E+01           0.73094092E+00
   0.19100000E+01           0.73108748E+00
   0.19200000E+01           0.73017399E+00
   0.19300000E+01           0.72992363E+00
   0.19400000E+01           0.72894832E+00
   0.19500000E+01           0.72838845E+00
   0.19600000E+01           0.72794586E+00
   0.19700000E+01           0.72765882E+00
   0.19800000E+01           0.72680000E+00
   0.19900000E+01           0.72576067E+00
   0.20000000E+01           0.36273907E+00
