 #written on  5Nov2024 at 15:15:29 
 #----------------- MONTECARLO -------------------#
 #        M                      P(M)             #
 #------------------------------------------------#
 #T=    60.0000
  -0.40000000E+01           0.00000000E+00
  -0.39900000E+01           0.00000000E+00
  -0.39800000E+01           0.00000000E+00
  -0.39700000E+01           0.00000000E+00
  -0.39600000E+01           0.00000000E+00
  -0.39500000E+01           0.00000000E+00
  -0.39400000E+01           0.00000000E+00
  -0.39300000E+01           0.00000000E+00
  -0.39200000E+01           0.00000000E+00
  -0.39100000E+01           0.00000000E+00
  -0.39000000E+01           0.00000000E+00
  -0.38900000E+01           0.00000000E+00
  -0.38800000E+01           0.00000000E+00
  -0.38700000E+01           0.00000000E+00
  -0.38600000E+01           0.00000000E+00
  -0.38500000E+01           0.00000000E+00
  -0.38400000E+01           0.00000000E+00
  -0.38300000E+01           0.00000000E+00
  -0.38200000E+01           0.00000000E+00
  -0.38100000E+01           0.00000000E+00
  -0.38000000E+01           0.00000000E+00
  -0.37900000E+01           0.00000000E+00
  -0.37800000E+01           0.00000000E+00
  -0.37700000E+01           0.00000000E+00
  -0.37600000E+01           0.00000000E+00
  -0.37500000E+01           0.00000000E+00
  -0.37400000E+01           0.00000000E+00
  -0.37300000E+01           0.00000000E+00
  -0.37200000E+01           0.00000000E+00
  -0.37100000E+01           0.00000000E+00
  -0.37000000E+01           0.00000000E+00
  -0.36900000E+01           0.00000000E+00
  -0.36800000E+01           0.00000000E+00
  -0.36700000E+01           0.00000000E+00
  -0.36600000E+01           0.00000000E+00
  -0.36500000E+01           0.00000000E+00
  -0.36400000E+01           0.00000000E+00
  -0.36300000E+01           0.00000000E+00
  -0.36200000E+01           0.00000000E+00
  -0.36100000E+01           0.00000000E+00
  -0.36000000E+01           0.00000000E+00
  -0.35900000E+01           0.00000000E+00
  -0.35800000E+01           0.00000000E+00
  -0.35700000E+01           0.00000000E+00
  -0.35600000E+01           0.00000000E+00
  -0.35500000E+01           0.00000000E+00
  -0.35400000E+01           0.00000000E+00
  -0.35300000E+01           0.00000000E+00
  -0.35200000E+01           0.00000000E+00
  -0.35100000E+01           0.00000000E+00
  -0.35000000E+01           0.00000000E+00
  -0.34900000E+01           0.00000000E+00
  -0.34800000E+01           0.00000000E+00
  -0.34700000E+01           0.00000000E+00
  -0.34600000E+01           0.00000000E+00
  -0.34500000E+01           0.00000000E+00
  -0.34400000E+01           0.00000000E+00
  -0.34300000E+01           0.00000000E+00
  -0.34200000E+01           0.00000000E+00
  -0.34100000E+01           0.00000000E+00
  -0.34000000E+01           0.00000000E+00
  -0.33900000E+01           0.00000000E+00
  -0.33800000E+01           0.00000000E+00
  -0.33700000E+01           0.00000000E+00
  -0.33600000E+01           0.00000000E+00
  -0.33500000E+01           0.00000000E+00
  -0.33400000E+01           0.00000000E+00
  -0.33300000E+01           0.00000000E+00
  -0.33200000E+01           0.00000000E+00
  -0.33100000E+01           0.00000000E+00
  -0.33000000E+01           0.00000000E+00
  -0.32900000E+01           0.00000000E+00
  -0.32800000E+01           0.00000000E+00
  -0.32700000E+01           0.00000000E+00
  -0.32600000E+01           0.00000000E+00
  -0.32500000E+01           0.00000000E+00
  -0.32400000E+01           0.00000000E+00
  -0.32300000E+01           0.00000000E+00
  -0.32200000E+01           0.00000000E+00
  -0.32100000E+01           0.00000000E+00
  -0.32000000E+01           0.00000000E+00
  -0.31900000E+01           0.00000000E+00
  -0.31800000E+01           0.00000000E+00
  -0.31700000E+01           0.00000000E+00
  -0.31600000E+01           0.00000000E+00
  -0.31500000E+01           0.00000000E+00
  -0.31400000E+01           0.00000000E+00
  -0.31300000E+01           0.00000000E+00
  -0.31200000E+01           0.00000000E+00
  -0.31100000E+01           0.00000000E+00
  -0.31000000E+01           0.00000000E+00
  -0.30900000E+01           0.00000000E+00
  -0.30800000E+01           0.00000000E+00
  -0.30700000E+01           0.00000000E+00
  -0.30600000E+01           0.00000000E+00
  -0.30500000E+01           0.00000000E+00
  -0.30400000E+01           0.00000000E+00
  -0.30300000E+01           0.00000000E+00
  -0.30200000E+01           0.00000000E+00
  -0.30100000E+01           0.00000000E+00
  -0.30000000E+01           0.00000000E+00
  -0.29900000E+01           0.00000000E+00
  -0.29800000E+01           0.00000000E+00
  -0.29700000E+01           0.00000000E+00
  -0.29600000E+01           0.00000000E+00
  -0.29500000E+01           0.00000000E+00
  -0.29400000E+01           0.00000000E+00
  -0.29300000E+01           0.00000000E+00
  -0.29200000E+01           0.00000000E+00
  -0.29100000E+01           0.00000000E+00
  -0.29000000E+01           0.00000000E+00
  -0.28900000E+01           0.00000000E+00
  -0.28800000E+01           0.00000000E+00
  -0.28700000E+01           0.00000000E+00
  -0.28600000E+01           0.00000000E+00
  -0.28500000E+01           0.00000000E+00
  -0.28400000E+01           0.00000000E+00
  -0.28300000E+01           0.00000000E+00
  -0.28200000E+01           0.00000000E+00
  -0.28100000E+01           0.00000000E+00
  -0.28000000E+01           0.00000000E+00
  -0.27900000E+01           0.00000000E+00
  -0.27800000E+01           0.00000000E+00
  -0.27700000E+01           0.00000000E+00
  -0.27600000E+01           0.00000000E+00
  -0.27500000E+01           0.00000000E+00
  -0.27400000E+01           0.00000000E+00
  -0.27300000E+01           0.00000000E+00
  -0.27200000E+01           0.00000000E+00
  -0.27100000E+01           0.00000000E+00
  -0.27000000E+01           0.00000000E+00
  -0.26900000E+01           0.00000000E+00
  -0.26800000E+01           0.00000000E+00
  -0.26700000E+01           0.00000000E+00
  -0.26600000E+01           0.00000000E+00
  -0.26500000E+01           0.00000000E+00
  -0.26400000E+01           0.00000000E+00
  -0.26300000E+01           0.00000000E+00
  -0.26200000E+01           0.00000000E+00
  -0.26100000E+01           0.00000000E+00
  -0.26000000E+01           0.00000000E+00
  -0.25900000E+01           0.00000000E+00
  -0.25800000E+01           0.00000000E+00
  -0.25700000E+01           0.00000000E+00
  -0.25600000E+01           0.00000000E+00
  -0.25500000E+01           0.00000000E+00
  -0.25400000E+01           0.00000000E+00
  -0.25300000E+01           0.00000000E+00
  -0.25200000E+01           0.00000000E+00
  -0.25100000E+01           0.00000000E+00
  -0.25000000E+01           0.00000000E+00
  -0.24900000E+01           0.00000000E+00
  -0.24800000E+01           0.00000000E+00
  -0.24700000E+01           0.00000000E+00
  -0.24600000E+01           0.00000000E+00
  -0.24500000E+01           0.00000000E+00
  -0.24400000E+01           0.00000000E+00
  -0.24300000E+01           0.00000000E+00
  -0.24200000E+01           0.00000000E+00
  -0.24100000E+01           0.00000000E+00
  -0.24000000E+01           0.00000000E+00
  -0.23900000E+01           0.00000000E+00
  -0.23800000E+01           0.00000000E+00
  -0.23700000E+01           0.00000000E+00
  -0.23600000E+01           0.00000000E+00
  -0.23500000E+01           0.00000000E+00
  -0.23400000E+01           0.00000000E+00
  -0.23300000E+01           0.00000000E+00
  -0.23200000E+01           0.00000000E+00
  -0.23100000E+01           0.00000000E+00
  -0.23000000E+01           0.00000000E+00
  -0.22900000E+01           0.00000000E+00
  -0.22800000E+01           0.00000000E+00
  -0.22700000E+01           0.00000000E+00
  -0.22600000E+01           0.00000000E+00
  -0.22500000E+01           0.00000000E+00
  -0.22400000E+01           0.00000000E+00
  -0.22300000E+01           0.00000000E+00
  -0.22200000E+01           0.00000000E+00
  -0.22100000E+01           0.00000000E+00
  -0.22000000E+01           0.00000000E+00
  -0.21900000E+01           0.00000000E+00
  -0.21800000E+01           0.00000000E+00
  -0.21700000E+01           0.00000000E+00
  -0.21600000E+01           0.00000000E+00
  -0.21500000E+01           0.00000000E+00
  -0.21400000E+01           0.00000000E+00
  -0.21300000E+01           0.00000000E+00
  -0.21200000E+01           0.00000000E+00
  -0.21100000E+01           0.00000000E+00
  -0.21000000E+01           0.00000000E+00
  -0.20900000E+01           0.00000000E+00
  -0.20800000E+01           0.00000000E+00
  -0.20700000E+01           0.00000000E+00
  -0.20600000E+01           0.00000000E+00
  -0.20500000E+01           0.00000000E+00
  -0.20400000E+01           0.00000000E+00
  -0.20300000E+01           0.00000000E+00
  -0.20200000E+01           0.00000000E+00
  -0.20100000E+01           0.00000000E+00
  -0.20000000E+01           0.00000000E+00
  -0.19900000E+01           0.00000000E+00
  -0.19800000E+01           0.00000000E+00
  -0.19700000E+01           0.00000000E+00
  -0.19600000E+01           0.00000000E+00
  -0.19500000E+01           0.00000000E+00
  -0.19400000E+01           0.00000000E+00
  -0.19300000E+01           0.00000000E+00
  -0.19200000E+01           0.00000000E+00
  -0.19100000E+01           0.00000000E+00
  -0.19000000E+01           0.00000000E+00
  -0.18900000E+01           0.00000000E+00
  -0.18800000E+01           0.00000000E+00
  -0.18700000E+01           0.00000000E+00
  -0.18600000E+01           0.00000000E+00
  -0.18500000E+01           0.00000000E+00
  -0.18400000E+01           0.00000000E+00
  -0.18300000E+01           0.00000000E+00
  -0.18200000E+01           0.00000000E+00
  -0.18100000E+01           0.00000000E+00
  -0.18000000E+01           0.00000000E+00
  -0.17900000E+01           0.00000000E+00
  -0.17800000E+01           0.00000000E+00
  -0.17700000E+01           0.00000000E+00
  -0.17600000E+01           0.00000000E+00
  -0.17500000E+01           0.00000000E+00
  -0.17400000E+01           0.00000000E+00
  -0.17300000E+01           0.00000000E+00
  -0.17200000E+01           0.00000000E+00
  -0.17100000E+01           0.00000000E+00
  -0.17000000E+01           0.00000000E+00
  -0.16900000E+01           0.00000000E+00
  -0.16800000E+01           0.00000000E+00
  -0.16700000E+01           0.00000000E+00
  -0.16600000E+01           0.00000000E+00
  -0.16500000E+01           0.00000000E+00
  -0.16400000E+01           0.00000000E+00
  -0.16300000E+01           0.00000000E+00
  -0.16200000E+01           0.00000000E+00
  -0.16100000E+01           0.00000000E+00
  -0.16000000E+01           0.00000000E+00
  -0.15900000E+01           0.00000000E+00
  -0.15800000E+01           0.00000000E+00
  -0.15700000E+01           0.00000000E+00
  -0.15600000E+01           0.00000000E+00
  -0.15500000E+01           0.00000000E+00
  -0.15400000E+01           0.00000000E+00
  -0.15300000E+01           0.00000000E+00
  -0.15200000E+01           0.00000000E+00
  -0.15100000E+01           0.00000000E+00
  -0.15000000E+01           0.00000000E+00
  -0.14900000E+01           0.00000000E+00
  -0.14800000E+01           0.00000000E+00
  -0.14700000E+01           0.00000000E+00
  -0.14600000E+01           0.00000000E+00
  -0.14500000E+01           0.00000000E+00
  -0.14400000E+01           0.00000000E+00
  -0.14300000E+01           0.00000000E+00
  -0.14200000E+01           0.00000000E+00
  -0.14100000E+01           0.00000000E+00
  -0.14000000E+01           0.00000000E+00
  -0.13900000E+01           0.00000000E+00
  -0.13800000E+01           0.00000000E+00
  -0.13700000E+01           0.00000000E+00
  -0.13600000E+01           0.00000000E+00
  -0.13500000E+01           0.00000000E+00
  -0.13400000E+01           0.00000000E+00
  -0.13300000E+01           0.00000000E+00
  -0.13200000E+01           0.00000000E+00
  -0.13100000E+01           0.00000000E+00
  -0.13000000E+01           0.00000000E+00
  -0.12900000E+01           0.00000000E+00
  -0.12800000E+01           0.00000000E+00
  -0.12700000E+01           0.00000000E+00
  -0.12600000E+01           0.00000000E+00
  -0.12500000E+01           0.00000000E+00
  -0.12400000E+01           0.00000000E+00
  -0.12300000E+01           0.00000000E+00
  -0.12200000E+01           0.00000000E+00
  -0.12100000E+01           0.00000000E+00
  -0.12000000E+01           0.00000000E+00
  -0.11900000E+01           0.00000000E+00
  -0.11800000E+01           0.00000000E+00
  -0.11700000E+01           0.00000000E+00
  -0.11600000E+01           0.00000000E+00
  -0.11500000E+01           0.00000000E+00
  -0.11400000E+01           0.00000000E+00
  -0.11300000E+01           0.00000000E+00
  -0.11200000E+01           0.00000000E+00
  -0.11100000E+01           0.00000000E+00
  -0.11000000E+01           0.00000000E+00
  -0.10900000E+01           0.00000000E+00
  -0.10800000E+01           0.00000000E+00
  -0.10700000E+01           0.00000000E+00
  -0.10600000E+01           0.00000000E+00
  -0.10500000E+01           0.00000000E+00
  -0.10400000E+01           0.00000000E+00
  -0.10300000E+01           0.00000000E+00
  -0.10200000E+01           0.00000000E+00
  -0.10100000E+01           0.00000000E+00
  -0.10000000E+01           0.00000000E+00
  -0.99000000E+00           0.00000000E+00
  -0.98000000E+00           0.00000000E+00
  -0.97000000E+00           0.00000000E+00
  -0.96000000E+00           0.00000000E+00
  -0.95000000E+00           0.00000000E+00
  -0.94000000E+00           0.00000000E+00
  -0.93000000E+00           0.00000000E+00
  -0.92000000E+00           0.00000000E+00
  -0.91000000E+00           0.00000000E+00
  -0.90000000E+00           0.00000000E+00
  -0.89000000E+00           0.00000000E+00
  -0.88000000E+00           0.00000000E+00
  -0.87000000E+00           0.00000000E+00
  -0.86000000E+00           0.00000000E+00
  -0.85000000E+00           0.00000000E+00
  -0.84000000E+00           0.00000000E+00
  -0.83000000E+00           0.00000000E+00
  -0.82000000E+00           0.00000000E+00
  -0.81000000E+00           0.00000000E+00
  -0.80000000E+00           0.00000000E+00
  -0.79000000E+00           0.00000000E+00
  -0.78000000E+00           0.00000000E+00
  -0.77000000E+00           0.00000000E+00
  -0.76000000E+00           0.00000000E+00
  -0.75000000E+00           0.00000000E+00
  -0.74000000E+00           0.00000000E+00
  -0.73000000E+00           0.00000000E+00
  -0.72000000E+00           0.00000000E+00
  -0.71000000E+00           0.00000000E+00
  -0.70000000E+00           0.00000000E+00
  -0.69000000E+00           0.00000000E+00
  -0.68000000E+00           0.00000000E+00
  -0.67000000E+00           0.00000000E+00
  -0.66000000E+00           0.00000000E+00
  -0.65000000E+00           0.00000000E+00
  -0.64000000E+00           0.00000000E+00
  -0.63000000E+00           0.00000000E+00
  -0.62000000E+00           0.00000000E+00
  -0.61000000E+00           0.00000000E+00
  -0.60000000E+00           0.00000000E+00
  -0.59000000E+00           0.00000000E+00
  -0.58000000E+00           0.00000000E+00
  -0.57000000E+00           0.00000000E+00
  -0.56000000E+00           0.00000000E+00
  -0.55000000E+00           0.00000000E+00
  -0.54000000E+00           0.00000000E+00
  -0.53000000E+00           0.00000000E+00
  -0.52000000E+00           0.00000000E+00
  -0.51000000E+00           0.00000000E+00
  -0.50000000E+00           0.00000000E+00
  -0.49000000E+00           0.00000000E+00
  -0.48000000E+00           0.00000000E+00
  -0.47000000E+00           0.00000000E+00
  -0.46000000E+00           0.00000000E+00
  -0.45000000E+00           0.00000000E+00
  -0.44000000E+00           0.00000000E+00
  -0.43000000E+00           0.00000000E+00
  -0.42000000E+00           0.00000000E+00
  -0.41000000E+00           0.00000000E+00
  -0.40000000E+00           0.00000000E+00
  -0.39000000E+00           0.00000000E+00
  -0.38000000E+00           0.00000000E+00
  -0.37000000E+00           0.00000000E+00
  -0.36000000E+00           0.00000000E+00
  -0.35000000E+00           0.00000000E+00
  -0.34000000E+00           0.00000000E+00
  -0.33000000E+00           0.00000000E+00
  -0.32000000E+00           0.00000000E+00
  -0.31000000E+00           0.00000000E+00
  -0.30000000E+00           0.00000000E+00
  -0.29000000E+00           0.00000000E+00
  -0.28000000E+00           0.00000000E+00
  -0.27000000E+00           0.00000000E+00
  -0.26000000E+00           0.00000000E+00
  -0.25000000E+00           0.00000000E+00
  -0.24000000E+00           0.00000000E+00
  -0.23000000E+00           0.00000000E+00
  -0.22000000E+00           0.00000000E+00
  -0.21000000E+00           0.00000000E+00
  -0.20000000E+00           0.00000000E+00
  -0.19000000E+00           0.00000000E+00
  -0.18000000E+00           0.00000000E+00
  -0.17000000E+00           0.00000000E+00
  -0.16000000E+00           0.00000000E+00
  -0.15000000E+00           0.00000000E+00
  -0.14000000E+00           0.00000000E+00
  -0.13000000E+00           0.00000000E+00
  -0.12000000E+00           0.00000000E+00
  -0.11000000E+00           0.00000000E+00
  -0.10000000E+00           0.00000000E+00
  -0.90000000E-01           0.00000000E+00
  -0.80000000E-01           0.00000000E+00
  -0.70000000E-01           0.00000000E+00
  -0.60000000E-01           0.00000000E+00
  -0.50000000E-01           0.00000000E+00
  -0.40000000E-01           0.00000000E+00
  -0.30000000E-01           0.00000000E+00
  -0.20000000E-01           0.00000000E+00
  -0.10000000E-01           0.00000000E+00
   0.00000000E+00           0.30864198E-04
   0.10000000E-01           0.80052910E-03
   0.20000000E-01           0.29433862E-02
   0.30000000E-01           0.63664903E-02
   0.40000000E-01           0.11006702E-01
   0.50000000E-01           0.16565079E-01
   0.60000000E-01           0.23315520E-01
   0.70000000E-01           0.30488183E-01
   0.80000000E-01           0.38664550E-01
   0.90000000E-01           0.47783598E-01
   0.10000000E+00           0.57030511E-01
   0.11000000E+00           0.67325750E-01
   0.12000000E+00           0.77860847E-01
   0.13000000E+00           0.88876367E-01
   0.14000000E+00           0.10026508E+00
   0.15000000E+00           0.11173228E+00
   0.16000000E+00           0.12400741E+00
   0.17000000E+00           0.13564533E+00
   0.18000000E+00           0.14867249E+00
   0.19000000E+00           0.16082575E+00
   0.20000000E+00           0.17358413E+00
   0.21000000E+00           0.18677743E+00
   0.22000000E+00           0.20005326E+00
   0.23000000E+00           0.21290952E+00
   0.24000000E+00           0.22611252E+00
   0.25000000E+00           0.23895926E+00
   0.26000000E+00           0.25188554E+00
   0.27000000E+00           0.26457954E+00
   0.28000000E+00           0.27804550E+00
   0.29000000E+00           0.29091940E+00
   0.30000000E+00           0.30396085E+00
   0.31000000E+00           0.31635326E+00
   0.32000000E+00           0.32933668E+00
   0.33000000E+00           0.34209489E+00
   0.34000000E+00           0.35451675E+00
   0.35000000E+00           0.36625326E+00
   0.36000000E+00           0.37883422E+00
   0.37000000E+00           0.39047284E+00
   0.38000000E+00           0.40243351E+00
   0.39000000E+00           0.41407284E+00
   0.40000000E+00           0.42528025E+00
   0.41000000E+00           0.43697778E+00
   0.42000000E+00           0.44796349E+00
   0.43000000E+00           0.45906049E+00
   0.44000000E+00           0.46949312E+00
   0.45000000E+00           0.47974762E+00
   0.46000000E+00           0.49074480E+00
   0.47000000E+00           0.49967425E+00
   0.48000000E+00           0.51094956E+00
   0.49000000E+00           0.51940794E+00
   0.50000000E+00           0.52904374E+00
   0.51000000E+00           0.53799471E+00
   0.52000000E+00           0.54777566E+00
   0.53000000E+00           0.55646437E+00
   0.54000000E+00           0.56473474E+00
   0.55000000E+00           0.57307055E+00
   0.56000000E+00           0.58169206E+00
   0.57000000E+00           0.58879735E+00
   0.58000000E+00           0.59641623E+00
   0.59000000E+00           0.60357778E+00
   0.60000000E+00           0.61144303E+00
   0.61000000E+00           0.61761287E+00
   0.62000000E+00           0.62471728E+00
   0.63000000E+00           0.63151023E+00
   0.64000000E+00           0.63745944E+00
   0.65000000E+00           0.64383845E+00
   0.66000000E+00           0.64977196E+00
   0.67000000E+00           0.65479259E+00
   0.68000000E+00           0.66054938E+00
   0.69000000E+00           0.66496949E+00
   0.70000000E+00           0.66998219E+00
   0.71000000E+00           0.67464691E+00
   0.72000000E+00           0.67865538E+00
   0.73000000E+00           0.68211887E+00
   0.74000000E+00           0.68688060E+00
   0.75000000E+00           0.69020988E+00
   0.76000000E+00           0.69293351E+00
   0.77000000E+00           0.69690229E+00
   0.78000000E+00           0.70041358E+00
   0.79000000E+00           0.70217690E+00
   0.80000000E+00           0.70435961E+00
   0.81000000E+00           0.70680000E+00
   0.82000000E+00           0.70972822E+00
   0.83000000E+00           0.71144268E+00
   0.84000000E+00           0.71321587E+00
   0.85000000E+00           0.71422134E+00
   0.86000000E+00           0.71470212E+00
   0.87000000E+00           0.71630582E+00
   0.88000000E+00           0.71760988E+00
   0.89000000E+00           0.71755802E+00
   0.90000000E+00           0.71833280E+00
   0.91000000E+00           0.71905608E+00
   0.92000000E+00           0.71857707E+00
   0.93000000E+00           0.71849929E+00
   0.94000000E+00           0.71780000E+00
   0.95000000E+00           0.71752240E+00
   0.96000000E+00           0.71592998E+00
   0.97000000E+00           0.71572875E+00
   0.98000000E+00           0.71523069E+00
   0.99000000E+00           0.71364638E+00
   0.10000000E+01           0.71189859E+00
   0.10100000E+01           0.71031746E+00
   0.10200000E+01           0.70820300E+00
   0.10300000E+01           0.70607390E+00
   0.10400000E+01           0.70384497E+00
   0.10500000E+01           0.70171517E+00
   0.10600000E+01           0.69954850E+00
   0.10700000E+01           0.69612487E+00
   0.10800000E+01           0.69344268E+00
   0.10900000E+01           0.69115767E+00
   0.11000000E+01           0.68836631E+00
   0.11100000E+01           0.68435732E+00
   0.11200000E+01           0.68111552E+00
   0.11300000E+01           0.67703457E+00
   0.11400000E+01           0.67337443E+00
   0.11500000E+01           0.67075750E+00
   0.11600000E+01           0.66615855E+00
   0.11700000E+01           0.66200141E+00
   0.11800000E+01           0.65772346E+00
   0.11900000E+01           0.65340370E+00
   0.12000000E+01           0.64946914E+00
   0.12100000E+01           0.64535009E+00
   0.12200000E+01           0.64031570E+00
   0.12300000E+01           0.63576314E+00
   0.12400000E+01           0.63003104E+00
   0.12500000E+01           0.62631182E+00
   0.12600000E+01           0.62130758E+00
   0.12700000E+01           0.61632469E+00
   0.12800000E+01           0.61094374E+00
   0.12900000E+01           0.60558536E+00
   0.13000000E+01           0.60142928E+00
   0.13100000E+01           0.59498995E+00
   0.13200000E+01           0.58919118E+00
   0.13300000E+01           0.58411076E+00
   0.13400000E+01           0.57872716E+00
   0.13500000E+01           0.57318818E+00
   0.13600000E+01           0.56765785E+00
   0.13700000E+01           0.56138959E+00
   0.13800000E+01           0.55622416E+00
   0.13900000E+01           0.54987037E+00
   0.14000000E+01           0.54469559E+00
   0.14100000E+01           0.53815714E+00
   0.14200000E+01           0.53194056E+00
   0.14300000E+01           0.52619859E+00
   0.14400000E+01           0.52003527E+00
   0.14500000E+01           0.51379400E+00
   0.14600000E+01           0.50789048E+00
   0.14700000E+01           0.50198254E+00
   0.14800000E+01           0.49505996E+00
   0.14900000E+01           0.48912557E+00
   0.15000000E+01           0.48287549E+00
   0.15100000E+01           0.47691499E+00
   0.15200000E+01           0.47101093E+00
   0.15300000E+01           0.46462293E+00
   0.15400000E+01           0.45824145E+00
   0.15500000E+01           0.45227601E+00
   0.15600000E+01           0.44550670E+00
   0.15700000E+01           0.43990494E+00
   0.15800000E+01           0.43332328E+00
   0.15900000E+01           0.42686155E+00
   0.16000000E+01           0.42080441E+00
   0.16100000E+01           0.41407319E+00
   0.16200000E+01           0.40840794E+00
   0.16300000E+01           0.40280600E+00
   0.16400000E+01           0.39619947E+00
   0.16500000E+01           0.38956314E+00
   0.16600000E+01           0.38348483E+00
   0.16700000E+01           0.37791693E+00
   0.16800000E+01           0.37177337E+00
   0.16900000E+01           0.36537549E+00
   0.17000000E+01           0.36002610E+00
   0.17100000E+01           0.35355326E+00
   0.17200000E+01           0.34742487E+00
   0.17300000E+01           0.34179965E+00
   0.17400000E+01           0.33595344E+00
   0.17500000E+01           0.32994885E+00
   0.17600000E+01           0.32430370E+00
   0.17700000E+01           0.31846120E+00
   0.17800000E+01           0.31307390E+00
   0.17900000E+01           0.30724145E+00
   0.18000000E+01           0.30152116E+00
   0.18100000E+01           0.29620300E+00
   0.18200000E+01           0.29058748E+00
   0.18300000E+01           0.28514409E+00
   0.18400000E+01           0.27992081E+00
   0.18500000E+01           0.27448042E+00
   0.18600000E+01           0.26908695E+00
   0.18700000E+01           0.26390529E+00
   0.18800000E+01           0.25862416E+00
   0.18900000E+01           0.25307795E+00
   0.19000000E+01           0.24853263E+00
   0.19100000E+01           0.24344374E+00
   0.19200000E+01           0.23800212E+00
   0.19300000E+01           0.23345397E+00
   0.19400000E+01           0.22813616E+00
   0.19500000E+01           0.22365326E+00
   0.19600000E+01           0.21906490E+00
   0.19700000E+01           0.21416014E+00
   0.19800000E+01           0.20957337E+00
   0.19900000E+01           0.20463333E+00
   0.20000000E+01           0.20057390E+00
   0.20100000E+01           0.19599965E+00
   0.20200000E+01           0.19172822E+00
   0.20300000E+01           0.18704462E+00
   0.20400000E+01           0.18296226E+00
   0.20500000E+01           0.17841429E+00
   0.20600000E+01           0.17457919E+00
   0.20700000E+01           0.17036949E+00
   0.20800000E+01           0.16652628E+00
   0.20900000E+01           0.16204356E+00
   0.21000000E+01           0.15853757E+00
   0.21100000E+01           0.15462205E+00
   0.21200000E+01           0.15093034E+00
   0.21300000E+01           0.14699612E+00
   0.21400000E+01           0.14327831E+00
   0.21500000E+01           0.13989295E+00
   0.21600000E+01           0.13622081E+00
   0.21700000E+01           0.13297478E+00
   0.21800000E+01           0.12937743E+00
   0.21900000E+01           0.12588060E+00
   0.22000000E+01           0.12293139E+00
   0.22100000E+01           0.11932205E+00
   0.22200000E+01           0.11654656E+00
   0.22300000E+01           0.11328448E+00
   0.22400000E+01           0.11036332E+00
   0.22500000E+01           0.10767178E+00
   0.22600000E+01           0.10436367E+00
   0.22700000E+01           0.10148025E+00
   0.22800000E+01           0.98631393E-01
   0.22900000E+01           0.95958554E-01
   0.23000000E+01           0.93381834E-01
   0.23100000E+01           0.90515168E-01
   0.23200000E+01           0.87981305E-01
   0.23300000E+01           0.85403175E-01
   0.23400000E+01           0.83133157E-01
   0.23500000E+01           0.80596825E-01
   0.23600000E+01           0.78252557E-01
   0.23700000E+01           0.75854850E-01
   0.23800000E+01           0.73889594E-01
   0.23900000E+01           0.71626279E-01
   0.24000000E+01           0.69439859E-01
   0.24100000E+01           0.67155908E-01
   0.24200000E+01           0.65281129E-01
   0.24300000E+01           0.63329453E-01
   0.24400000E+01           0.61246914E-01
   0.24500000E+01           0.59313051E-01
   0.24600000E+01           0.57453792E-01
   0.24700000E+01           0.55761376E-01
   0.24800000E+01           0.53949559E-01
   0.24900000E+01           0.52179189E-01
   0.25000000E+01           0.50402293E-01
   0.25100000E+01           0.48847795E-01
   0.25200000E+01           0.47204586E-01
   0.25300000E+01           0.45527160E-01
   0.25400000E+01           0.43929806E-01
   0.25500000E+01           0.42462787E-01
   0.25600000E+01           0.41218342E-01
   0.25700000E+01           0.39801764E-01
   0.25800000E+01           0.38369489E-01
   0.25900000E+01           0.37112875E-01
   0.26000000E+01           0.35779012E-01
   0.26100000E+01           0.34421164E-01
   0.26200000E+01           0.33213580E-01
   0.26300000E+01           0.32204762E-01
   0.26400000E+01           0.30867196E-01
   0.26500000E+01           0.29964550E-01
   0.26600000E+01           0.28710582E-01
   0.26700000E+01           0.27713404E-01
   0.26800000E+01           0.26607231E-01
   0.26900000E+01           0.25601764E-01
   0.27000000E+01           0.24713933E-01
   0.27100000E+01           0.23754321E-01
   0.27200000E+01           0.22925573E-01
   0.27300000E+01           0.21933510E-01
   0.27400000E+01           0.21232628E-01
   0.27500000E+01           0.20452734E-01
   0.27600000E+01           0.19456966E-01
   0.27700000E+01           0.18811993E-01
   0.27800000E+01           0.17969136E-01
   0.27900000E+01           0.17279718E-01
   0.28000000E+01           0.16607055E-01
   0.28100000E+01           0.15932981E-01
   0.28200000E+01           0.15295767E-01
   0.28300000E+01           0.14754145E-01
   0.28400000E+01           0.14092416E-01
   0.28500000E+01           0.13443563E-01
   0.28600000E+01           0.13051852E-01
   0.28700000E+01           0.12324339E-01
   0.28800000E+01           0.11862081E-01
   0.28900000E+01           0.11321869E-01
   0.29000000E+01           0.10863845E-01
   0.29100000E+01           0.10392769E-01
   0.29200000E+01           0.99186949E-02
   0.29300000E+01           0.94541446E-02
   0.29400000E+01           0.89918871E-02
   0.29500000E+01           0.86088183E-02
   0.29600000E+01           0.82097002E-02
   0.29700000E+01           0.78594356E-02
   0.29800000E+01           0.74910053E-02
   0.29900000E+01           0.71869489E-02
   0.30000000E+01           0.68359788E-02
   0.30100000E+01           0.65255732E-02
   0.30200000E+01           0.62548501E-02
   0.30300000E+01           0.58878307E-02
   0.30400000E+01           0.56287478E-02
   0.30500000E+01           0.53901235E-02
   0.30600000E+01           0.51179894E-02
   0.30700000E+01           0.48522046E-02
   0.30800000E+01           0.46730159E-02
   0.30900000E+01           0.43927690E-02
   0.31000000E+01           0.41590829E-02
   0.31100000E+01           0.39730159E-02
   0.31200000E+01           0.37957672E-02
   0.31300000E+01           0.35705467E-02
   0.31400000E+01           0.33763668E-02
   0.31500000E+01           0.31737213E-02
   0.31600000E+01           0.30539683E-02
   0.31700000E+01           0.28679012E-02
   0.31800000E+01           0.27165785E-02
   0.31900000E+01           0.25449735E-02
   0.32000000E+01           0.24208113E-02
   0.32100000E+01           0.23042328E-02
   0.32200000E+01           0.21393298E-02
   0.32300000E+01           0.20190476E-02
   0.32400000E+01           0.19292769E-02
   0.32500000E+01           0.18255732E-02
   0.32600000E+01           0.17017637E-02
   0.32700000E+01           0.16183422E-02
   0.32800000E+01           0.15033510E-02
   0.32900000E+01           0.14132275E-02
   0.33000000E+01           0.13377425E-02
   0.33100000E+01           0.12280423E-02
   0.33200000E+01           0.11633157E-02
   0.33300000E+01           0.11000000E-02
   0.33400000E+01           0.10543210E-02
   0.33500000E+01           0.97619048E-03
   0.33600000E+01           0.91128748E-03
   0.33700000E+01           0.86825397E-03
   0.33800000E+01           0.79365079E-03
   0.33900000E+01           0.75008818E-03
   0.34000000E+01           0.70846561E-03
   0.34100000E+01           0.65449735E-03
   0.34200000E+01           0.61499118E-03
   0.34300000E+01           0.57513228E-03
   0.34400000E+01           0.53121693E-03
   0.34500000E+01           0.49171076E-03
   0.34600000E+01           0.45061728E-03
   0.34700000E+01           0.42045855E-03
   0.34800000E+01           0.40052910E-03
   0.34900000E+01           0.36402116E-03
   0.35000000E+01           0.34673721E-03
   0.35100000E+01           0.31146384E-03
   0.35200000E+01           0.29312169E-03
   0.35300000E+01           0.27407407E-03
   0.35400000E+01           0.24373898E-03
   0.35500000E+01           0.21798942E-03
   0.35600000E+01           0.20123457E-03
   0.35700000E+01           0.18606702E-03
   0.35800000E+01           0.17266314E-03
   0.35900000E+01           0.16490300E-03
   0.36000000E+01           0.14444444E-03
   0.36100000E+01           0.14056437E-03
   0.36200000E+01           0.11922399E-03
   0.36300000E+01           0.11781305E-03
   0.36400000E+01           0.10388007E-03
   0.36500000E+01           0.94356261E-04
   0.36600000E+01           0.84656085E-04
   0.36700000E+01           0.73192240E-04
   0.36800000E+01           0.64197531E-04
   0.36900000E+01           0.58730159E-04
   0.37000000E+01           0.50970018E-04
   0.37100000E+01           0.44444444E-04
   0.37200000E+01           0.40740741E-04
   0.37300000E+01           0.41975309E-04
   0.37400000E+01           0.32098765E-04
   0.37500000E+01           0.30511464E-04
   0.37600000E+01           0.29453263E-04
   0.37700000E+01           0.20282187E-04
   0.37800000E+01           0.20987654E-04
   0.37900000E+01           0.20811287E-04
   0.38000000E+01           0.14991182E-04
   0.38100000E+01           0.17636684E-04
   0.38200000E+01           0.14109347E-04
   0.38300000E+01           0.84656085E-05
   0.38400000E+01           0.67019400E-05
   0.38500000E+01           0.65255732E-05
   0.38600000E+01           0.68783069E-05
   0.38700000E+01           0.54673721E-05
   0.38800000E+01           0.28218695E-05
   0.38900000E+01           0.29982363E-05
   0.39000000E+01           0.26455026E-05
   0.39100000E+01           0.12345679E-05
   0.39200000E+01           0.14109347E-05
   0.39300000E+01           0.14109347E-05
   0.39400000E+01           0.52910053E-06
   0.39500000E+01           0.52910053E-06
   0.39600000E+01           0.00000000E+00
   0.39700000E+01           0.17636684E-06
   0.39800000E+01           0.00000000E+00
   0.39900000E+01           0.17636684E-06
   0.40000000E+01           0.00000000E+00
 #T=    61.0000
  -0.40000000E+01           0.00000000E+00
  -0.39900000E+01           0.00000000E+00
  -0.39800000E+01           0.00000000E+00
  -0.39700000E+01           0.00000000E+00
  -0.39600000E+01           0.00000000E+00
  -0.39500000E+01           0.00000000E+00
  -0.39400000E+01           0.00000000E+00
  -0.39300000E+01           0.00000000E+00
  -0.39200000E+01           0.00000000E+00
  -0.39100000E+01           0.00000000E+00
  -0.39000000E+01           0.00000000E+00
  -0.38900000E+01           0.00000000E+00
  -0.38800000E+01           0.00000000E+00
  -0.38700000E+01           0.00000000E+00
  -0.38600000E+01           0.00000000E+00
  -0.38500000E+01           0.00000000E+00
  -0.38400000E+01           0.00000000E+00
  -0.38300000E+01           0.00000000E+00
  -0.38200000E+01           0.00000000E+00
  -0.38100000E+01           0.00000000E+00
  -0.38000000E+01           0.00000000E+00
  -0.37900000E+01           0.00000000E+00
  -0.37800000E+01           0.00000000E+00
  -0.37700000E+01           0.00000000E+00
  -0.37600000E+01           0.00000000E+00
  -0.37500000E+01           0.00000000E+00
  -0.37400000E+01           0.00000000E+00
  -0.37300000E+01           0.00000000E+00
  -0.37200000E+01           0.00000000E+00
  -0.37100000E+01           0.00000000E+00
  -0.37000000E+01           0.00000000E+00
  -0.36900000E+01           0.00000000E+00
  -0.36800000E+01           0.00000000E+00
  -0.36700000E+01           0.00000000E+00
  -0.36600000E+01           0.00000000E+00
  -0.36500000E+01           0.00000000E+00
  -0.36400000E+01           0.00000000E+00
  -0.36300000E+01           0.00000000E+00
  -0.36200000E+01           0.00000000E+00
  -0.36100000E+01           0.00000000E+00
  -0.36000000E+01           0.00000000E+00
  -0.35900000E+01           0.00000000E+00
  -0.35800000E+01           0.00000000E+00
  -0.35700000E+01           0.00000000E+00
  -0.35600000E+01           0.00000000E+00
  -0.35500000E+01           0.00000000E+00
  -0.35400000E+01           0.00000000E+00
  -0.35300000E+01           0.00000000E+00
  -0.35200000E+01           0.00000000E+00
  -0.35100000E+01           0.00000000E+00
  -0.35000000E+01           0.00000000E+00
  -0.34900000E+01           0.00000000E+00
  -0.34800000E+01           0.00000000E+00
  -0.34700000E+01           0.00000000E+00
  -0.34600000E+01           0.00000000E+00
  -0.34500000E+01           0.00000000E+00
  -0.34400000E+01           0.00000000E+00
  -0.34300000E+01           0.00000000E+00
  -0.34200000E+01           0.00000000E+00
  -0.34100000E+01           0.00000000E+00
  -0.34000000E+01           0.00000000E+00
  -0.33900000E+01           0.00000000E+00
  -0.33800000E+01           0.00000000E+00
  -0.33700000E+01           0.00000000E+00
  -0.33600000E+01           0.00000000E+00
  -0.33500000E+01           0.00000000E+00
  -0.33400000E+01           0.00000000E+00
  -0.33300000E+01           0.00000000E+00
  -0.33200000E+01           0.00000000E+00
  -0.33100000E+01           0.00000000E+00
  -0.33000000E+01           0.00000000E+00
  -0.32900000E+01           0.00000000E+00
  -0.32800000E+01           0.00000000E+00
  -0.32700000E+01           0.00000000E+00
  -0.32600000E+01           0.00000000E+00
  -0.32500000E+01           0.00000000E+00
  -0.32400000E+01           0.00000000E+00
  -0.32300000E+01           0.00000000E+00
  -0.32200000E+01           0.00000000E+00
  -0.32100000E+01           0.00000000E+00
  -0.32000000E+01           0.00000000E+00
  -0.31900000E+01           0.00000000E+00
  -0.31800000E+01           0.00000000E+00
  -0.31700000E+01           0.00000000E+00
  -0.31600000E+01           0.00000000E+00
  -0.31500000E+01           0.00000000E+00
  -0.31400000E+01           0.00000000E+00
  -0.31300000E+01           0.00000000E+00
  -0.31200000E+01           0.00000000E+00
  -0.31100000E+01           0.00000000E+00
  -0.31000000E+01           0.00000000E+00
  -0.30900000E+01           0.00000000E+00
  -0.30800000E+01           0.00000000E+00
  -0.30700000E+01           0.00000000E+00
  -0.30600000E+01           0.00000000E+00
  -0.30500000E+01           0.00000000E+00
  -0.30400000E+01           0.00000000E+00
  -0.30300000E+01           0.00000000E+00
  -0.30200000E+01           0.00000000E+00
  -0.30100000E+01           0.00000000E+00
  -0.30000000E+01           0.00000000E+00
  -0.29900000E+01           0.00000000E+00
  -0.29800000E+01           0.00000000E+00
  -0.29700000E+01           0.00000000E+00
  -0.29600000E+01           0.00000000E+00
  -0.29500000E+01           0.00000000E+00
  -0.29400000E+01           0.00000000E+00
  -0.29300000E+01           0.00000000E+00
  -0.29200000E+01           0.00000000E+00
  -0.29100000E+01           0.00000000E+00
  -0.29000000E+01           0.00000000E+00
  -0.28900000E+01           0.00000000E+00
  -0.28800000E+01           0.00000000E+00
  -0.28700000E+01           0.00000000E+00
  -0.28600000E+01           0.00000000E+00
  -0.28500000E+01           0.00000000E+00
  -0.28400000E+01           0.00000000E+00
  -0.28300000E+01           0.00000000E+00
  -0.28200000E+01           0.00000000E+00
  -0.28100000E+01           0.00000000E+00
  -0.28000000E+01           0.00000000E+00
  -0.27900000E+01           0.00000000E+00
  -0.27800000E+01           0.00000000E+00
  -0.27700000E+01           0.00000000E+00
  -0.27600000E+01           0.00000000E+00
  -0.27500000E+01           0.00000000E+00
  -0.27400000E+01           0.00000000E+00
  -0.27300000E+01           0.00000000E+00
  -0.27200000E+01           0.00000000E+00
  -0.27100000E+01           0.00000000E+00
  -0.27000000E+01           0.00000000E+00
  -0.26900000E+01           0.00000000E+00
  -0.26800000E+01           0.00000000E+00
  -0.26700000E+01           0.00000000E+00
  -0.26600000E+01           0.00000000E+00
  -0.26500000E+01           0.00000000E+00
  -0.26400000E+01           0.00000000E+00
  -0.26300000E+01           0.00000000E+00
  -0.26200000E+01           0.00000000E+00
  -0.26100000E+01           0.00000000E+00
  -0.26000000E+01           0.00000000E+00
  -0.25900000E+01           0.00000000E+00
  -0.25800000E+01           0.00000000E+00
  -0.25700000E+01           0.00000000E+00
  -0.25600000E+01           0.00000000E+00
  -0.25500000E+01           0.00000000E+00
  -0.25400000E+01           0.00000000E+00
  -0.25300000E+01           0.00000000E+00
  -0.25200000E+01           0.00000000E+00
  -0.25100000E+01           0.00000000E+00
  -0.25000000E+01           0.00000000E+00
  -0.24900000E+01           0.00000000E+00
  -0.24800000E+01           0.00000000E+00
  -0.24700000E+01           0.00000000E+00
  -0.24600000E+01           0.00000000E+00
  -0.24500000E+01           0.00000000E+00
  -0.24400000E+01           0.00000000E+00
  -0.24300000E+01           0.00000000E+00
  -0.24200000E+01           0.00000000E+00
  -0.24100000E+01           0.00000000E+00
  -0.24000000E+01           0.00000000E+00
  -0.23900000E+01           0.00000000E+00
  -0.23800000E+01           0.00000000E+00
  -0.23700000E+01           0.00000000E+00
  -0.23600000E+01           0.00000000E+00
  -0.23500000E+01           0.00000000E+00
  -0.23400000E+01           0.00000000E+00
  -0.23300000E+01           0.00000000E+00
  -0.23200000E+01           0.00000000E+00
  -0.23100000E+01           0.00000000E+00
  -0.23000000E+01           0.00000000E+00
  -0.22900000E+01           0.00000000E+00
  -0.22800000E+01           0.00000000E+00
  -0.22700000E+01           0.00000000E+00
  -0.22600000E+01           0.00000000E+00
  -0.22500000E+01           0.00000000E+00
  -0.22400000E+01           0.00000000E+00
  -0.22300000E+01           0.00000000E+00
  -0.22200000E+01           0.00000000E+00
  -0.22100000E+01           0.00000000E+00
  -0.22000000E+01           0.00000000E+00
  -0.21900000E+01           0.00000000E+00
  -0.21800000E+01           0.00000000E+00
  -0.21700000E+01           0.00000000E+00
  -0.21600000E+01           0.00000000E+00
  -0.21500000E+01           0.00000000E+00
  -0.21400000E+01           0.00000000E+00
  -0.21300000E+01           0.00000000E+00
  -0.21200000E+01           0.00000000E+00
  -0.21100000E+01           0.00000000E+00
  -0.21000000E+01           0.00000000E+00
  -0.20900000E+01           0.00000000E+00
  -0.20800000E+01           0.00000000E+00
  -0.20700000E+01           0.00000000E+00
  -0.20600000E+01           0.00000000E+00
  -0.20500000E+01           0.00000000E+00
  -0.20400000E+01           0.00000000E+00
  -0.20300000E+01           0.00000000E+00
  -0.20200000E+01           0.00000000E+00
  -0.20100000E+01           0.00000000E+00
  -0.20000000E+01           0.00000000E+00
  -0.19900000E+01           0.00000000E+00
  -0.19800000E+01           0.00000000E+00
  -0.19700000E+01           0.00000000E+00
  -0.19600000E+01           0.00000000E+00
  -0.19500000E+01           0.00000000E+00
  -0.19400000E+01           0.00000000E+00
  -0.19300000E+01           0.00000000E+00
  -0.19200000E+01           0.00000000E+00
  -0.19100000E+01           0.00000000E+00
  -0.19000000E+01           0.00000000E+00
  -0.18900000E+01           0.00000000E+00
  -0.18800000E+01           0.00000000E+00
  -0.18700000E+01           0.00000000E+00
  -0.18600000E+01           0.00000000E+00
  -0.18500000E+01           0.00000000E+00
  -0.18400000E+01           0.00000000E+00
  -0.18300000E+01           0.00000000E+00
  -0.18200000E+01           0.00000000E+00
  -0.18100000E+01           0.00000000E+00
  -0.18000000E+01           0.00000000E+00
  -0.17900000E+01           0.00000000E+00
  -0.17800000E+01           0.00000000E+00
  -0.17700000E+01           0.00000000E+00
  -0.17600000E+01           0.00000000E+00
  -0.17500000E+01           0.00000000E+00
  -0.17400000E+01           0.00000000E+00
  -0.17300000E+01           0.00000000E+00
  -0.17200000E+01           0.00000000E+00
  -0.17100000E+01           0.00000000E+00
  -0.17000000E+01           0.00000000E+00
  -0.16900000E+01           0.00000000E+00
  -0.16800000E+01           0.00000000E+00
  -0.16700000E+01           0.00000000E+00
  -0.16600000E+01           0.00000000E+00
  -0.16500000E+01           0.00000000E+00
  -0.16400000E+01           0.00000000E+00
  -0.16300000E+01           0.00000000E+00
  -0.16200000E+01           0.00000000E+00
  -0.16100000E+01           0.00000000E+00
  -0.16000000E+01           0.00000000E+00
  -0.15900000E+01           0.00000000E+00
  -0.15800000E+01           0.00000000E+00
  -0.15700000E+01           0.00000000E+00
  -0.15600000E+01           0.00000000E+00
  -0.15500000E+01           0.00000000E+00
  -0.15400000E+01           0.00000000E+00
  -0.15300000E+01           0.00000000E+00
  -0.15200000E+01           0.00000000E+00
  -0.15100000E+01           0.00000000E+00
  -0.15000000E+01           0.00000000E+00
  -0.14900000E+01           0.00000000E+00
  -0.14800000E+01           0.00000000E+00
  -0.14700000E+01           0.00000000E+00
  -0.14600000E+01           0.00000000E+00
  -0.14500000E+01           0.00000000E+00
  -0.14400000E+01           0.00000000E+00
  -0.14300000E+01           0.00000000E+00
  -0.14200000E+01           0.00000000E+00
  -0.14100000E+01           0.00000000E+00
  -0.14000000E+01           0.00000000E+00
  -0.13900000E+01           0.00000000E+00
  -0.13800000E+01           0.00000000E+00
  -0.13700000E+01           0.00000000E+00
  -0.13600000E+01           0.00000000E+00
  -0.13500000E+01           0.00000000E+00
  -0.13400000E+01           0.00000000E+00
  -0.13300000E+01           0.00000000E+00
  -0.13200000E+01           0.00000000E+00
  -0.13100000E+01           0.00000000E+00
  -0.13000000E+01           0.00000000E+00
  -0.12900000E+01           0.00000000E+00
  -0.12800000E+01           0.00000000E+00
  -0.12700000E+01           0.00000000E+00
  -0.12600000E+01           0.00000000E+00
  -0.12500000E+01           0.00000000E+00
  -0.12400000E+01           0.00000000E+00
  -0.12300000E+01           0.00000000E+00
  -0.12200000E+01           0.00000000E+00
  -0.12100000E+01           0.00000000E+00
  -0.12000000E+01           0.00000000E+00
  -0.11900000E+01           0.00000000E+00
  -0.11800000E+01           0.00000000E+00
  -0.11700000E+01           0.00000000E+00
  -0.11600000E+01           0.00000000E+00
  -0.11500000E+01           0.00000000E+00
  -0.11400000E+01           0.00000000E+00
  -0.11300000E+01           0.00000000E+00
  -0.11200000E+01           0.00000000E+00
  -0.11100000E+01           0.00000000E+00
  -0.11000000E+01           0.00000000E+00
  -0.10900000E+01           0.00000000E+00
  -0.10800000E+01           0.00000000E+00
  -0.10700000E+01           0.00000000E+00
  -0.10600000E+01           0.00000000E+00
  -0.10500000E+01           0.00000000E+00
  -0.10400000E+01           0.00000000E+00
  -0.10300000E+01           0.00000000E+00
  -0.10200000E+01           0.00000000E+00
  -0.10100000E+01           0.00000000E+00
  -0.10000000E+01           0.00000000E+00
  -0.99000000E+00           0.00000000E+00
  -0.98000000E+00           0.00000000E+00
  -0.97000000E+00           0.00000000E+00
  -0.96000000E+00           0.00000000E+00
  -0.95000000E+00           0.00000000E+00
  -0.94000000E+00           0.00000000E+00
  -0.93000000E+00           0.00000000E+00
  -0.92000000E+00           0.00000000E+00
  -0.91000000E+00           0.00000000E+00
  -0.90000000E+00           0.00000000E+00
  -0.89000000E+00           0.00000000E+00
  -0.88000000E+00           0.00000000E+00
  -0.87000000E+00           0.00000000E+00
  -0.86000000E+00           0.00000000E+00
  -0.85000000E+00           0.00000000E+00
  -0.84000000E+00           0.00000000E+00
  -0.83000000E+00           0.00000000E+00
  -0.82000000E+00           0.00000000E+00
  -0.81000000E+00           0.00000000E+00
  -0.80000000E+00           0.00000000E+00
  -0.79000000E+00           0.00000000E+00
  -0.78000000E+00           0.00000000E+00
  -0.77000000E+00           0.00000000E+00
  -0.76000000E+00           0.00000000E+00
  -0.75000000E+00           0.00000000E+00
  -0.74000000E+00           0.00000000E+00
  -0.73000000E+00           0.00000000E+00
  -0.72000000E+00           0.00000000E+00
  -0.71000000E+00           0.00000000E+00
  -0.70000000E+00           0.00000000E+00
  -0.69000000E+00           0.00000000E+00
  -0.68000000E+00           0.00000000E+00
  -0.67000000E+00           0.00000000E+00
  -0.66000000E+00           0.00000000E+00
  -0.65000000E+00           0.00000000E+00
  -0.64000000E+00           0.00000000E+00
  -0.63000000E+00           0.00000000E+00
  -0.62000000E+00           0.00000000E+00
  -0.61000000E+00           0.00000000E+00
  -0.60000000E+00           0.00000000E+00
  -0.59000000E+00           0.00000000E+00
  -0.58000000E+00           0.00000000E+00
  -0.57000000E+00           0.00000000E+00
  -0.56000000E+00           0.00000000E+00
  -0.55000000E+00           0.00000000E+00
  -0.54000000E+00           0.00000000E+00
  -0.53000000E+00           0.00000000E+00
  -0.52000000E+00           0.00000000E+00
  -0.51000000E+00           0.00000000E+00
  -0.50000000E+00           0.00000000E+00
  -0.49000000E+00           0.00000000E+00
  -0.48000000E+00           0.00000000E+00
  -0.47000000E+00           0.00000000E+00
  -0.46000000E+00           0.00000000E+00
  -0.45000000E+00           0.00000000E+00
  -0.44000000E+00           0.00000000E+00
  -0.43000000E+00           0.00000000E+00
  -0.42000000E+00           0.00000000E+00
  -0.41000000E+00           0.00000000E+00
  -0.40000000E+00           0.00000000E+00
  -0.39000000E+00           0.00000000E+00
  -0.38000000E+00           0.00000000E+00
  -0.37000000E+00           0.00000000E+00
  -0.36000000E+00           0.00000000E+00
  -0.35000000E+00           0.00000000E+00
  -0.34000000E+00           0.00000000E+00
  -0.33000000E+00           0.00000000E+00
  -0.32000000E+00           0.00000000E+00
  -0.31000000E+00           0.00000000E+00
  -0.30000000E+00           0.00000000E+00
  -0.29000000E+00           0.00000000E+00
  -0.28000000E+00           0.00000000E+00
  -0.27000000E+00           0.00000000E+00
  -0.26000000E+00           0.00000000E+00
  -0.25000000E+00           0.00000000E+00
  -0.24000000E+00           0.00000000E+00
  -0.23000000E+00           0.00000000E+00
  -0.22000000E+00           0.00000000E+00
  -0.21000000E+00           0.00000000E+00
  -0.20000000E+00           0.00000000E+00
  -0.19000000E+00           0.00000000E+00
  -0.18000000E+00           0.00000000E+00
  -0.17000000E+00           0.00000000E+00
  -0.16000000E+00           0.00000000E+00
  -0.15000000E+00           0.00000000E+00
  -0.14000000E+00           0.00000000E+00
  -0.13000000E+00           0.00000000E+00
  -0.12000000E+00           0.00000000E+00
  -0.11000000E+00           0.00000000E+00
  -0.10000000E+00           0.00000000E+00
  -0.90000000E-01           0.00000000E+00
  -0.80000000E-01           0.00000000E+00
  -0.70000000E-01           0.00000000E+00
  -0.60000000E-01           0.00000000E+00
  -0.50000000E-01           0.00000000E+00
  -0.40000000E-01           0.00000000E+00
  -0.30000000E-01           0.00000000E+00
  -0.20000000E-01           0.00000000E+00
  -0.10000000E-01           0.00000000E+00
   0.00000000E+00           0.28747795E-04
   0.10000000E-01           0.76067019E-03
   0.20000000E-01           0.28282187E-02
   0.30000000E-01           0.61590829E-02
   0.40000000E-01           0.10534744E-01
   0.50000000E-01           0.15923986E-01
   0.60000000E-01           0.22223633E-01
   0.70000000E-01           0.29498413E-01
   0.80000000E-01           0.37538977E-01
   0.90000000E-01           0.45993827E-01
   0.10000000E+00           0.55221164E-01
   0.11000000E+00           0.64872663E-01
   0.12000000E+00           0.75214109E-01
   0.13000000E+00           0.85835097E-01
   0.14000000E+00           0.96881129E-01
   0.15000000E+00           0.10816384E+00
   0.16000000E+00           0.12034832E+00
   0.17000000E+00           0.13180247E+00
   0.18000000E+00           0.14398289E+00
   0.19000000E+00           0.15617831E+00
   0.20000000E+00           0.16868483E+00
   0.21000000E+00           0.18105168E+00
   0.22000000E+00           0.19392310E+00
   0.23000000E+00           0.20682451E+00
   0.24000000E+00           0.21941323E+00
   0.25000000E+00           0.23223774E+00
   0.26000000E+00           0.24497531E+00
   0.27000000E+00           0.25756173E+00
   0.28000000E+00           0.26959383E+00
   0.29000000E+00           0.28321481E+00
   0.30000000E+00           0.29595273E+00
   0.31000000E+00           0.30841640E+00
   0.32000000E+00           0.32087513E+00
   0.33000000E+00           0.33336173E+00
   0.34000000E+00           0.34530265E+00
   0.35000000E+00           0.35732099E+00
   0.36000000E+00           0.36914409E+00
   0.37000000E+00           0.38163580E+00
   0.38000000E+00           0.39270247E+00
   0.39000000E+00           0.40479965E+00
   0.40000000E+00           0.41531481E+00
   0.41000000E+00           0.42671499E+00
   0.42000000E+00           0.43814074E+00
   0.43000000E+00           0.44916332E+00
   0.44000000E+00           0.45892046E+00
   0.45000000E+00           0.47002769E+00
   0.46000000E+00           0.47971746E+00
   0.47000000E+00           0.48965185E+00
   0.48000000E+00           0.49932504E+00
   0.49000000E+00           0.50918148E+00
   0.50000000E+00           0.51900265E+00
   0.51000000E+00           0.52840071E+00
   0.52000000E+00           0.53702063E+00
   0.53000000E+00           0.54560159E+00
   0.54000000E+00           0.55399083E+00
   0.55000000E+00           0.56229982E+00
   0.56000000E+00           0.57073139E+00
   0.57000000E+00           0.57904603E+00
   0.58000000E+00           0.58597866E+00
   0.59000000E+00           0.59355503E+00
   0.60000000E+00           0.60105591E+00
   0.61000000E+00           0.60727566E+00
   0.62000000E+00           0.61459912E+00
   0.63000000E+00           0.62091534E+00
   0.64000000E+00           0.62701605E+00
   0.65000000E+00           0.63327972E+00
   0.66000000E+00           0.63902928E+00
   0.67000000E+00           0.64451781E+00
   0.68000000E+00           0.65006878E+00
   0.69000000E+00           0.65517037E+00
   0.70000000E+00           0.66064021E+00
   0.71000000E+00           0.66535538E+00
   0.72000000E+00           0.66890917E+00
   0.73000000E+00           0.67324180E+00
   0.74000000E+00           0.67732857E+00
   0.75000000E+00           0.68125485E+00
   0.76000000E+00           0.68465714E+00
   0.77000000E+00           0.68826561E+00
   0.78000000E+00           0.69095556E+00
   0.79000000E+00           0.69337037E+00
   0.80000000E+00           0.69709012E+00
   0.81000000E+00           0.69897496E+00
   0.82000000E+00           0.70083598E+00
   0.83000000E+00           0.70326173E+00
   0.84000000E+00           0.70526332E+00
   0.85000000E+00           0.70689877E+00
   0.86000000E+00           0.70773333E+00
   0.87000000E+00           0.70895873E+00
   0.88000000E+00           0.70983034E+00
   0.89000000E+00           0.71111887E+00
   0.90000000E+00           0.71185309E+00
   0.91000000E+00           0.71185326E+00
   0.92000000E+00           0.71252928E+00
   0.93000000E+00           0.71225961E+00
   0.94000000E+00           0.71168501E+00
   0.95000000E+00           0.71186772E+00
   0.96000000E+00           0.71176473E+00
   0.97000000E+00           0.70994515E+00
   0.98000000E+00           0.70950212E+00
   0.99000000E+00           0.70764832E+00
   0.10000000E+01           0.70692804E+00
   0.10100000E+01           0.70506279E+00
   0.10200000E+01           0.70344303E+00
   0.10300000E+01           0.70171993E+00
   0.10400000E+01           0.69972681E+00
   0.10500000E+01           0.69756455E+00
   0.10600000E+01           0.69550494E+00
   0.10700000E+01           0.69364409E+00
   0.10800000E+01           0.69120265E+00
   0.10900000E+01           0.68812240E+00
   0.11000000E+01           0.68492751E+00
   0.11100000E+01           0.68180564E+00
   0.11200000E+01           0.67877919E+00
   0.11300000E+01           0.67564974E+00
   0.11400000E+01           0.67171817E+00
   0.11500000E+01           0.66834938E+00
   0.11600000E+01           0.66482716E+00
   0.11700000E+01           0.66101570E+00
   0.11800000E+01           0.65725697E+00
   0.11900000E+01           0.65290212E+00
   0.12000000E+01           0.64960053E+00
   0.12100000E+01           0.64506490E+00
   0.12200000E+01           0.64010423E+00
   0.12300000E+01           0.63596067E+00
   0.12400000E+01           0.63137072E+00
   0.12500000E+01           0.62698519E+00
   0.12600000E+01           0.62225661E+00
   0.12700000E+01           0.61756085E+00
   0.12800000E+01           0.61221728E+00
   0.12900000E+01           0.60670635E+00
   0.13000000E+01           0.60233104E+00
   0.13100000E+01           0.59664180E+00
   0.13200000E+01           0.59215750E+00
   0.13300000E+01           0.58629400E+00
   0.13400000E+01           0.58119524E+00
   0.13500000E+01           0.57559700E+00
   0.13600000E+01           0.56964145E+00
   0.13700000E+01           0.56485626E+00
   0.13800000E+01           0.55869171E+00
   0.13900000E+01           0.55333933E+00
   0.14000000E+01           0.54725608E+00
   0.14100000E+01           0.54144974E+00
   0.14200000E+01           0.53551640E+00
   0.14300000E+01           0.52960071E+00
   0.14400000E+01           0.52386190E+00
   0.14500000E+01           0.51778183E+00
   0.14600000E+01           0.51177337E+00
   0.14700000E+01           0.50655944E+00
   0.14800000E+01           0.50043898E+00
   0.14900000E+01           0.49405785E+00
   0.15000000E+01           0.48804109E+00
   0.15100000E+01           0.48200459E+00
   0.15200000E+01           0.47586420E+00
   0.15300000E+01           0.46991252E+00
   0.15400000E+01           0.46308660E+00
   0.15500000E+01           0.45790459E+00
   0.15600000E+01           0.45166702E+00
   0.15700000E+01           0.44512169E+00
   0.15800000E+01           0.43921534E+00
   0.15900000E+01           0.43293228E+00
   0.16000000E+01           0.42696014E+00
   0.16100000E+01           0.42094885E+00
   0.16200000E+01           0.41480247E+00
   0.16300000E+01           0.40848148E+00
   0.16400000E+01           0.40219153E+00
   0.16500000E+01           0.39698942E+00
   0.16600000E+01           0.39037496E+00
   0.16700000E+01           0.38430670E+00
   0.16800000E+01           0.37847848E+00
   0.16900000E+01           0.37268730E+00
   0.17000000E+01           0.36727196E+00
   0.17100000E+01           0.36052028E+00
   0.17200000E+01           0.35460212E+00
   0.17300000E+01           0.34901323E+00
   0.17400000E+01           0.34313563E+00
   0.17500000E+01           0.33737972E+00
   0.17600000E+01           0.33157954E+00
   0.17700000E+01           0.32618924E+00
   0.17800000E+01           0.32001817E+00
   0.17900000E+01           0.31438519E+00
   0.18000000E+01           0.30929506E+00
   0.18100000E+01           0.30340864E+00
   0.18200000E+01           0.29805538E+00
   0.18300000E+01           0.29215291E+00
   0.18400000E+01           0.28675820E+00
   0.18500000E+01           0.28142011E+00
   0.18600000E+01           0.27613492E+00
   0.18700000E+01           0.27094392E+00
   0.18800000E+01           0.26543051E+00
   0.18900000E+01           0.26066349E+00
   0.19000000E+01           0.25537972E+00
   0.19100000E+01           0.25042046E+00
   0.19200000E+01           0.24551993E+00
   0.19300000E+01           0.24049171E+00
   0.19400000E+01           0.23547601E+00
   0.19500000E+01           0.23054991E+00
   0.19600000E+01           0.22557108E+00
   0.19700000E+01           0.22097848E+00
   0.19800000E+01           0.21670882E+00
   0.19900000E+01           0.21200582E+00
   0.20000000E+01           0.20737901E+00
   0.20100000E+01           0.20272945E+00
   0.20200000E+01           0.19839506E+00
   0.20300000E+01           0.19411993E+00
   0.20400000E+01           0.18955573E+00
   0.20500000E+01           0.18513616E+00
   0.20600000E+01           0.18076861E+00
   0.20700000E+01           0.17723192E+00
   0.20800000E+01           0.17306914E+00
   0.20900000E+01           0.16883316E+00
   0.21000000E+01           0.16463122E+00
   0.21100000E+01           0.16094145E+00
   0.21200000E+01           0.15739030E+00
   0.21300000E+01           0.15301852E+00
   0.21400000E+01           0.14993580E+00
   0.21500000E+01           0.14608854E+00
   0.21600000E+01           0.14239647E+00
   0.21700000E+01           0.13850653E+00
   0.21800000E+01           0.13533616E+00
   0.21900000E+01           0.13170723E+00
   0.22000000E+01           0.12906896E+00
   0.22100000E+01           0.12554691E+00
   0.22200000E+01           0.12195679E+00
   0.22300000E+01           0.11918148E+00
   0.22400000E+01           0.11580882E+00
   0.22500000E+01           0.11258924E+00
   0.22600000E+01           0.10972716E+00
   0.22700000E+01           0.10690106E+00
   0.22800000E+01           0.10396367E+00
   0.22900000E+01           0.10130511E+00
   0.23000000E+01           0.98443210E-01
   0.23100000E+01           0.95862434E-01
   0.23200000E+01           0.92988360E-01
   0.23300000E+01           0.90556790E-01
   0.23400000E+01           0.87830511E-01
   0.23500000E+01           0.85344797E-01
   0.23600000E+01           0.82706526E-01
   0.23700000E+01           0.80268607E-01
   0.23800000E+01           0.78008995E-01
   0.23900000E+01           0.75868959E-01
   0.24000000E+01           0.73439153E-01
   0.24100000E+01           0.71454850E-01
   0.24200000E+01           0.69244974E-01
   0.24300000E+01           0.67343210E-01
   0.24400000E+01           0.65091534E-01
   0.24500000E+01           0.63372487E-01
   0.24600000E+01           0.61074603E-01
   0.24700000E+01           0.59364198E-01
   0.24800000E+01           0.57369665E-01
   0.24900000E+01           0.55601764E-01
   0.25000000E+01           0.53813933E-01
   0.25100000E+01           0.52195238E-01
   0.25200000E+01           0.50604586E-01
   0.25300000E+01           0.48758377E-01
   0.25400000E+01           0.47266490E-01
   0.25500000E+01           0.45851323E-01
   0.25600000E+01           0.44129453E-01
   0.25700000E+01           0.42653792E-01
   0.25800000E+01           0.41158377E-01
   0.25900000E+01           0.39749383E-01
   0.26000000E+01           0.38441093E-01
   0.26100000E+01           0.37140388E-01
   0.26200000E+01           0.35871252E-01
   0.26300000E+01           0.34623280E-01
   0.26400000E+01           0.33422046E-01
   0.26500000E+01           0.32186067E-01
   0.26600000E+01           0.31211464E-01
   0.26700000E+01           0.29888713E-01
   0.26800000E+01           0.28802116E-01
   0.26900000E+01           0.27855908E-01
   0.27000000E+01           0.26928395E-01
   0.27100000E+01           0.25689418E-01
   0.27200000E+01           0.24909347E-01
   0.27300000E+01           0.23947619E-01
   0.27400000E+01           0.23079541E-01
   0.27500000E+01           0.22287125E-01
   0.27600000E+01           0.21440388E-01
   0.27700000E+01           0.20514815E-01
   0.27800000E+01           0.19701764E-01
   0.27900000E+01           0.18980600E-01
   0.28000000E+01           0.18174250E-01
   0.28100000E+01           0.17570018E-01
   0.28200000E+01           0.16810053E-01
   0.28300000E+01           0.16091182E-01
   0.28400000E+01           0.15538448E-01
   0.28500000E+01           0.14865785E-01
   0.28600000E+01           0.14270723E-01
   0.28700000E+01           0.13654145E-01
   0.28800000E+01           0.12895238E-01
   0.28900000E+01           0.12426984E-01
   0.29000000E+01           0.12015168E-01
   0.29100000E+01           0.11494885E-01
   0.29200000E+01           0.10990300E-01
   0.29300000E+01           0.10554321E-01
   0.29400000E+01           0.10035979E-01
   0.29500000E+01           0.96225750E-02
   0.29600000E+01           0.91395062E-02
   0.29700000E+01           0.87500882E-02
   0.29800000E+01           0.84194004E-02
   0.29900000E+01           0.80107584E-02
   0.30000000E+01           0.77014109E-02
   0.30100000E+01           0.73453263E-02
   0.30200000E+01           0.69611993E-02
   0.30300000E+01           0.66721340E-02
   0.30400000E+01           0.62871252E-02
   0.30500000E+01           0.60462081E-02
   0.30600000E+01           0.57081129E-02
   0.30700000E+01           0.54164021E-02
   0.30800000E+01           0.51624339E-02
   0.30900000E+01           0.48980600E-02
   0.31000000E+01           0.46770723E-02
   0.31100000E+01           0.44539683E-02
   0.31200000E+01           0.42165785E-02
   0.31300000E+01           0.40416226E-02
   0.31400000E+01           0.38107584E-02
   0.31500000E+01           0.36601411E-02
   0.31600000E+01           0.34116402E-02
   0.31700000E+01           0.32650794E-02
   0.31800000E+01           0.30410935E-02
   0.31900000E+01           0.29089947E-02
   0.32000000E+01           0.27546737E-02
   0.32100000E+01           0.26172840E-02
   0.32200000E+01           0.24991182E-02
   0.32300000E+01           0.23266314E-02
   0.32400000E+01           0.22156966E-02
   0.32500000E+01           0.21206349E-02
   0.32600000E+01           0.19567901E-02
   0.32700000E+01           0.18717813E-02
   0.32800000E+01           0.17671958E-02
   0.32900000E+01           0.16164021E-02
   0.33000000E+01           0.15566138E-02
   0.33100000E+01           0.14767196E-02
   0.33200000E+01           0.13779541E-02
   0.33300000E+01           0.12659612E-02
   0.33400000E+01           0.12014109E-02
   0.33500000E+01           0.11289242E-02
   0.33600000E+01           0.10832451E-02
   0.33700000E+01           0.99065256E-03
   0.33800000E+01           0.92328042E-03
   0.33900000E+01           0.88042328E-03
   0.34000000E+01           0.83298060E-03
   0.34100000E+01           0.75820106E-03
   0.34200000E+01           0.71798942E-03
   0.34300000E+01           0.67477954E-03
   0.34400000E+01           0.61693122E-03
   0.34500000E+01           0.57195767E-03
   0.34600000E+01           0.55537919E-03
   0.34700000E+01           0.51710758E-03
   0.34800000E+01           0.46278660E-03
   0.34900000E+01           0.41851852E-03
   0.35000000E+01           0.41622575E-03
   0.35100000E+01           0.38271605E-03
   0.35200000E+01           0.35220459E-03
   0.35300000E+01           0.32539683E-03
   0.35400000E+01           0.29523810E-03
   0.35500000E+01           0.27372134E-03
   0.35600000E+01           0.24673721E-03
   0.35700000E+01           0.23421517E-03
   0.35800000E+01           0.20970018E-03
   0.35900000E+01           0.20158730E-03
   0.36000000E+01           0.17266314E-03
   0.36100000E+01           0.16155203E-03
   0.36200000E+01           0.14938272E-03
   0.36300000E+01           0.13403880E-03
   0.36400000E+01           0.12380952E-03
   0.36500000E+01           0.10388007E-03
   0.36600000E+01           0.98059965E-04
   0.36700000E+01           0.91005291E-04
   0.36800000E+01           0.79541446E-04
   0.36900000E+01           0.72486772E-04
   0.37000000E+01           0.65784832E-04
   0.37100000E+01           0.63668430E-04
   0.37200000E+01           0.53615520E-04
   0.37300000E+01           0.49382716E-04
   0.37400000E+01           0.42857143E-04
   0.37500000E+01           0.39153439E-04
   0.37600000E+01           0.31393298E-04
   0.37700000E+01           0.29982363E-04
   0.37800000E+01           0.26278660E-04
   0.37900000E+01           0.25044092E-04
   0.38000000E+01           0.20634921E-04
   0.38100000E+01           0.15696649E-04
   0.38200000E+01           0.11287478E-04
   0.38300000E+01           0.10934744E-04
   0.38400000E+01           0.11816578E-04
   0.38500000E+01           0.95238095E-05
   0.38600000E+01           0.75837743E-05
   0.38700000E+01           0.75837743E-05
   0.38800000E+01           0.38800705E-05
   0.38900000E+01           0.56437390E-05
   0.39000000E+01           0.28218695E-05
   0.39100000E+01           0.26455026E-05
   0.39200000E+01           0.28218695E-05
   0.39300000E+01           0.26455026E-05
   0.39400000E+01           0.52910053E-06
   0.39500000E+01           0.12345679E-05
   0.39600000E+01           0.35273369E-06
   0.39700000E+01           0.17636684E-06
   0.39800000E+01           0.00000000E+00
   0.39900000E+01           0.00000000E+00
   0.40000000E+01           0.00000000E+00
 #T=    62.0000
  -0.40000000E+01           0.00000000E+00
  -0.39900000E+01           0.00000000E+00
  -0.39800000E+01           0.00000000E+00
  -0.39700000E+01           0.00000000E+00
  -0.39600000E+01           0.00000000E+00
  -0.39500000E+01           0.00000000E+00
  -0.39400000E+01           0.00000000E+00
  -0.39300000E+01           0.00000000E+00
  -0.39200000E+01           0.00000000E+00
  -0.39100000E+01           0.00000000E+00
  -0.39000000E+01           0.00000000E+00
  -0.38900000E+01           0.00000000E+00
  -0.38800000E+01           0.00000000E+00
  -0.38700000E+01           0.00000000E+00
  -0.38600000E+01           0.00000000E+00
  -0.38500000E+01           0.00000000E+00
  -0.38400000E+01           0.00000000E+00
  -0.38300000E+01           0.00000000E+00
  -0.38200000E+01           0.00000000E+00
  -0.38100000E+01           0.00000000E+00
  -0.38000000E+01           0.00000000E+00
  -0.37900000E+01           0.00000000E+00
  -0.37800000E+01           0.00000000E+00
  -0.37700000E+01           0.00000000E+00
  -0.37600000E+01           0.00000000E+00
  -0.37500000E+01           0.00000000E+00
  -0.37400000E+01           0.00000000E+00
  -0.37300000E+01           0.00000000E+00
  -0.37200000E+01           0.00000000E+00
  -0.37100000E+01           0.00000000E+00
  -0.37000000E+01           0.00000000E+00
  -0.36900000E+01           0.00000000E+00
  -0.36800000E+01           0.00000000E+00
  -0.36700000E+01           0.00000000E+00
  -0.36600000E+01           0.00000000E+00
  -0.36500000E+01           0.00000000E+00
  -0.36400000E+01           0.00000000E+00
  -0.36300000E+01           0.00000000E+00
  -0.36200000E+01           0.00000000E+00
  -0.36100000E+01           0.00000000E+00
  -0.36000000E+01           0.00000000E+00
  -0.35900000E+01           0.00000000E+00
  -0.35800000E+01           0.00000000E+00
  -0.35700000E+01           0.00000000E+00
  -0.35600000E+01           0.00000000E+00
  -0.35500000E+01           0.00000000E+00
  -0.35400000E+01           0.00000000E+00
  -0.35300000E+01           0.00000000E+00
  -0.35200000E+01           0.00000000E+00
  -0.35100000E+01           0.00000000E+00
  -0.35000000E+01           0.00000000E+00
  -0.34900000E+01           0.00000000E+00
  -0.34800000E+01           0.00000000E+00
  -0.34700000E+01           0.00000000E+00
  -0.34600000E+01           0.00000000E+00
  -0.34500000E+01           0.00000000E+00
  -0.34400000E+01           0.00000000E+00
  -0.34300000E+01           0.00000000E+00
  -0.34200000E+01           0.00000000E+00
  -0.34100000E+01           0.00000000E+00
  -0.34000000E+01           0.00000000E+00
  -0.33900000E+01           0.00000000E+00
  -0.33800000E+01           0.00000000E+00
  -0.33700000E+01           0.00000000E+00
  -0.33600000E+01           0.00000000E+00
  -0.33500000E+01           0.00000000E+00
  -0.33400000E+01           0.00000000E+00
  -0.33300000E+01           0.00000000E+00
  -0.33200000E+01           0.00000000E+00
  -0.33100000E+01           0.00000000E+00
  -0.33000000E+01           0.00000000E+00
  -0.32900000E+01           0.00000000E+00
  -0.32800000E+01           0.00000000E+00
  -0.32700000E+01           0.00000000E+00
  -0.32600000E+01           0.00000000E+00
  -0.32500000E+01           0.00000000E+00
  -0.32400000E+01           0.00000000E+00
  -0.32300000E+01           0.00000000E+00
  -0.32200000E+01           0.00000000E+00
  -0.32100000E+01           0.00000000E+00
  -0.32000000E+01           0.00000000E+00
  -0.31900000E+01           0.00000000E+00
  -0.31800000E+01           0.00000000E+00
  -0.31700000E+01           0.00000000E+00
  -0.31600000E+01           0.00000000E+00
  -0.31500000E+01           0.00000000E+00
  -0.31400000E+01           0.00000000E+00
  -0.31300000E+01           0.00000000E+00
  -0.31200000E+01           0.00000000E+00
  -0.31100000E+01           0.00000000E+00
  -0.31000000E+01           0.00000000E+00
  -0.30900000E+01           0.00000000E+00
  -0.30800000E+01           0.00000000E+00
  -0.30700000E+01           0.00000000E+00
  -0.30600000E+01           0.00000000E+00
  -0.30500000E+01           0.00000000E+00
  -0.30400000E+01           0.00000000E+00
  -0.30300000E+01           0.00000000E+00
  -0.30200000E+01           0.00000000E+00
  -0.30100000E+01           0.00000000E+00
  -0.30000000E+01           0.00000000E+00
  -0.29900000E+01           0.00000000E+00
  -0.29800000E+01           0.00000000E+00
  -0.29700000E+01           0.00000000E+00
  -0.29600000E+01           0.00000000E+00
  -0.29500000E+01           0.00000000E+00
  -0.29400000E+01           0.00000000E+00
  -0.29300000E+01           0.00000000E+00
  -0.29200000E+01           0.00000000E+00
  -0.29100000E+01           0.00000000E+00
  -0.29000000E+01           0.00000000E+00
  -0.28900000E+01           0.00000000E+00
  -0.28800000E+01           0.00000000E+00
  -0.28700000E+01           0.00000000E+00
  -0.28600000E+01           0.00000000E+00
  -0.28500000E+01           0.00000000E+00
  -0.28400000E+01           0.00000000E+00
  -0.28300000E+01           0.00000000E+00
  -0.28200000E+01           0.00000000E+00
  -0.28100000E+01           0.00000000E+00
  -0.28000000E+01           0.00000000E+00
  -0.27900000E+01           0.00000000E+00
  -0.27800000E+01           0.00000000E+00
  -0.27700000E+01           0.00000000E+00
  -0.27600000E+01           0.00000000E+00
  -0.27500000E+01           0.00000000E+00
  -0.27400000E+01           0.00000000E+00
  -0.27300000E+01           0.00000000E+00
  -0.27200000E+01           0.00000000E+00
  -0.27100000E+01           0.00000000E+00
  -0.27000000E+01           0.00000000E+00
  -0.26900000E+01           0.00000000E+00
  -0.26800000E+01           0.00000000E+00
  -0.26700000E+01           0.00000000E+00
  -0.26600000E+01           0.00000000E+00
  -0.26500000E+01           0.00000000E+00
  -0.26400000E+01           0.00000000E+00
  -0.26300000E+01           0.00000000E+00
  -0.26200000E+01           0.00000000E+00
  -0.26100000E+01           0.00000000E+00
  -0.26000000E+01           0.00000000E+00
  -0.25900000E+01           0.00000000E+00
  -0.25800000E+01           0.00000000E+00
  -0.25700000E+01           0.00000000E+00
  -0.25600000E+01           0.00000000E+00
  -0.25500000E+01           0.00000000E+00
  -0.25400000E+01           0.00000000E+00
  -0.25300000E+01           0.00000000E+00
  -0.25200000E+01           0.00000000E+00
  -0.25100000E+01           0.00000000E+00
  -0.25000000E+01           0.00000000E+00
  -0.24900000E+01           0.00000000E+00
  -0.24800000E+01           0.00000000E+00
  -0.24700000E+01           0.00000000E+00
  -0.24600000E+01           0.00000000E+00
  -0.24500000E+01           0.00000000E+00
  -0.24400000E+01           0.00000000E+00
  -0.24300000E+01           0.00000000E+00
  -0.24200000E+01           0.00000000E+00
  -0.24100000E+01           0.00000000E+00
  -0.24000000E+01           0.00000000E+00
  -0.23900000E+01           0.00000000E+00
  -0.23800000E+01           0.00000000E+00
  -0.23700000E+01           0.00000000E+00
  -0.23600000E+01           0.00000000E+00
  -0.23500000E+01           0.00000000E+00
  -0.23400000E+01           0.00000000E+00
  -0.23300000E+01           0.00000000E+00
  -0.23200000E+01           0.00000000E+00
  -0.23100000E+01           0.00000000E+00
  -0.23000000E+01           0.00000000E+00
  -0.22900000E+01           0.00000000E+00
  -0.22800000E+01           0.00000000E+00
  -0.22700000E+01           0.00000000E+00
  -0.22600000E+01           0.00000000E+00
  -0.22500000E+01           0.00000000E+00
  -0.22400000E+01           0.00000000E+00
  -0.22300000E+01           0.00000000E+00
  -0.22200000E+01           0.00000000E+00
  -0.22100000E+01           0.00000000E+00
  -0.22000000E+01           0.00000000E+00
  -0.21900000E+01           0.00000000E+00
  -0.21800000E+01           0.00000000E+00
  -0.21700000E+01           0.00000000E+00
  -0.21600000E+01           0.00000000E+00
  -0.21500000E+01           0.00000000E+00
  -0.21400000E+01           0.00000000E+00
  -0.21300000E+01           0.00000000E+00
  -0.21200000E+01           0.00000000E+00
  -0.21100000E+01           0.00000000E+00
  -0.21000000E+01           0.00000000E+00
  -0.20900000E+01           0.00000000E+00
  -0.20800000E+01           0.00000000E+00
  -0.20700000E+01           0.00000000E+00
  -0.20600000E+01           0.00000000E+00
  -0.20500000E+01           0.00000000E+00
  -0.20400000E+01           0.00000000E+00
  -0.20300000E+01           0.00000000E+00
  -0.20200000E+01           0.00000000E+00
  -0.20100000E+01           0.00000000E+00
  -0.20000000E+01           0.00000000E+00
  -0.19900000E+01           0.00000000E+00
  -0.19800000E+01           0.00000000E+00
  -0.19700000E+01           0.00000000E+00
  -0.19600000E+01           0.00000000E+00
  -0.19500000E+01           0.00000000E+00
  -0.19400000E+01           0.00000000E+00
  -0.19300000E+01           0.00000000E+00
  -0.19200000E+01           0.00000000E+00
  -0.19100000E+01           0.00000000E+00
  -0.19000000E+01           0.00000000E+00
  -0.18900000E+01           0.00000000E+00
  -0.18800000E+01           0.00000000E+00
  -0.18700000E+01           0.00000000E+00
  -0.18600000E+01           0.00000000E+00
  -0.18500000E+01           0.00000000E+00
  -0.18400000E+01           0.00000000E+00
  -0.18300000E+01           0.00000000E+00
  -0.18200000E+01           0.00000000E+00
  -0.18100000E+01           0.00000000E+00
  -0.18000000E+01           0.00000000E+00
  -0.17900000E+01           0.00000000E+00
  -0.17800000E+01           0.00000000E+00
  -0.17700000E+01           0.00000000E+00
  -0.17600000E+01           0.00000000E+00
  -0.17500000E+01           0.00000000E+00
  -0.17400000E+01           0.00000000E+00
  -0.17300000E+01           0.00000000E+00
  -0.17200000E+01           0.00000000E+00
  -0.17100000E+01           0.00000000E+00
  -0.17000000E+01           0.00000000E+00
  -0.16900000E+01           0.00000000E+00
  -0.16800000E+01           0.00000000E+00
  -0.16700000E+01           0.00000000E+00
  -0.16600000E+01           0.00000000E+00
  -0.16500000E+01           0.00000000E+00
  -0.16400000E+01           0.00000000E+00
  -0.16300000E+01           0.00000000E+00
  -0.16200000E+01           0.00000000E+00
  -0.16100000E+01           0.00000000E+00
  -0.16000000E+01           0.00000000E+00
  -0.15900000E+01           0.00000000E+00
  -0.15800000E+01           0.00000000E+00
  -0.15700000E+01           0.00000000E+00
  -0.15600000E+01           0.00000000E+00
  -0.15500000E+01           0.00000000E+00
  -0.15400000E+01           0.00000000E+00
  -0.15300000E+01           0.00000000E+00
  -0.15200000E+01           0.00000000E+00
  -0.15100000E+01           0.00000000E+00
  -0.15000000E+01           0.00000000E+00
  -0.14900000E+01           0.00000000E+00
[...]
  -0.64000000E+00           0.00000000E+00
  -0.63000000E+00           0.00000000E+00
  -0.62000000E+00           0.00000000E+00
  -0.61000000E+00           0.00000000E+00
  -0.60000000E+00           0.00000000E+00
  -0.59000000E+00           0.00000000E+00
  -0.58000000E+00           0.00000000E+00
  -0.57000000E+00           0.00000000E+00
  -0.56000000E+00           0.00000000E+00
  -0.55000000E+00           0.00000000E+00
  -0.54000000E+00           0.00000000E+00
  -0.53000000E+00           0.00000000E+00
  -0.52000000E+00           0.00000000E+00
  -0.51000000E+00           0.00000000E+00
  -0.50000000E+00           0.00000000E+00
  -0.49000000E+00           0.00000000E+00
  -0.48000000E+00           0.00000000E+00
  -0.47000000E+00           0.00000000E+00
  -0.46000000E+00           0.00000000E+00
  -0.45000000E+00           0.00000000E+00
  -0.44000000E+00           0.00000000E+00
  -0.43000000E+00           0.00000000E+00
  -0.42000000E+00           0.00000000E+00
  -0.41000000E+00           0.00000000E+00
  -0.40000000E+00           0.00000000E+00
  -0.39000000E+00           0.00000000E+00
  -0.38000000E+00           0.00000000E+00
  -0.37000000E+00           0.00000000E+00
  -0.36000000E+00           0.00000000E+00
  -0.35000000E+00           0.00000000E+00
  -0.34000000E+00           0.00000000E+00
  -0.33000000E+00           0.00000000E+00
  -0.32000000E+00           0.00000000E+00
  -0.31000000E+00           0.00000000E+00
  -0.30000000E+00           0.00000000E+00
  -0.29000000E+00           0.00000000E+00
  -0.28000000E+00           0.00000000E+00
  -0.27000000E+00           0.00000000E+00
  -0.26000000E+00           0.00000000E+00
  -0.25000000E+00           0.00000000E+00
  -0.24000000E+00           0.00000000E+00
  -0.23000000E+00           0.00000000E+00
  -0.22000000E+00           0.00000000E+00
  -0.21000000E+00           0.00000000E+00
  -0.20000000E+00           0.00000000E+00
  -0.19000000E+00           0.00000000E+00
  -0.18000000E+00           0.00000000E+00
  -0.17000000E+00           0.00000000E+00
  -0.16000000E+00           0.00000000E+00
  -0.15000000E+00           0.00000000E+00
  -0.14000000E+00           0.00000000E+00
  -0.13000000E+00           0.00000000E+00
  -0.12000000E+00           0.00000000E+00
  -0.11000000E+00           0.00000000E+00
  -0.10000000E+00           0.00000000E+00
  -0.90000000E-01           0.00000000E+00
  -0.80000000E-01           0.00000000E+00
  -0.70000000E-01           0.00000000E+00
  -0.60000000E-01           0.00000000E+00
  -0.50000000E-01           0.00000000E+00
  -0.40000000E-01           0.00000000E+00
  -0.30000000E-01           0.00000000E+00
  -0.20000000E-01           0.00000000E+00
  -0.10000000E-01           0.00000000E+00
   0.00000000E+00           0.35273369E-05
   0.10000000E-01           0.64373898E-04
   0.20000000E-01           0.28007055E-03
   0.30000000E-01           0.59841270E-03
   0.40000000E-01           0.10673721E-02
   0.50000000E-01           0.16275132E-02
   0.60000000E-01           0.23493827E-02
   0.70000000E-01           0.31396825E-02
   0.80000000E-01           0.40164021E-02
   0.90000000E-01           0.51388007E-02
   0.10000000E+00           0.62301587E-02
   0.11000000E+00           0.75031746E-02
   0.12000000E+00           0.87717813E-02
   0.13000000E+00           0.10254674E-01
   0.14000000E+00           0.11813051E-01
   0.15000000E+00           0.13531217E-01
   0.16000000E+00           0.15219753E-01
   0.17000000E+00           0.17100705E-01
   0.18000000E+00           0.18978307E-01
   0.19000000E+00           0.21044974E-01
   0.20000000E+00           0.23074074E-01
   0.21000000E+00           0.25280776E-01
   0.22000000E+00           0.27604586E-01
   0.23000000E+00           0.30110582E-01
   0.24000000E+00           0.32341093E-01
   0.25000000E+00           0.34956614E-01
   0.26000000E+00           0.37583774E-01
   0.27000000E+00           0.40176896E-01
   0.28000000E+00           0.43117460E-01
   0.29000000E+00           0.45821693E-01
   0.30000000E+00           0.48646208E-01
   0.31000000E+00           0.51633862E-01
   0.32000000E+00           0.54482892E-01
   0.33000000E+00           0.57651323E-01
   0.34000000E+00           0.60668783E-01
   0.35000000E+00           0.64029630E-01
   0.36000000E+00           0.67108642E-01
   0.37000000E+00           0.70383598E-01
   0.38000000E+00           0.73769841E-01
   0.39000000E+00           0.77328395E-01
   0.40000000E+00           0.80471605E-01
   0.41000000E+00           0.83973545E-01
   0.42000000E+00           0.87670370E-01
   0.43000000E+00           0.91286596E-01
   0.44000000E+00           0.94638448E-01
   0.45000000E+00           0.98840212E-01
   0.46000000E+00           0.10242257E+00
   0.47000000E+00           0.10611693E+00
   0.48000000E+00           0.10983633E+00
   0.49000000E+00           0.11354427E+00
   0.50000000E+00           0.11725256E+00
   0.51000000E+00           0.12148289E+00
   0.52000000E+00           0.12514198E+00
   0.53000000E+00           0.12887637E+00
   0.54000000E+00           0.13320123E+00
   0.55000000E+00           0.13742310E+00
   0.56000000E+00           0.14129735E+00
   0.57000000E+00           0.14539453E+00
   0.58000000E+00           0.14935132E+00
   0.59000000E+00           0.15357795E+00
   0.60000000E+00           0.15777302E+00
   0.61000000E+00           0.16231817E+00
   0.62000000E+00           0.16574250E+00
   0.63000000E+00           0.16994321E+00
   0.64000000E+00           0.17447866E+00
   0.65000000E+00           0.17851587E+00
   0.66000000E+00           0.18239295E+00
   0.67000000E+00           0.18715344E+00
   0.68000000E+00           0.19141552E+00
   0.69000000E+00           0.19570406E+00
   0.70000000E+00           0.19988342E+00
   0.71000000E+00           0.20409312E+00
   0.72000000E+00           0.20871305E+00
   0.73000000E+00           0.21244339E+00
   0.74000000E+00           0.21721552E+00
   0.75000000E+00           0.22149559E+00
   0.76000000E+00           0.22569136E+00
   0.77000000E+00           0.22997584E+00
   0.78000000E+00           0.23411411E+00
   0.79000000E+00           0.23850035E+00
   0.80000000E+00           0.24271675E+00
   0.81000000E+00           0.24687125E+00
   0.82000000E+00           0.25135908E+00
   0.83000000E+00           0.25595220E+00
   0.84000000E+00           0.26016402E+00
   0.85000000E+00           0.26430847E+00
   0.86000000E+00           0.26857566E+00
   0.87000000E+00           0.27318377E+00
   0.88000000E+00           0.27682152E+00
   0.89000000E+00           0.28158695E+00
   0.90000000E+00           0.28546667E+00
   0.91000000E+00           0.29002222E+00
   0.92000000E+00           0.29381834E+00
   0.93000000E+00           0.29794497E+00
   0.94000000E+00           0.30227531E+00
   0.95000000E+00           0.30596561E+00
   0.96000000E+00           0.31069347E+00
   0.97000000E+00           0.31479436E+00
   0.98000000E+00           0.31883298E+00
   0.99000000E+00           0.32277090E+00
   0.10000000E+01           0.32691693E+00
   0.10100000E+01           0.33056772E+00
   0.10200000E+01           0.33529489E+00
   0.10300000E+01           0.33911376E+00
   0.10400000E+01           0.34265714E+00
   0.10500000E+01           0.34662751E+00
   0.10600000E+01           0.35045608E+00
   0.10700000E+01           0.35416984E+00
   0.10800000E+01           0.35831182E+00
   0.10900000E+01           0.36246578E+00
   0.11000000E+01           0.36650353E+00
   0.11100000E+01           0.36990970E+00
   0.11200000E+01           0.37341270E+00
   0.11300000E+01           0.37697478E+00
   0.11400000E+01           0.38124638E+00
   0.11500000E+01           0.38441852E+00
   0.11600000E+01           0.38828571E+00
   0.11700000E+01           0.39190935E+00
   0.11800000E+01           0.39516102E+00
   0.11900000E+01           0.39856949E+00
   0.12000000E+01           0.40212310E+00
   0.12100000E+01           0.40550970E+00
   0.12200000E+01           0.40844444E+00
   0.12300000E+01           0.41214533E+00
   0.12400000E+01           0.41546966E+00
   0.12500000E+01           0.41859718E+00
   0.12600000E+01           0.42172981E+00
   0.12700000E+01           0.42479189E+00
   0.12800000E+01           0.42825344E+00
   0.12900000E+01           0.43107337E+00
   0.13000000E+01           0.43421728E+00
   0.13100000E+01           0.43707072E+00
   0.13200000E+01           0.43975291E+00
   0.13300000E+01           0.44284180E+00
   0.13400000E+01           0.44539365E+00
   0.13500000E+01           0.44769788E+00
   0.13600000E+01           0.45105115E+00
   0.13700000E+01           0.45338942E+00
   0.13800000E+01           0.45569030E+00
   0.13900000E+01           0.45922399E+00
   0.14000000E+01           0.46135291E+00
   0.14100000E+01           0.46411781E+00
   0.14200000E+01           0.46658483E+00
   0.14300000E+01           0.46814145E+00
   0.14400000E+01           0.47069771E+00
   0.14500000E+01           0.47299894E+00
   0.14600000E+01           0.47492945E+00
   0.14700000E+01           0.47722945E+00
   0.14800000E+01           0.47904444E+00
   0.14900000E+01           0.48143369E+00
   0.15000000E+01           0.48311287E+00
   0.15100000E+01           0.48536402E+00
   0.15200000E+01           0.48685591E+00
   0.15300000E+01           0.48882134E+00
   0.15400000E+01           0.49027531E+00
   0.15500000E+01           0.49210423E+00
   0.15600000E+01           0.49362716E+00
   0.15700000E+01           0.49451534E+00
   0.15800000E+01           0.49602769E+00
   0.15900000E+01           0.49784780E+00
   0.16000000E+01           0.49932804E+00
   0.16100000E+01           0.49969894E+00
   0.16200000E+01           0.50128783E+00
   0.16300000E+01           0.50232293E+00
   0.16400000E+01           0.50295273E+00
   0.16500000E+01           0.50419700E+00
   0.16600000E+01           0.50493616E+00
   0.16700000E+01           0.50568448E+00
   0.16800000E+01           0.50652981E+00
   0.16900000E+01           0.50632963E+00
   0.17000000E+01           0.50720970E+00
   0.17100000E+01           0.50725802E+00
   0.17200000E+01           0.50752028E+00
   0.17300000E+01           0.50796102E+00
   0.17400000E+01           0.50854268E+00
   0.17500000E+01           0.50879083E+00
   0.17600000E+01           0.50861446E+00
   0.17700000E+01           0.50898430E+00
   0.17800000E+01           0.50877037E+00
   0.17900000E+01           0.50839295E+00
   0.18000000E+01           0.50779753E+00
   0.18100000E+01           0.50748007E+00
   0.18200000E+01           0.50760670E+00
   0.18300000E+01           0.50654709E+00
   0.18400000E+01           0.50578042E+00
   0.18500000E+01           0.50497566E+00
   0.18600000E+01           0.50432205E+00
   0.18700000E+01           0.50345062E+00
   0.18800000E+01           0.50218924E+00
   0.18900000E+01           0.50088413E+00
   0.19000000E+01           0.50010511E+00
   0.19100000E+01           0.49800899E+00
   0.19200000E+01           0.49779841E+00
   0.19300000E+01           0.49559136E+00
   0.19400000E+01           0.49400476E+00
   0.19500000E+01           0.49261922E+00
   0.19600000E+01           0.49068660E+00
   0.19700000E+01           0.48929136E+00
   0.19800000E+01           0.48642152E+00
   0.19900000E+01           0.48393351E+00
   0.20000000E+01           0.48183527E+00
   0.20100000E+01           0.48026490E+00
   0.20200000E+01           0.47759877E+00
   0.20300000E+01           0.47548430E+00
   0.20400000E+01           0.47332840E+00
   0.20500000E+01           0.47011287E+00
   0.20600000E+01           0.46850229E+00
   0.20700000E+01           0.46545802E+00
   0.20800000E+01           0.46339012E+00
   0.20900000E+01           0.46059559E+00
   0.21000000E+01           0.45781940E+00
   0.21100000E+01           0.45551093E+00
   0.21200000E+01           0.45354145E+00
   0.21300000E+01           0.45036684E+00
   0.21400000E+01           0.44773104E+00
   0.21500000E+01           0.44561323E+00
   0.21600000E+01           0.44333245E+00
   0.21700000E+01           0.44006473E+00
   0.21800000E+01           0.43752205E+00
   0.21900000E+01           0.43469048E+00
   0.22000000E+01           0.43193845E+00
   0.22100000E+01           0.42878254E+00
   0.22200000E+01           0.42650847E+00
   0.22300000E+01           0.42385626E+00
   0.22400000E+01           0.42116825E+00
   0.22500000E+01           0.41846966E+00
   0.22600000E+01           0.41520794E+00
   0.22700000E+01           0.41269965E+00
   0.22800000E+01           0.40992716E+00
   0.22900000E+01           0.40671411E+00
   0.23000000E+01           0.40374145E+00
   0.23100000E+01           0.40120370E+00
   0.23200000E+01           0.39864021E+00
   0.23300000E+01           0.39558801E+00
   0.23400000E+01           0.39295485E+00
   0.23500000E+01           0.38947213E+00
   0.23600000E+01           0.38667672E+00
   0.23700000E+01           0.38428677E+00
   0.23800000E+01           0.38051799E+00
   0.23900000E+01           0.37766049E+00
   0.24000000E+01           0.37413351E+00
   0.24100000E+01           0.37165485E+00
   0.24200000E+01           0.36873139E+00
   0.24300000E+01           0.36567090E+00
   0.24400000E+01           0.36277160E+00
   0.24500000E+01           0.35982998E+00
   0.24600000E+01           0.35651781E+00
   0.24700000E+01           0.35395256E+00
   0.24800000E+01           0.35078907E+00
   0.24900000E+01           0.34732487E+00
   0.25000000E+01           0.34474515E+00
   0.25100000E+01           0.34132540E+00
   0.25200000E+01           0.33822275E+00
   0.25300000E+01           0.33460635E+00
   0.25400000E+01           0.33166243E+00
   0.25500000E+01           0.32868624E+00
   0.25600000E+01           0.32589277E+00
   0.25700000E+01           0.32234832E+00
   0.25800000E+01           0.31932381E+00
   0.25900000E+01           0.31605944E+00
   0.26000000E+01           0.31295291E+00
   0.26100000E+01           0.31033122E+00
   0.26200000E+01           0.30668413E+00
   0.26300000E+01           0.30307619E+00
   0.26400000E+01           0.30062099E+00
   0.26500000E+01           0.29719788E+00
   0.26600000E+01           0.29438660E+00
   0.26700000E+01           0.29092751E+00
   0.26800000E+01           0.28769171E+00
   0.26900000E+01           0.28435115E+00
   0.27000000E+01           0.28166349E+00
   0.27100000E+01           0.27814727E+00
   0.27200000E+01           0.27475767E+00
   0.27300000E+01           0.27191728E+00
   0.27400000E+01           0.26925150E+00
   0.27500000E+01           0.26596384E+00
   0.27600000E+01           0.26256208E+00
   0.27700000E+01           0.25985608E+00
   0.27800000E+01           0.25668360E+00
   0.27900000E+01           0.25323280E+00
   0.28000000E+01           0.25012046E+00
   0.28100000E+01           0.24624444E+00
   0.28200000E+01           0.24350970E+00
   0.28300000E+01           0.24052822E+00
   0.28400000E+01           0.23757178E+00
   0.28500000E+01           0.23454568E+00
   0.28600000E+01           0.23120212E+00
   0.28700000E+01           0.22812257E+00
   0.28800000E+01           0.22481235E+00
   0.28900000E+01           0.22183968E+00
   0.29000000E+01           0.21865379E+00
   0.29100000E+01           0.21584568E+00
   0.29200000E+01           0.21284074E+00
   0.29300000E+01           0.20944938E+00
   0.29400000E+01           0.20637884E+00
   0.29500000E+01           0.20363175E+00
   0.29600000E+01           0.20011834E+00
   0.29700000E+01           0.19674374E+00
   0.29800000E+01           0.19402610E+00
   0.29900000E+01           0.19095802E+00
   0.30000000E+01           0.18812522E+00
   0.30100000E+01           0.18496720E+00
   0.30200000E+01           0.18202222E+00
   0.30300000E+01           0.17937848E+00
   0.30400000E+01           0.17624374E+00
   0.30500000E+01           0.17315220E+00
   0.30600000E+01           0.17046102E+00
   0.30700000E+01           0.16740723E+00
   0.30800000E+01           0.16435608E+00
   0.30900000E+01           0.16143686E+00
   0.31000000E+01           0.15879612E+00
   0.31100000E+01           0.15544868E+00
   0.31200000E+01           0.15279012E+00
   0.31300000E+01           0.14982910E+00
   0.31400000E+01           0.14695873E+00
   0.31500000E+01           0.14408642E+00
   0.31600000E+01           0.14139118E+00
   0.31700000E+01           0.13857019E+00
   0.31800000E+01           0.13593104E+00
   0.31900000E+01           0.13319295E+00
   0.32000000E+01           0.13052222E+00
   0.32100000E+01           0.12772152E+00
   0.32200000E+01           0.12488307E+00
   0.32300000E+01           0.12221746E+00
   0.32400000E+01           0.11950476E+00
   0.32500000E+01           0.11685520E+00
   0.32600000E+01           0.11391164E+00
   0.32700000E+01           0.11163245E+00
   0.32800000E+01           0.10877319E+00
   0.32900000E+01           0.10649718E+00
   0.33000000E+01           0.10344162E+00
   0.33100000E+01           0.10112593E+00
   0.33200000E+01           0.98765961E-01
   0.33300000E+01           0.96294885E-01
   0.33400000E+01           0.93797178E-01
   0.33500000E+01           0.91082892E-01
   0.33600000E+01           0.88962257E-01
   0.33700000E+01           0.86419753E-01
   0.33800000E+01           0.83975661E-01
   0.33900000E+01           0.81827337E-01
   0.34000000E+01           0.79466138E-01
   0.34100000E+01           0.77155732E-01
   0.34200000E+01           0.74924515E-01
   0.34300000E+01           0.72504056E-01
   0.34400000E+01           0.70195414E-01
   0.34500000E+01           0.68001764E-01
   0.34600000E+01           0.65802469E-01
   0.34700000E+01           0.63539683E-01
   0.34800000E+01           0.61654850E-01
   0.34900000E+01           0.59430864E-01
   0.35000000E+01           0.57482187E-01
   0.35100000E+01           0.55308113E-01
   0.35200000E+01           0.53170370E-01
   0.35300000E+01           0.51308995E-01
   0.35400000E+01           0.49338624E-01
   0.35500000E+01           0.47493827E-01
   0.35600000E+01           0.45595238E-01
   0.35700000E+01           0.43743034E-01
   0.35800000E+01           0.41875661E-01
   0.35900000E+01           0.40020459E-01
   0.36000000E+01           0.38371076E-01
   0.36100000E+01           0.36464198E-01
   0.36200000E+01           0.34774427E-01
   0.36300000E+01           0.33170547E-01
   0.36400000E+01           0.31587654E-01
   0.36500000E+01           0.29923280E-01
   0.36600000E+01           0.28185185E-01
   0.36700000E+01           0.26751499E-01
   0.36800000E+01           0.25293651E-01
   0.36900000E+01           0.23854145E-01
   0.37000000E+01           0.22380247E-01
   0.37100000E+01           0.20996296E-01
   0.37200000E+01           0.19697178E-01
   0.37300000E+01           0.18411817E-01
   0.37400000E+01           0.17043739E-01
   0.37500000E+01           0.15867901E-01
   0.37600000E+01           0.14706349E-01
   0.37700000E+01           0.13653616E-01
   0.37800000E+01           0.12561728E-01
   0.37900000E+01           0.11498236E-01
   0.38000000E+01           0.10445855E-01
   0.38100000E+01           0.94495591E-02
   0.38200000E+01           0.84530864E-02
   0.38300000E+01           0.76428571E-02
   0.38400000E+01           0.67576720E-02
   0.38500000E+01           0.60186949E-02
   0.38600000E+01           0.52728395E-02
   0.38700000E+01           0.45391534E-02
   0.38800000E+01           0.38634921E-02
   0.38900000E+01           0.32472663E-02
   0.39000000E+01           0.27082892E-02
   0.39100000E+01           0.22144621E-02
   0.39200000E+01           0.17716049E-02
   0.39300000E+01           0.13544974E-02
   0.39400000E+01           0.99876543E-03
   0.39500000E+01           0.69894180E-03
   0.39600000E+01           0.44003527E-03
   0.39700000E+01           0.25749559E-03
   0.39800000E+01           0.12539683E-03
   0.39900000E+01           0.29629630E-04
   0.40000000E+01           0.17636684E-05
