 #written on 30Jul2024 at 21:53:51 
 #----------------- MONTECARLO -------------------#
 #        M                      P(M)             #
 #------------------------------------------------#
 #T=    66.0000
  -0.20000000E+01           0.00000000E+00
  -0.19900000E+01           0.00000000E+00
  -0.19800000E+01           0.00000000E+00
  -0.19700000E+01           0.00000000E+00
  -0.19600000E+01           0.00000000E+00
  -0.19500000E+01           0.00000000E+00
  -0.19400000E+01           0.00000000E+00
  -0.19300000E+01           0.00000000E+00
  -0.19200000E+01           0.00000000E+00
  -0.19100000E+01           0.00000000E+00
  -0.19000000E+01           0.00000000E+00
  -0.18900000E+01           0.00000000E+00
  -0.18800000E+01           0.00000000E+00
  -0.18700000E+01           0.00000000E+00
  -0.18600000E+01           0.00000000E+00
  -0.18500000E+01           0.00000000E+00
  -0.18400000E+01           0.00000000E+00
  -0.18300000E+01           0.00000000E+00
  -0.18200000E+01           0.00000000E+00
  -0.18100000E+01           0.00000000E+00
  -0.18000000E+01           0.00000000E+00
  -0.17900000E+01           0.00000000E+00
  -0.17800000E+01           0.00000000E+00
  -0.17700000E+01           0.00000000E+00
  -0.17600000E+01           0.00000000E+00
  -0.17500000E+01           0.00000000E+00
  -0.17400000E+01           0.00000000E+00
  -0.17300000E+01           0.00000000E+00
  -0.17200000E+01           0.00000000E+00
  -0.17100000E+01           0.00000000E+00
  -0.17000000E+01           0.00000000E+00
  -0.16900000E+01           0.00000000E+00
  -0.16800000E+01           0.00000000E+00
  -0.16700000E+01           0.00000000E+00
  -0.16600000E+01           0.00000000E+00
  -0.16500000E+01           0.00000000E+00
  -0.16400000E+01           0.00000000E+00
  -0.16300000E+01           0.00000000E+00
  -0.16200000E+01           0.00000000E+00
  -0.16100000E+01           0.00000000E+00
  -0.16000000E+01           0.00000000E+00
  -0.15900000E+01           0.00000000E+00
  -0.15800000E+01           0.00000000E+00
  -0.15700000E+01           0.00000000E+00
  -0.15600000E+01           0.00000000E+00
  -0.15500000E+01           0.00000000E+00
  -0.15400000E+01           0.00000000E+00
  -0.15300000E+01           0.00000000E+00
  -0.15200000E+01           0.00000000E+00
  -0.15100000E+01           0.00000000E+00
  -0.15000000E+01           0.00000000E+00
  -0.14900000E+01           0.00000000E+00
  -0.14800000E+01           0.00000000E+00
  -0.14700000E+01           0.00000000E+00
  -0.14600000E+01           0.00000000E+00
  -0.14500000E+01           0.00000000E+00
  -0.14400000E+01           0.00000000E+00
  -0.14300000E+01           0.00000000E+00
  -0.14200000E+01           0.00000000E+00
  -0.14100000E+01           0.00000000E+00
  -0.14000000E+01           0.00000000E+00
  -0.13900000E+01           0.00000000E+00
  -0.13800000E+01           0.00000000E+00
  -0.13700000E+01           0.00000000E+00
  -0.13600000E+01           0.00000000E+00
  -0.13500000E+01           0.00000000E+00
  -0.13400000E+01           0.00000000E+00
  -0.13300000E+01           0.00000000E+00
  -0.13200000E+01           0.00000000E+00
  -0.13100000E+01           0.00000000E+00
  -0.13000000E+01           0.00000000E+00
  -0.12900000E+01           0.00000000E+00
  -0.12800000E+01           0.00000000E+00
  -0.12700000E+01           0.00000000E+00
  -0.12600000E+01           0.00000000E+00
  -0.12500000E+01           0.00000000E+00
  -0.12400000E+01           0.00000000E+00
  -0.12300000E+01           0.00000000E+00
  -0.12200000E+01           0.00000000E+00
  -0.12100000E+01           0.00000000E+00
  -0.12000000E+01           0.00000000E+00
  -0.11900000E+01           0.00000000E+00
  -0.11800000E+01           0.00000000E+00
  -0.11700000E+01           0.00000000E+00
  -0.11600000E+01           0.00000000E+00
  -0.11500000E+01           0.00000000E+00
  -0.11400000E+01           0.00000000E+00
  -0.11300000E+01           0.00000000E+00
  -0.11200000E+01           0.00000000E+00
  -0.11100000E+01           0.00000000E+00
  -0.11000000E+01           0.00000000E+00
  -0.10900000E+01           0.00000000E+00
  -0.10800000E+01           0.00000000E+00
  -0.10700000E+01           0.00000000E+00
  -0.10600000E+01           0.00000000E+00
  -0.10500000E+01           0.00000000E+00
  -0.10400000E+01           0.00000000E+00
  -0.10300000E+01           0.00000000E+00
  -0.10200000E+01           0.00000000E+00
  -0.10100000E+01           0.00000000E+00
  -0.10000000E+01           0.00000000E+00
  -0.99000000E+00           0.00000000E+00
  -0.98000000E+00           0.00000000E+00
  -0.97000000E+00           0.00000000E+00
  -0.96000000E+00           0.00000000E+00
  -0.95000000E+00           0.00000000E+00
  -0.94000000E+00           0.00000000E+00
  -0.93000000E+00           0.00000000E+00
  -0.92000000E+00           0.00000000E+00
  -0.91000000E+00           0.00000000E+00
  -0.90000000E+00           0.00000000E+00
  -0.89000000E+00           0.00000000E+00
  -0.88000000E+00           0.00000000E+00
  -0.87000000E+00           0.00000000E+00
  -0.86000000E+00           0.00000000E+00
  -0.85000000E+00           0.00000000E+00
  -0.84000000E+00           0.00000000E+00
  -0.83000000E+00           0.00000000E+00
  -0.82000000E+00           0.00000000E+00
  -0.81000000E+00           0.00000000E+00
  -0.80000000E+00           0.00000000E+00
  -0.79000000E+00           0.00000000E+00
  -0.78000000E+00           0.00000000E+00
  -0.77000000E+00           0.00000000E+00
  -0.76000000E+00           0.00000000E+00
  -0.75000000E+00           0.00000000E+00
  -0.74000000E+00           0.00000000E+00
  -0.73000000E+00           0.00000000E+00
  -0.72000000E+00           0.00000000E+00
  -0.71000000E+00           0.00000000E+00
  -0.70000000E+00           0.00000000E+00
  -0.69000000E+00           0.00000000E+00
  -0.68000000E+00           0.00000000E+00
  -0.67000000E+00           0.00000000E+00
  -0.66000000E+00           0.00000000E+00
  -0.65000000E+00           0.00000000E+00
  -0.64000000E+00           0.00000000E+00
  -0.63000000E+00           0.00000000E+00
  -0.62000000E+00           0.00000000E+00
  -0.61000000E+00           0.00000000E+00
  -0.60000000E+00           0.00000000E+00
  -0.59000000E+00           0.00000000E+00
  -0.58000000E+00           0.00000000E+00
  -0.57000000E+00           0.00000000E+00
  -0.56000000E+00           0.00000000E+00
  -0.55000000E+00           0.00000000E+00
  -0.54000000E+00           0.00000000E+00
  -0.53000000E+00           0.00000000E+00
  -0.52000000E+00           0.00000000E+00
  -0.51000000E+00           0.00000000E+00
  -0.50000000E+00           0.00000000E+00
  -0.49000000E+00           0.00000000E+00
  -0.48000000E+00           0.00000000E+00
  -0.47000000E+00           0.00000000E+00
  -0.46000000E+00           0.00000000E+00
  -0.45000000E+00           0.00000000E+00
  -0.44000000E+00           0.00000000E+00
  -0.43000000E+00           0.00000000E+00
  -0.42000000E+00           0.00000000E+00
  -0.41000000E+00           0.00000000E+00
  -0.40000000E+00           0.00000000E+00
  -0.39000000E+00           0.00000000E+00
  -0.38000000E+00           0.00000000E+00
  -0.37000000E+00           0.00000000E+00
  -0.36000000E+00           0.00000000E+00
  -0.35000000E+00           0.00000000E+00
  -0.34000000E+00           0.00000000E+00
  -0.33000000E+00           0.00000000E+00
  -0.32000000E+00           0.00000000E+00
  -0.31000000E+00           0.00000000E+00
  -0.30000000E+00           0.00000000E+00
  -0.29000000E+00           0.00000000E+00
  -0.28000000E+00           0.00000000E+00
  -0.27000000E+00           0.00000000E+00
  -0.26000000E+00           0.00000000E+00
  -0.25000000E+00           0.00000000E+00
  -0.24000000E+00           0.00000000E+00
  -0.23000000E+00           0.00000000E+00
  -0.22000000E+00           0.00000000E+00
  -0.21000000E+00           0.00000000E+00
  -0.20000000E+00           0.00000000E+00
  -0.19000000E+00           0.00000000E+00
  -0.18000000E+00           0.00000000E+00
  -0.17000000E+00           0.00000000E+00
  -0.16000000E+00           0.00000000E+00
  -0.15000000E+00           0.00000000E+00
  -0.14000000E+00           0.00000000E+00
  -0.13000000E+00           0.00000000E+00
  -0.12000000E+00           0.00000000E+00
  -0.11000000E+00           0.00000000E+00
  -0.10000000E+00           0.00000000E+00
  -0.90000000E-01           0.00000000E+00
  -0.80000000E-01           0.00000000E+00
  -0.70000000E-01           0.00000000E+00
  -0.60000000E-01           0.00000000E+00
  -0.50000000E-01           0.00000000E+00
  -0.40000000E-01           0.00000000E+00
  -0.30000000E-01           0.00000000E+00
  -0.20000000E-01           0.00000000E+00
  -0.10000000E-01           0.00000000E+00
   0.00000000E+00           0.26542000E-02
   0.10000000E-01           0.21600600E-01
   0.20000000E-01           0.43268400E-01
   0.30000000E-01           0.64636800E-01
   0.40000000E-01           0.86214000E-01
   0.50000000E-01           0.10762470E+00
   0.60000000E-01           0.12879070E+00
   0.70000000E-01           0.15048180E+00
   0.80000000E-01           0.17138580E+00
   0.90000000E-01           0.19265940E+00
   0.10000000E+00           0.21385510E+00
   0.11000000E+00           0.23500390E+00
   0.12000000E+00           0.25512470E+00
   0.13000000E+00           0.27595530E+00
   0.14000000E+00           0.29603790E+00
   0.15000000E+00           0.31677610E+00
   0.16000000E+00           0.33694020E+00
   0.17000000E+00           0.35689080E+00
   0.18000000E+00           0.37657320E+00
   0.19000000E+00           0.39590350E+00
   0.20000000E+00           0.41541750E+00
   0.21000000E+00           0.43454550E+00
   0.22000000E+00           0.45335770E+00
   0.23000000E+00           0.47176340E+00
   0.24000000E+00           0.49044300E+00
   0.25000000E+00           0.50809390E+00
   0.26000000E+00           0.52658660E+00
   0.27000000E+00           0.54388120E+00
   0.28000000E+00           0.56080420E+00
   0.29000000E+00           0.57800610E+00
   0.30000000E+00           0.59405530E+00
   0.31000000E+00           0.61064600E+00
   0.32000000E+00           0.62685220E+00
   0.33000000E+00           0.64261080E+00
   0.34000000E+00           0.65794500E+00
   0.35000000E+00           0.67215850E+00
   0.36000000E+00           0.68720390E+00
   0.37000000E+00           0.70171040E+00
   0.38000000E+00           0.71502760E+00
   0.39000000E+00           0.72855940E+00
   0.40000000E+00           0.74179980E+00
   0.41000000E+00           0.75457270E+00
   0.42000000E+00           0.76678000E+00
   0.43000000E+00           0.77859550E+00
   0.44000000E+00           0.78937470E+00
   0.45000000E+00           0.80118710E+00
   0.46000000E+00           0.81195960E+00
   0.47000000E+00           0.82162840E+00
   0.48000000E+00           0.83157250E+00
   0.49000000E+00           0.84139850E+00
   0.50000000E+00           0.85054910E+00
   0.51000000E+00           0.85922700E+00
   0.52000000E+00           0.86679540E+00
   0.53000000E+00           0.87491420E+00
   0.54000000E+00           0.88217230E+00
   0.55000000E+00           0.88886680E+00
   0.56000000E+00           0.89485450E+00
   0.57000000E+00           0.90169970E+00
   0.58000000E+00           0.90674180E+00
   0.59000000E+00           0.91217750E+00
   0.60000000E+00           0.91707380E+00
   0.61000000E+00           0.92139480E+00
   0.62000000E+00           0.92523820E+00
   0.63000000E+00           0.92943650E+00
   0.64000000E+00           0.93109900E+00
   0.65000000E+00           0.93428060E+00
   0.66000000E+00           0.93589060E+00
   0.67000000E+00           0.93808060E+00
   0.68000000E+00           0.93850670E+00
   0.69000000E+00           0.94039300E+00
   0.70000000E+00           0.94092120E+00
   0.71000000E+00           0.94057260E+00
   0.72000000E+00           0.94013580E+00
   0.73000000E+00           0.93935800E+00
   0.74000000E+00           0.93908170E+00
   0.75000000E+00           0.93783670E+00
   0.76000000E+00           0.93556540E+00
   0.77000000E+00           0.93236560E+00
   0.78000000E+00           0.93024910E+00
   0.79000000E+00           0.92739040E+00
   0.80000000E+00           0.92377770E+00
   0.81000000E+00           0.91978700E+00
   0.82000000E+00           0.91608540E+00
   0.83000000E+00           0.91148310E+00
   0.84000000E+00           0.90737680E+00
   0.85000000E+00           0.90151920E+00
   0.86000000E+00           0.89648030E+00
   0.87000000E+00           0.89048060E+00
   0.88000000E+00           0.88488080E+00
   0.89000000E+00           0.87914260E+00
   0.90000000E+00           0.87196730E+00
   0.91000000E+00           0.86540220E+00
   0.92000000E+00           0.85771970E+00
   0.93000000E+00           0.85013950E+00
   0.94000000E+00           0.84249970E+00
   0.95000000E+00           0.83432050E+00
   0.96000000E+00           0.82654310E+00
   0.97000000E+00           0.81819020E+00
   0.98000000E+00           0.80911450E+00
   0.99000000E+00           0.80043320E+00
   0.10000000E+01           0.79099680E+00
   0.10100000E+01           0.78172170E+00
   0.10200000E+01           0.77216530E+00
   0.10300000E+01           0.76284520E+00
   0.10400000E+01           0.75278710E+00
   0.10500000E+01           0.74348440E+00
   0.10600000E+01           0.73323220E+00
   0.10700000E+01           0.72272960E+00
   0.10800000E+01           0.71210040E+00
   0.10900000E+01           0.70187160E+00
   0.11000000E+01           0.69093570E+00
   0.11100000E+01           0.67970340E+00
   0.11200000E+01           0.66912450E+00
   0.11300000E+01           0.65810130E+00
   0.11400000E+01           0.64661570E+00
   0.11500000E+01           0.63614000E+00
   0.11600000E+01           0.62470630E+00
   0.11700000E+01           0.61381840E+00
   0.11800000E+01           0.60206710E+00
   0.11900000E+01           0.59111870E+00
   0.12000000E+01           0.57896840E+00
   0.12100000E+01           0.56773500E+00
   0.12200000E+01           0.55630200E+00
   0.12300000E+01           0.54494620E+00
   0.12400000E+01           0.53324090E+00
   0.12500000E+01           0.52225610E+00
   0.12600000E+01           0.51051710E+00
   0.12700000E+01           0.49886040E+00
   0.12800000E+01           0.48726010E+00
   0.12900000E+01           0.47669200E+00
   0.13000000E+01           0.46485210E+00
   0.13100000E+01           0.45337890E+00
   0.13200000E+01           0.44246580E+00
   0.13300000E+01           0.43124700E+00
   0.13400000E+01           0.42053790E+00
   0.13500000E+01           0.40958380E+00
   0.13600000E+01           0.39831920E+00
   0.13700000E+01           0.38767950E+00
   0.13800000E+01           0.37654570E+00
   0.13900000E+01           0.36593360E+00
   0.14000000E+01           0.35573140E+00
   0.14100000E+01           0.34500420E+00
   0.14200000E+01           0.33494430E+00
   0.14300000E+01           0.32454910E+00
   0.14400000E+01           0.31446750E+00
   0.14500000E+01           0.30497220E+00
   0.14600000E+01           0.29499100E+00
   0.14700000E+01           0.28521170E+00
   0.14800000E+01           0.27579630E+00
   0.14900000E+01           0.26659770E+00
   0.15000000E+01           0.25730650E+00
   0.15100000E+01           0.24802330E+00
   0.15200000E+01           0.23916760E+00
   0.15300000E+01           0.23063510E+00
   0.15400000E+01           0.22196410E+00
   0.15500000E+01           0.21348220E+00
   0.15600000E+01           0.20523390E+00
   0.15700000E+01           0.19705630E+00
   0.15800000E+01           0.18934510E+00
   0.15900000E+01           0.18167700E+00
   0.16000000E+01           0.17410240E+00
   0.16100000E+01           0.16670440E+00
   0.16200000E+01           0.15938180E+00
   0.16300000E+01           0.15243250E+00
   0.16400000E+01           0.14557480E+00
   0.16500000E+01           0.13887230E+00
   0.16600000E+01           0.13242450E+00
   0.16700000E+01           0.12595000E+00
   0.16800000E+01           0.11966530E+00
   0.16900000E+01           0.11371960E+00
   0.17000000E+01           0.10818640E+00
   0.17100000E+01           0.10246150E+00
   0.17200000E+01           0.96761100E-01
   0.17300000E+01           0.91823700E-01
   0.17400000E+01           0.86568200E-01
   0.17500000E+01           0.81753800E-01
   0.17600000E+01           0.77005400E-01
   0.17700000E+01           0.72471100E-01
   0.17800000E+01           0.67881600E-01
   0.17900000E+01           0.63646900E-01
   0.18000000E+01           0.59528300E-01
   0.18100000E+01           0.55613900E-01
   0.18200000E+01           0.51834800E-01
   0.18300000E+01           0.48150600E-01
   0.18400000E+01           0.44641600E-01
   0.18500000E+01           0.41472100E-01
   0.18600000E+01           0.38220700E-01
   0.18700000E+01           0.35128500E-01
   0.18800000E+01           0.32349600E-01
   0.18900000E+01           0.29602300E-01
   0.19000000E+01           0.27030400E-01
   0.19100000E+01           0.24602300E-01
   0.19200000E+01           0.22233800E-01
   0.19300000E+01           0.20053900E-01
   0.19400000E+01           0.17995800E-01
   0.19500000E+01           0.16047700E-01
   0.19600000E+01           0.14252500E-01
   0.19700000E+01           0.12525000E-01
   0.19800000E+01           0.10877300E-01
   0.19900000E+01           0.93978000E-02
   0.20000000E+01           0.41841000E-02
 #T=    67.0000
  -0.20000000E+01           0.00000000E+00
  -0.19900000E+01           0.00000000E+00
  -0.19800000E+01           0.00000000E+00
  -0.19700000E+01           0.00000000E+00
  -0.19600000E+01           0.00000000E+00
  -0.19500000E+01           0.00000000E+00
  -0.19400000E+01           0.00000000E+00
  -0.19300000E+01           0.00000000E+00
  -0.19200000E+01           0.00000000E+00
  -0.19100000E+01           0.00000000E+00
  -0.19000000E+01           0.00000000E+00
  -0.18900000E+01           0.00000000E+00
  -0.18800000E+01           0.00000000E+00
  -0.18700000E+01           0.00000000E+00
  -0.18600000E+01           0.00000000E+00
  -0.18500000E+01           0.00000000E+00
  -0.18400000E+01           0.00000000E+00
  -0.18300000E+01           0.00000000E+00
  -0.18200000E+01           0.00000000E+00
  -0.18100000E+01           0.00000000E+00
  -0.18000000E+01           0.00000000E+00
  -0.17900000E+01           0.00000000E+00
  -0.17800000E+01           0.00000000E+00
  -0.17700000E+01           0.00000000E+00
  -0.17600000E+01           0.00000000E+00
  -0.17500000E+01           0.00000000E+00
  -0.17400000E+01           0.00000000E+00
  -0.17300000E+01           0.00000000E+00
  -0.17200000E+01           0.00000000E+00
  -0.17100000E+01           0.00000000E+00
  -0.17000000E+01           0.00000000E+00
  -0.16900000E+01           0.00000000E+00
  -0.16800000E+01           0.00000000E+00
  -0.16700000E+01           0.00000000E+00
  -0.16600000E+01           0.00000000E+00
  -0.16500000E+01           0.00000000E+00
  -0.16400000E+01           0.00000000E+00
  -0.16300000E+01           0.00000000E+00
  -0.16200000E+01           0.00000000E+00
  -0.16100000E+01           0.00000000E+00
  -0.16000000E+01           0.00000000E+00
  -0.15900000E+01           0.00000000E+00
  -0.15800000E+01           0.00000000E+00
  -0.15700000E+01           0.00000000E+00
  -0.15600000E+01           0.00000000E+00
  -0.15500000E+01           0.00000000E+00
  -0.15400000E+01           0.00000000E+00
  -0.15300000E+01           0.00000000E+00
  -0.15200000E+01           0.00000000E+00
  -0.15100000E+01           0.00000000E+00
  -0.15000000E+01           0.00000000E+00
  -0.14900000E+01           0.00000000E+00
  -0.14800000E+01           0.00000000E+00
  -0.14700000E+01           0.00000000E+00
  -0.14600000E+01           0.00000000E+00
  -0.14500000E+01           0.00000000E+00
  -0.14400000E+01           0.00000000E+00
  -0.14300000E+01           0.00000000E+00
  -0.14200000E+01           0.00000000E+00
  -0.14100000E+01           0.00000000E+00
  -0.14000000E+01           0.00000000E+00
  -0.13900000E+01           0.00000000E+00
  -0.13800000E+01           0.00000000E+00
  -0.13700000E+01           0.00000000E+00
  -0.13600000E+01           0.00000000E+00
  -0.13500000E+01           0.00000000E+00
  -0.13400000E+01           0.00000000E+00
  -0.13300000E+01           0.00000000E+00
  -0.13200000E+01           0.00000000E+00
  -0.13100000E+01           0.00000000E+00
  -0.13000000E+01           0.00000000E+00
  -0.12900000E+01           0.00000000E+00
  -0.12800000E+01           0.00000000E+00
  -0.12700000E+01           0.00000000E+00
  -0.12600000E+01           0.00000000E+00
  -0.12500000E+01           0.00000000E+00
  -0.12400000E+01           0.00000000E+00
  -0.12300000E+01           0.00000000E+00
  -0.12200000E+01           0.00000000E+00
  -0.12100000E+01           0.00000000E+00
  -0.12000000E+01           0.00000000E+00
  -0.11900000E+01           0.00000000E+00
  -0.11800000E+01           0.00000000E+00
  -0.11700000E+01           0.00000000E+00
  -0.11600000E+01           0.00000000E+00
  -0.11500000E+01           0.00000000E+00
  -0.11400000E+01           0.00000000E+00
  -0.11300000E+01           0.00000000E+00
  -0.11200000E+01           0.00000000E+00
  -0.11100000E+01           0.00000000E+00
  -0.11000000E+01           0.00000000E+00
  -0.10900000E+01           0.00000000E+00
  -0.10800000E+01           0.00000000E+00
  -0.10700000E+01           0.00000000E+00
  -0.10600000E+01           0.00000000E+00
  -0.10500000E+01           0.00000000E+00
  -0.10400000E+01           0.00000000E+00
  -0.10300000E+01           0.00000000E+00
  -0.10200000E+01           0.00000000E+00
  -0.10100000E+01           0.00000000E+00
  -0.10000000E+01           0.00000000E+00
  -0.99000000E+00           0.00000000E+00
  -0.98000000E+00           0.00000000E+00
  -0.97000000E+00           0.00000000E+00
  -0.96000000E+00           0.00000000E+00
  -0.95000000E+00           0.00000000E+00
  -0.94000000E+00           0.00000000E+00
  -0.93000000E+00           0.00000000E+00
  -0.92000000E+00           0.00000000E+00
  -0.91000000E+00           0.00000000E+00
  -0.90000000E+00           0.00000000E+00
  -0.89000000E+00           0.00000000E+00
  -0.88000000E+00           0.00000000E+00
  -0.87000000E+00           0.00000000E+00
  -0.86000000E+00           0.00000000E+00
  -0.85000000E+00           0.00000000E+00
  -0.84000000E+00           0.00000000E+00
  -0.83000000E+00           0.00000000E+00
  -0.82000000E+00           0.00000000E+00
  -0.81000000E+00           0.00000000E+00
  -0.80000000E+00           0.00000000E+00
  -0.79000000E+00           0.00000000E+00
  -0.78000000E+00           0.00000000E+00
  -0.77000000E+00           0.00000000E+00
  -0.76000000E+00           0.00000000E+00
  -0.75000000E+00           0.00000000E+00
  -0.74000000E+00           0.00000000E+00
  -0.73000000E+00           0.00000000E+00
  -0.72000000E+00           0.00000000E+00
  -0.71000000E+00           0.00000000E+00
  -0.70000000E+00           0.00000000E+00
  -0.69000000E+00           0.00000000E+00
  -0.68000000E+00           0.00000000E+00
  -0.67000000E+00           0.00000000E+00
  -0.66000000E+00           0.00000000E+00
  -0.65000000E+00           0.00000000E+00
  -0.64000000E+00           0.00000000E+00
  -0.63000000E+00           0.00000000E+00
  -0.62000000E+00           0.00000000E+00
  -0.61000000E+00           0.00000000E+00
  -0.60000000E+00           0.00000000E+00
  -0.59000000E+00           0.00000000E+00
  -0.58000000E+00           0.00000000E+00
  -0.57000000E+00           0.00000000E+00
  -0.56000000E+00           0.00000000E+00
  -0.55000000E+00           0.00000000E+00
  -0.54000000E+00           0.00000000E+00
  -0.53000000E+00           0.00000000E+00
  -0.52000000E+00           0.00000000E+00
  -0.51000000E+00           0.00000000E+00
  -0.50000000E+00           0.00000000E+00
  -0.49000000E+00           0.00000000E+00
  -0.48000000E+00           0.00000000E+00
  -0.47000000E+00           0.00000000E+00
  -0.46000000E+00           0.00000000E+00
  -0.45000000E+00           0.00000000E+00
  -0.44000000E+00           0.00000000E+00
  -0.43000000E+00           0.00000000E+00
  -0.42000000E+00           0.00000000E+00
  -0.41000000E+00           0.00000000E+00
  -0.40000000E+00           0.00000000E+00
  -0.39000000E+00           0.00000000E+00
  -0.38000000E+00           0.00000000E+00
  -0.37000000E+00           0.00000000E+00
  -0.36000000E+00           0.00000000E+00
  -0.35000000E+00           0.00000000E+00
  -0.34000000E+00           0.00000000E+00
  -0.33000000E+00           0.00000000E+00
  -0.32000000E+00           0.00000000E+00
  -0.31000000E+00           0.00000000E+00
  -0.30000000E+00           0.00000000E+00
  -0.29000000E+00           0.00000000E+00
  -0.28000000E+00           0.00000000E+00
  -0.27000000E+00           0.00000000E+00
  -0.26000000E+00           0.00000000E+00
  -0.25000000E+00           0.00000000E+00
  -0.24000000E+00           0.00000000E+00
  -0.23000000E+00           0.00000000E+00
  -0.22000000E+00           0.00000000E+00
  -0.21000000E+00           0.00000000E+00
  -0.20000000E+00           0.00000000E+00
  -0.19000000E+00           0.00000000E+00
  -0.18000000E+00           0.00000000E+00
  -0.17000000E+00           0.00000000E+00
  -0.16000000E+00           0.00000000E+00
  -0.15000000E+00           0.00000000E+00
  -0.14000000E+00           0.00000000E+00
  -0.13000000E+00           0.00000000E+00
  -0.12000000E+00           0.00000000E+00
  -0.11000000E+00           0.00000000E+00
  -0.10000000E+00           0.00000000E+00
  -0.90000000E-01           0.00000000E+00
  -0.80000000E-01           0.00000000E+00
  -0.70000000E-01           0.00000000E+00
  -0.60000000E-01           0.00000000E+00
  -0.50000000E-01           0.00000000E+00
  -0.40000000E-01           0.00000000E+00
  -0.30000000E-01           0.00000000E+00
  -0.20000000E-01           0.00000000E+00
  -0.10000000E-01           0.00000000E+00
   0.00000000E+00           0.26648000E-02
   0.10000000E-01           0.21166400E-01
   0.20000000E-01           0.42327600E-01
   0.30000000E-01           0.63330600E-01
   0.40000000E-01           0.84431800E-01
   0.50000000E-01           0.10540110E+00
   0.60000000E-01           0.12631580E+00
   0.70000000E-01           0.14723200E+00
   0.80000000E-01           0.16822240E+00
   0.90000000E-01           0.18885020E+00
   0.10000000E+00           0.20932180E+00
   0.11000000E+00           0.22962540E+00
   0.12000000E+00           0.24991640E+00
   0.13000000E+00           0.27039280E+00
   0.14000000E+00           0.29049740E+00
   0.15000000E+00           0.31041340E+00
   0.16000000E+00           0.33047070E+00
   0.17000000E+00           0.35014420E+00
   0.18000000E+00           0.36848930E+00
   0.19000000E+00           0.38796230E+00
   0.20000000E+00           0.40760510E+00
   0.21000000E+00           0.42670010E+00
   0.22000000E+00           0.44494630E+00
   0.23000000E+00           0.46282550E+00
   0.24000000E+00           0.48110980E+00
   0.25000000E+00           0.49909230E+00
   0.26000000E+00           0.51621010E+00
   0.27000000E+00           0.53342860E+00
   0.28000000E+00           0.55047460E+00
   0.29000000E+00           0.56701640E+00
   0.30000000E+00           0.58368920E+00
   0.31000000E+00           0.59958140E+00
   0.32000000E+00           0.61528650E+00
   0.33000000E+00           0.63035960E+00
   0.34000000E+00           0.64587070E+00
   0.35000000E+00           0.66043410E+00
   0.36000000E+00           0.67485330E+00
   0.37000000E+00           0.68854980E+00
   0.38000000E+00           0.70368560E+00
   0.39000000E+00           0.71646150E+00
   0.40000000E+00           0.72938370E+00
   0.41000000E+00           0.74161910E+00
   0.42000000E+00           0.75411310E+00
   0.43000000E+00           0.76561900E+00
   0.44000000E+00           0.77683050E+00
   0.45000000E+00           0.78884100E+00
   0.46000000E+00           0.79965950E+00
   0.47000000E+00           0.80963720E+00
   0.48000000E+00           0.81910690E+00
   0.49000000E+00           0.82897420E+00
   0.50000000E+00           0.83770010E+00
   0.51000000E+00           0.84651480E+00
   0.52000000E+00           0.85472890E+00
   0.53000000E+00           0.86260400E+00
   0.54000000E+00           0.86984210E+00
   0.55000000E+00           0.87710220E+00
   0.56000000E+00           0.88371240E+00
   0.57000000E+00           0.88991770E+00
   0.58000000E+00           0.89556910E+00
   0.59000000E+00           0.90039940E+00
   0.60000000E+00           0.90561330E+00
   0.61000000E+00           0.91033750E+00
   0.62000000E+00           0.91391380E+00
   0.63000000E+00           0.91787880E+00
   0.64000000E+00           0.92161290E+00
   0.65000000E+00           0.92357880E+00
   0.66000000E+00           0.92592410E+00
   0.67000000E+00           0.92865430E+00
   0.68000000E+00           0.93009530E+00
   0.69000000E+00           0.93047580E+00
   0.70000000E+00           0.93189690E+00
   0.71000000E+00           0.93251890E+00
   0.72000000E+00           0.93234100E+00
   0.73000000E+00           0.93265280E+00
   0.74000000E+00           0.93051450E+00
   0.75000000E+00           0.92986870E+00
   0.76000000E+00           0.92827760E+00
   0.77000000E+00           0.92654380E+00
   0.78000000E+00           0.92412460E+00
   0.79000000E+00           0.92171820E+00
   0.80000000E+00           0.91859020E+00
   0.81000000E+00           0.91507070E+00
   0.82000000E+00           0.91173560E+00
   0.83000000E+00           0.90746480E+00
   0.84000000E+00           0.90312320E+00
   0.85000000E+00           0.89865090E+00
   0.86000000E+00           0.89344710E+00
   0.87000000E+00           0.88841710E+00
   0.88000000E+00           0.88275380E+00
   0.89000000E+00           0.87619420E+00
   0.90000000E+00           0.87059150E+00
   0.91000000E+00           0.86309420E+00
   0.92000000E+00           0.85611740E+00
   0.93000000E+00           0.85024730E+00
   0.94000000E+00           0.84305660E+00
   0.95000000E+00           0.83499750E+00
   0.96000000E+00           0.82683460E+00
   0.97000000E+00           0.81902390E+00
   0.98000000E+00           0.81068670E+00
   0.99000000E+00           0.80321740E+00
   0.10000000E+01           0.79438320E+00
   0.10100000E+01           0.78418410E+00
   0.10200000E+01           0.77593580E+00
   0.10300000E+01           0.76638760E+00
   0.10400000E+01           0.75707760E+00
   0.10500000E+01           0.74728050E+00
   0.10600000E+01           0.73793070E+00
   0.10700000E+01           0.72731230E+00
   0.10800000E+01           0.71759790E+00
   0.10900000E+01           0.70761250E+00
   0.11000000E+01           0.69713960E+00
   0.11100000E+01           0.68618250E+00
   0.11200000E+01           0.67563250E+00
   0.11300000E+01           0.66524150E+00
   0.11400000E+01           0.65423760E+00
   0.11500000E+01           0.64354990E+00
   0.11600000E+01           0.63208300E+00
   0.11700000E+01           0.62176980E+00
   0.11800000E+01           0.61078390E+00
   0.11900000E+01           0.59925710E+00
   0.12000000E+01           0.58762920E+00
   0.12100000E+01           0.57628360E+00
   0.12200000E+01           0.56532810E+00
   0.12300000E+01           0.55461250E+00
   0.12400000E+01           0.54346350E+00
   0.12500000E+01           0.53110280E+00
   0.12600000E+01           0.52041940E+00
   0.12700000E+01           0.50904940E+00
   0.12800000E+01           0.49802410E+00
   0.12900000E+01           0.48687060E+00
   0.13000000E+01           0.47527260E+00
   0.13100000E+01           0.46416410E+00
   0.13200000E+01           0.45331670E+00
   0.13300000E+01           0.44209490E+00
   0.13400000E+01           0.43117960E+00
   0.13500000E+01           0.41981570E+00
   0.13600000E+01           0.40913690E+00
   0.13700000E+01           0.39790200E+00
   0.13800000E+01           0.38777110E+00
   0.13900000E+01           0.37716240E+00
   0.14000000E+01           0.36717970E+00
   0.14100000E+01           0.35663100E+00
   0.14200000E+01           0.34601120E+00
   0.14300000E+01           0.33564660E+00
   0.14400000E+01           0.32548120E+00
   0.14500000E+01           0.31573180E+00
   0.14600000E+01           0.30642060E+00
   0.14700000E+01           0.29628190E+00
   0.14800000E+01           0.28611480E+00
   0.14900000E+01           0.27715880E+00
   0.15000000E+01           0.26799670E+00
   0.15100000E+01           0.25891280E+00
   0.15200000E+01           0.24982160E+00
   0.15300000E+01           0.24106970E+00
   0.15400000E+01           0.23212520E+00
   0.15500000E+01           0.22384310E+00
   0.15600000E+01           0.21520490E+00
   0.15700000E+01           0.20710620E+00
   0.15800000E+01           0.19876020E+00
   0.15900000E+01           0.19160380E+00
   0.16000000E+01           0.18352490E+00
   0.16100000E+01           0.17593030E+00
   0.16200000E+01           0.16837430E+00
   0.16300000E+01           0.16123350E+00
   0.16400000E+01           0.15431620E+00
   0.16500000E+01           0.14740410E+00
   0.16600000E+01           0.14071220E+00
   0.16700000E+01           0.13409020E+00
   0.16800000E+01           0.12773980E+00
   0.16900000E+01           0.12146660E+00
   0.17000000E+01           0.11547670E+00
   0.17100000E+01           0.10954810E+00
   0.17200000E+01           0.10386490E+00
   0.17300000E+01           0.98460400E-01
   0.17400000E+01           0.93200900E-01
   0.17500000E+01           0.88025900E-01
   0.17600000E+01           0.83050200E-01
   0.17700000E+01           0.78321100E-01
   0.17800000E+01           0.73485300E-01
   0.17900000E+01           0.68969600E-01
   0.18000000E+01           0.64820400E-01
   0.18100000E+01           0.60607500E-01
   0.18200000E+01           0.56618300E-01
   0.18300000E+01           0.52879100E-01
   0.18400000E+01           0.49146100E-01
   0.18500000E+01           0.45592100E-01
   0.18600000E+01           0.42188600E-01
   0.18700000E+01           0.38973700E-01
   0.18800000E+01           0.35885800E-01
   0.18900000E+01           0.32925700E-01
   0.19000000E+01           0.30280700E-01
   0.19100000E+01           0.27491800E-01
   0.19200000E+01           0.24918100E-01
   0.19300000E+01           0.22541400E-01
   0.19400000E+01           0.20404100E-01
   0.19500000E+01           0.18241300E-01
   0.19600000E+01           0.16176900E-01
   0.19700000E+01           0.14377300E-01
   0.19800000E+01           0.12596800E-01
   0.19900000E+01           0.10884800E-01
   0.20000000E+01           0.48856000E-02
 #T=    68.0000
  -0.20000000E+01           0.00000000E+00
  -0.19900000E+01           0.00000000E+00
  -0.19800000E+01           0.00000000E+00
  -0.19700000E+01           0.00000000E+00
  -0.19600000E+01           0.00000000E+00
  -0.19500000E+01           0.00000000E+00
  -0.19400000E+01           0.00000000E+00
  -0.19300000E+01           0.00000000E+00
  -0.19200000E+01           0.00000000E+00
  -0.19100000E+01           0.00000000E+00
  -0.19000000E+01           0.00000000E+00
  -0.18900000E+01           0.00000000E+00
  -0.18800000E+01           0.00000000E+00
  -0.18700000E+01           0.00000000E+00
  -0.18600000E+01           0.00000000E+00
  -0.18500000E+01           0.00000000E+00
  -0.18400000E+01           0.00000000E+00
  -0.18300000E+01           0.00000000E+00
  -0.18200000E+01           0.00000000E+00
  -0.18100000E+01           0.00000000E+00
  -0.18000000E+01           0.00000000E+00
  -0.17900000E+01           0.00000000E+00
  -0.17800000E+01           0.00000000E+00
  -0.17700000E+01           0.00000000E+00
  -0.17600000E+01           0.00000000E+00
  -0.17500000E+01           0.00000000E+00
  -0.17400000E+01           0.00000000E+00
  -0.17300000E+01           0.00000000E+00
  -0.17200000E+01           0.00000000E+00
  -0.17100000E+01           0.00000000E+00
  -0.17000000E+01           0.00000000E+00
  -0.16900000E+01           0.00000000E+00
  -0.16800000E+01           0.00000000E+00
  -0.16700000E+01           0.00000000E+00
  -0.16600000E+01           0.00000000E+00
  -0.16500000E+01           0.00000000E+00
  -0.16400000E+01           0.00000000E+00
  -0.16300000E+01           0.00000000E+00
  -0.16200000E+01           0.00000000E+00
  -0.16100000E+01           0.00000000E+00
  -0.16000000E+01           0.00000000E+00
  -0.15900000E+01           0.00000000E+00
  -0.15800000E+01           0.00000000E+00
  -0.15700000E+01           0.00000000E+00
  -0.15600000E+01           0.00000000E+00
  -0.15500000E+01           0.00000000E+00
  -0.15400000E+01           0.00000000E+00
  -0.15300000E+01           0.00000000E+00
  -0.15200000E+01           0.00000000E+00
  -0.15100000E+01           0.00000000E+00
  -0.15000000E+01           0.00000000E+00
  -0.14900000E+01           0.00000000E+00
  -0.14800000E+01           0.00000000E+00
  -0.14700000E+01           0.00000000E+00
  -0.14600000E+01           0.00000000E+00
  -0.14500000E+01           0.00000000E+00
  -0.14400000E+01           0.00000000E+00
  -0.14300000E+01           0.00000000E+00
  -0.14200000E+01           0.00000000E+00
  -0.14100000E+01           0.00000000E+00
  -0.14000000E+01           0.00000000E+00
  -0.13900000E+01           0.00000000E+00
  -0.13800000E+01           0.00000000E+00
  -0.13700000E+01           0.00000000E+00
  -0.13600000E+01           0.00000000E+00
  -0.13500000E+01           0.00000000E+00
  -0.13400000E+01           0.00000000E+00
  -0.13300000E+01           0.00000000E+00
  -0.13200000E+01           0.00000000E+00
  -0.13100000E+01           0.00000000E+00
  -0.13000000E+01           0.00000000E+00
  -0.12900000E+01           0.00000000E+00
  -0.12800000E+01           0.00000000E+00
  -0.12700000E+01           0.00000000E+00
  -0.12600000E+01           0.00000000E+00
  -0.12500000E+01           0.00000000E+00
  -0.12400000E+01           0.00000000E+00
  -0.12300000E+01           0.00000000E+00
  -0.12200000E+01           0.00000000E+00
  -0.12100000E+01           0.00000000E+00
  -0.12000000E+01           0.00000000E+00
  -0.11900000E+01           0.00000000E+00
  -0.11800000E+01           0.00000000E+00
  -0.11700000E+01           0.00000000E+00
  -0.11600000E+01           0.00000000E+00
  -0.11500000E+01           0.00000000E+00
  -0.11400000E+01           0.00000000E+00
  -0.11300000E+01           0.00000000E+00
  -0.11200000E+01           0.00000000E+00
  -0.11100000E+01           0.00000000E+00
  -0.11000000E+01           0.00000000E+00
  -0.10900000E+01           0.00000000E+00
  -0.10800000E+01           0.00000000E+00
  -0.10700000E+01           0.00000000E+00
  -0.10600000E+01           0.00000000E+00
  -0.10500000E+01           0.00000000E+00
  -0.10400000E+01           0.00000000E+00
  -0.10300000E+01           0.00000000E+00
  -0.10200000E+01           0.00000000E+00
  -0.10100000E+01           0.00000000E+00
  -0.10000000E+01           0.00000000E+00
  -0.99000000E+00           0.00000000E+00
  -0.98000000E+00           0.00000000E+00
  -0.97000000E+00           0.00000000E+00
  -0.96000000E+00           0.00000000E+00
  -0.95000000E+00           0.00000000E+00
  -0.94000000E+00           0.00000000E+00
  -0.93000000E+00           0.00000000E+00
  -0.92000000E+00           0.00000000E+00
  -0.91000000E+00           0.00000000E+00
  -0.90000000E+00           0.00000000E+00
  -0.89000000E+00           0.00000000E+00
  -0.88000000E+00           0.00000000E+00
  -0.87000000E+00           0.00000000E+00
  -0.86000000E+00           0.00000000E+00
  -0.85000000E+00           0.00000000E+00
  -0.84000000E+00           0.00000000E+00
  -0.83000000E+00           0.00000000E+00
  -0.82000000E+00           0.00000000E+00
  -0.81000000E+00           0.00000000E+00
  -0.80000000E+00           0.00000000E+00
  -0.79000000E+00           0.00000000E+00
  -0.78000000E+00           0.00000000E+00
  -0.77000000E+00           0.00000000E+00
  -0.76000000E+00           0.00000000E+00
  -0.75000000E+00           0.00000000E+00
  -0.74000000E+00           0.00000000E+00
  -0.73000000E+00           0.00000000E+00
  -0.72000000E+00           0.00000000E+00
  -0.71000000E+00           0.00000000E+00
  -0.70000000E+00           0.00000000E+00
  -0.69000000E+00           0.00000000E+00
  -0.68000000E+00           0.00000000E+00
  -0.67000000E+00           0.00000000E+00
  -0.66000000E+00           0.00000000E+00
  -0.65000000E+00           0.00000000E+00
  -0.64000000E+00           0.00000000E+00
  -0.63000000E+00           0.00000000E+00
  -0.62000000E+00           0.00000000E+00
  -0.61000000E+00           0.00000000E+00
  -0.60000000E+00           0.00000000E+00
  -0.59000000E+00           0.00000000E+00
  -0.58000000E+00           0.00000000E+00
  -0.57000000E+00           0.00000000E+00
  -0.56000000E+00           0.00000000E+00
  -0.55000000E+00           0.00000000E+00
  -0.54000000E+00           0.00000000E+00
  -0.53000000E+00           0.00000000E+00
  -0.52000000E+00           0.00000000E+00
  -0.51000000E+00           0.00000000E+00
  -0.50000000E+00           0.00000000E+00
  -0.49000000E+00           0.00000000E+00
  -0.48000000E+00           0.00000000E+00
  -0.47000000E+00           0.00000000E+00
  -0.46000000E+00           0.00000000E+00
  -0.45000000E+00           0.00000000E+00
  -0.44000000E+00           0.00000000E+00
  -0.43000000E+00           0.00000000E+00
  -0.42000000E+00           0.00000000E+00
  -0.41000000E+00           0.00000000E+00
  -0.40000000E+00           0.00000000E+00
  -0.39000000E+00           0.00000000E+00
  -0.38000000E+00           0.00000000E+00
  -0.37000000E+00           0.00000000E+00
  -0.36000000E+00           0.00000000E+00
  -0.35000000E+00           0.00000000E+00
  -0.34000000E+00           0.00000000E+00
  -0.33000000E+00           0.00000000E+00
  -0.32000000E+00           0.00000000E+00
  -0.31000000E+00           0.00000000E+00
  -0.30000000E+00           0.00000000E+00
  -0.29000000E+00           0.00000000E+00
  -0.28000000E+00           0.00000000E+00
  -0.27000000E+00           0.00000000E+00
  -0.26000000E+00           0.00000000E+00
  -0.25000000E+00           0.00000000E+00
  -0.24000000E+00           0.00000000E+00
  -0.23000000E+00           0.00000000E+00
  -0.22000000E+00           0.00000000E+00
  -0.21000000E+00           0.00000000E+00
  -0.20000000E+00           0.00000000E+00
  -0.19000000E+00           0.00000000E+00
  -0.18000000E+00           0.00000000E+00
  -0.17000000E+00           0.00000000E+00
  -0.16000000E+00           0.00000000E+00
  -0.15000000E+00           0.00000000E+00
  -0.14000000E+00           0.00000000E+00
  -0.13000000E+00           0.00000000E+00
  -0.12000000E+00           0.00000000E+00
  -0.11000000E+00           0.00000000E+00
  -0.10000000E+00           0.00000000E+00
  -0.90000000E-01           0.00000000E+00
  -0.80000000E-01           0.00000000E+00
  -0.70000000E-01           0.00000000E+00
  -0.60000000E-01           0.00000000E+00
  -0.50000000E-01           0.00000000E+00
  -0.40000000E-01           0.00000000E+00
  -0.30000000E-01           0.00000000E+00
  -0.20000000E-01           0.00000000E+00
  -0.10000000E-01           0.00000000E+00
   0.00000000E+00           0.25755000E-02
   0.10000000E-01           0.20667300E-01
   0.20000000E-01           0.41514900E-01
   0.30000000E-01           0.61825400E-01
   0.40000000E-01           0.82910500E-01
   0.50000000E-01           0.10306000E+00
   0.60000000E-01           0.12393800E+00
   0.70000000E-01           0.14417850E+00
   0.80000000E-01           0.16452000E+00
   0.90000000E-01           0.18477590E+00
   0.10000000E+00           0.20499210E+00
   0.11000000E+00           0.22526020E+00
   0.12000000E+00           0.24530440E+00
   0.13000000E+00           0.26557160E+00
   0.14000000E+00           0.28465400E+00
   0.15000000E+00           0.30447110E+00
   0.16000000E+00           0.32346270E+00
   0.17000000E+00           0.34259190E+00
   0.18000000E+00           0.36182670E+00
   0.19000000E+00           0.38099410E+00
   0.20000000E+00           0.39898470E+00
   0.21000000E+00           0.41768590E+00
   0.22000000E+00           0.43592830E+00
   0.23000000E+00           0.45402260E+00
   0.24000000E+00           0.47177370E+00
   0.25000000E+00           0.48918010E+00
   0.26000000E+00           0.50649020E+00
   0.27000000E+00           0.52339150E+00
   0.28000000E+00           0.53954450E+00
   0.29000000E+00           0.55679610E+00
   0.30000000E+00           0.57288150E+00
   0.31000000E+00           0.58907630E+00
   0.32000000E+00           0.60405340E+00
   0.33000000E+00           0.61888870E+00
   0.34000000E+00           0.63445220E+00
   0.35000000E+00           0.64873330E+00
   0.36000000E+00           0.66343000E+00
   0.37000000E+00           0.67719120E+00
   0.38000000E+00           0.69076900E+00
   0.39000000E+00           0.70468390E+00
   0.40000000E+00           0.71705520E+00
   0.41000000E+00           0.72953400E+00
   0.42000000E+00           0.74105410E+00
   0.43000000E+00           0.75310960E+00
   0.44000000E+00           0.76471800E+00
   0.45000000E+00           0.77620260E+00
   0.46000000E+00           0.78570480E+00
   0.47000000E+00           0.79656200E+00
   0.48000000E+00           0.80666630E+00
   0.49000000E+00           0.81545840E+00
   0.50000000E+00           0.82523190E+00
   0.51000000E+00           0.83365140E+00
   0.52000000E+00           0.84243510E+00
   0.53000000E+00           0.85043450E+00
   0.54000000E+00           0.85771960E+00
   0.55000000E+00           0.86486540E+00
   0.56000000E+00           0.87152330E+00
   0.57000000E+00           0.87746180E+00
   0.58000000E+00           0.88342060E+00
   0.59000000E+00           0.88894050E+00
   0.60000000E+00           0.89376680E+00
   0.61000000E+00           0.89905230E+00
   0.62000000E+00           0.90278340E+00
   0.63000000E+00           0.90664470E+00
   0.64000000E+00           0.91088240E+00
   0.65000000E+00           0.91398380E+00
   0.66000000E+00           0.91669940E+00
   0.67000000E+00           0.91884850E+00
   0.68000000E+00           0.92043630E+00
   0.69000000E+00           0.92158080E+00
   0.70000000E+00           0.92291890E+00
   0.71000000E+00           0.92368290E+00
   0.72000000E+00           0.92358220E+00
   0.73000000E+00           0.92419880E+00
   0.74000000E+00           0.92240680E+00
   0.75000000E+00           0.92194830E+00
   0.76000000E+00           0.92097390E+00
   0.77000000E+00           0.91926510E+00
   0.78000000E+00           0.91709840E+00
   0.79000000E+00           0.91570860E+00
   0.80000000E+00           0.91291030E+00
   0.81000000E+00           0.90932450E+00
   0.82000000E+00           0.90671050E+00
   0.83000000E+00           0.90345130E+00
   0.84000000E+00           0.89855710E+00
   0.85000000E+00           0.89464900E+00
   0.86000000E+00           0.89035010E+00
   0.87000000E+00           0.88503190E+00
   0.88000000E+00           0.87970390E+00
   0.89000000E+00           0.87412840E+00
   0.90000000E+00           0.86884780E+00
   0.91000000E+00           0.86247350E+00
   0.92000000E+00           0.85649340E+00
   0.93000000E+00           0.84940120E+00
   0.94000000E+00           0.84239060E+00
   0.95000000E+00           0.83512730E+00
   0.96000000E+00           0.82846080E+00
   0.97000000E+00           0.82001890E+00
   0.98000000E+00           0.81213320E+00
   0.99000000E+00           0.80402120E+00
   0.10000000E+01           0.79622400E+00
   0.10100000E+01           0.78700910E+00
   0.10200000E+01           0.77874520E+00
   0.10300000E+01           0.76980330E+00
   0.10400000E+01           0.76059740E+00
   0.10500000E+01           0.75159090E+00
   0.10600000E+01           0.74243490E+00
   0.10700000E+01           0.73189920E+00
   0.10800000E+01           0.72336570E+00
   0.10900000E+01           0.71320810E+00
   0.11000000E+01           0.70250500E+00
   0.11100000E+01           0.69276680E+00
   0.11200000E+01           0.68258620E+00
   0.11300000E+01           0.67181000E+00
   0.11400000E+01           0.66093410E+00
   0.11500000E+01           0.65114080E+00
   0.11600000E+01           0.63962080E+00
   0.11700000E+01           0.62917240E+00
   0.11800000E+01           0.61866290E+00
   0.11900000E+01           0.60790350E+00
   0.12000000E+01           0.59658400E+00
   0.12100000E+01           0.58538470E+00
   0.12200000E+01           0.57445000E+00
   0.12300000E+01           0.56286060E+00
   0.12400000E+01           0.55261040E+00
   0.12500000E+01           0.54146570E+00
   0.12600000E+01           0.53048270E+00
   0.12700000E+01           0.51883360E+00
   0.12800000E+01           0.50834230E+00
   0.12900000E+01           0.49721820E+00
   0.13000000E+01           0.48600130E+00
   0.13100000E+01           0.47523120E+00
   0.13200000E+01           0.46364600E+00
   0.13300000E+01           0.45290860E+00
   0.13400000E+01           0.44197900E+00
   0.13500000E+01           0.43107430E+00
   0.13600000E+01           0.42057010E+00
   0.13700000E+01           0.40979710E+00
   0.13800000E+01           0.39905710E+00
   0.13900000E+01           0.38837160E+00
   0.14000000E+01           0.37805560E+00
   0.14100000E+01           0.36746880E+00
   0.14200000E+01           0.35718370E+00
   0.14300000E+01           0.34743210E+00
   0.14400000E+01           0.33676710E+00
   0.14500000E+01           0.32705410E+00
   0.14600000E+01           0.31677340E+00
   0.14700000E+01           0.30701680E+00
   0.14800000E+01           0.29779640E+00
   0.14900000E+01           0.28821000E+00
   0.15000000E+01           0.27892200E+00
   0.15100000E+01           0.26962810E+00
   0.15200000E+01           0.26059190E+00
   0.15300000E+01           0.25152210E+00
   0.15400000E+01           0.24287480E+00
   0.15500000E+01           0.23440720E+00
   0.15600000E+01           0.22558290E+00
   0.15700000E+01           0.21693880E+00
   0.15800000E+01           0.20915950E+00
   0.15900000E+01           0.20074730E+00
   0.16000000E+01           0.19287120E+00
   0.16100000E+01           0.18535700E+00
   0.16200000E+01           0.17754870E+00
   0.16300000E+01           0.17041850E+00
   0.16400000E+01           0.16310330E+00
   0.16500000E+01           0.15604770E+00
   0.16600000E+01           0.14908290E+00
   0.16700000E+01           0.14243530E+00
   0.16800000E+01           0.13599030E+00
   0.16900000E+01           0.12939260E+00
   0.17000000E+01           0.12331870E+00
   0.17100000E+01           0.11725140E+00
   0.17200000E+01           0.11123070E+00
   0.17300000E+01           0.10563280E+00
   0.17400000E+01           0.10007400E+00
   0.17500000E+01           0.94701900E-01
   0.17600000E+01           0.89483600E-01
   0.17700000E+01           0.84309800E-01
   0.17800000E+01           0.79531600E-01
   0.17900000E+01           0.75005800E-01
   0.18000000E+01           0.70299000E-01
   0.18100000E+01           0.65900000E-01
   0.18200000E+01           0.61875100E-01
   0.18300000E+01           0.57577700E-01
   0.18400000E+01           0.53822500E-01
   0.18500000E+01           0.50120200E-01
   0.18600000E+01           0.46564700E-01
   0.18700000E+01           0.43024100E-01
   0.18800000E+01           0.39723200E-01
   0.18900000E+01           0.36586200E-01
   0.19000000E+01           0.33660100E-01
   0.19100000E+01           0.30737200E-01
   0.19200000E+01           0.28053900E-01
   0.19300000E+01           0.25419700E-01
   0.19400000E+01           0.22965400E-01
   0.19500000E+01           0.20726000E-01
   0.19600000E+01           0.18513700E-01
   0.19700000E+01           0.16403500E-01
   0.19800000E+01           0.14524400E-01
   0.19900000E+01           0.12623600E-01
   0.20000000E+01           0.56624000E-02
 #T=    69.0000
  -0.20000000E+01           0.00000000E+00
  -0.19900000E+01           0.00000000E+00
  -0.19800000E+01           0.00000000E+00
  -0.19700000E+01           0.00000000E+00
  -0.19600000E+01           0.00000000E+00
  -0.19500000E+01           0.00000000E+00
  -0.19400000E+01           0.00000000E+00
  -0.19300000E+01           0.00000000E+00
  -0.19200000E+01           0.00000000E+00
  -0.19100000E+01           0.00000000E+00
  -0.19000000E+01           0.00000000E+00
  -0.18900000E+01           0.00000000E+00
  -0.18800000E+01           0.00000000E+00
  -0.18700000E+01           0.00000000E+00
  -0.18600000E+01           0.00000000E+00
  -0.18500000E+01           0.00000000E+00
  -0.18400000E+01           0.00000000E+00
  -0.18300000E+01           0.00000000E+00
  -0.18200000E+01           0.00000000E+00
  -0.18100000E+01           0.00000000E+00
  -0.18000000E+01           0.00000000E+00
  -0.17900000E+01           0.00000000E+00
  -0.17800000E+01           0.00000000E+00
  -0.17700000E+01           0.00000000E+00
  -0.17600000E+01           0.00000000E+00
  -0.17500000E+01           0.00000000E+00
  -0.17400000E+01           0.00000000E+00
  -0.17300000E+01           0.00000000E+00
  -0.17200000E+01           0.00000000E+00
  -0.17100000E+01           0.00000000E+00
  -0.17000000E+01           0.00000000E+00
  -0.16900000E+01           0.00000000E+00
  -0.16800000E+01           0.00000000E+00
  -0.16700000E+01           0.00000000E+00
  -0.16600000E+01           0.00000000E+00
  -0.16500000E+01           0.00000000E+00
  -0.16400000E+01           0.00000000E+00
  -0.16300000E+01           0.00000000E+00
  -0.16200000E+01           0.00000000E+00
  -0.16100000E+01           0.00000000E+00
  -0.16000000E+01           0.00000000E+00
  -0.15900000E+01           0.00000000E+00
  -0.15800000E+01           0.00000000E+00
  -0.15700000E+01           0.00000000E+00
  -0.15600000E+01           0.00000000E+00
  -0.15500000E+01           0.00000000E+00
  -0.15400000E+01           0.00000000E+00
  -0.15300000E+01           0.00000000E+00
  -0.15200000E+01           0.00000000E+00
  -0.15100000E+01           0.00000000E+00
  -0.15000000E+01           0.00000000E+00
  -0.14900000E+01           0.00000000E+00
  -0.14800000E+01           0.00000000E+00
  -0.14700000E+01           0.00000000E+00
  -0.14600000E+01           0.00000000E+00
  -0.14500000E+01           0.00000000E+00
  -0.14400000E+01           0.00000000E+00
  -0.14300000E+01           0.00000000E+00
  -0.14200000E+01           0.00000000E+00
  -0.14100000E+01           0.00000000E+00
  -0.14000000E+01           0.00000000E+00
  -0.13900000E+01           0.00000000E+00
  -0.13800000E+01           0.00000000E+00
  -0.13700000E+01           0.00000000E+00
  -0.13600000E+01           0.00000000E+00
  -0.13500000E+01           0.00000000E+00
  -0.13400000E+01           0.00000000E+00
  -0.13300000E+01           0.00000000E+00
  -0.13200000E+01           0.00000000E+00
  -0.13100000E+01           0.00000000E+00
  -0.13000000E+01           0.00000000E+00
  -0.12900000E+01           0.00000000E+00
  -0.12800000E+01           0.00000000E+00
  -0.12700000E+01           0.00000000E+00
  -0.12600000E+01           0.00000000E+00
  -0.12500000E+01           0.00000000E+00
  -0.12400000E+01           0.00000000E+00
  -0.12300000E+01           0.00000000E+00
  -0.12200000E+01           0.00000000E+00
  -0.12100000E+01           0.00000000E+00
  -0.12000000E+01           0.00000000E+00
  -0.11900000E+01           0.00000000E+00
  -0.11800000E+01           0.00000000E+00
  -0.11700000E+01           0.00000000E+00
  -0.11600000E+01           0.00000000E+00
  -0.11500000E+01           0.00000000E+00
  -0.11400000E+01           0.00000000E+00
  -0.11300000E+01           0.00000000E+00
  -0.11200000E+01           0.00000000E+00
  -0.11100000E+01           0.00000000E+00
  -0.11000000E+01           0.00000000E+00
  -0.10900000E+01           0.00000000E+00
  -0.10800000E+01           0.00000000E+00
  -0.10700000E+01           0.00000000E+00
  -0.10600000E+01           0.00000000E+00
  -0.10500000E+01           0.00000000E+00
  -0.10400000E+01           0.00000000E+00
  -0.10300000E+01           0.00000000E+00
  -0.10200000E+01           0.00000000E+00
  -0.10100000E+01           0.00000000E+00
  -0.10000000E+01           0.00000000E+00
  -0.99000000E+00           0.00000000E+00
  -0.98000000E+00           0.00000000E+00
  -0.97000000E+00           0.00000000E+00
  -0.96000000E+00           0.00000000E+00
  -0.95000000E+00           0.00000000E+00
  -0.94000000E+00           0.00000000E+00
  -0.93000000E+00           0.00000000E+00
  -0.92000000E+00           0.00000000E+00
  -0.91000000E+00           0.00000000E+00
  -0.90000000E+00           0.00000000E+00
  -0.89000000E+00           0.00000000E+00
  -0.88000000E+00           0.00000000E+00
  -0.87000000E+00           0.00000000E+00
  -0.86000000E+00           0.00000000E+00
  -0.85000000E+00           0.00000000E+00
  -0.84000000E+00           0.00000000E+00
  -0.83000000E+00           0.00000000E+00
  -0.82000000E+00           0.00000000E+00
  -0.81000000E+00           0.00000000E+00
  -0.80000000E+00           0.00000000E+00
  -0.79000000E+00           0.00000000E+00
  -0.78000000E+00           0.00000000E+00
  -0.77000000E+00           0.00000000E+00
  -0.76000000E+00           0.00000000E+00
  -0.75000000E+00           0.00000000E+00
  -0.74000000E+00           0.00000000E+00
  -0.73000000E+00           0.00000000E+00
  -0.72000000E+00           0.00000000E+00
  -0.71000000E+00           0.00000000E+00
  -0.70000000E+00           0.00000000E+00
  -0.69000000E+00           0.00000000E+00
  -0.68000000E+00           0.00000000E+00
  -0.67000000E+00           0.00000000E+00
  -0.66000000E+00           0.00000000E+00
  -0.65000000E+00           0.00000000E+00
  -0.64000000E+00           0.00000000E+00
  -0.63000000E+00           0.00000000E+00
  -0.62000000E+00           0.00000000E+00
  -0.61000000E+00           0.00000000E+00
  -0.60000000E+00           0.00000000E+00
  -0.59000000E+00           0.00000000E+00
  -0.58000000E+00           0.00000000E+00
  -0.57000000E+00           0.00000000E+00
  -0.56000000E+00           0.00000000E+00
  -0.55000000E+00           0.00000000E+00
  -0.54000000E+00           0.00000000E+00
  -0.53000000E+00           0.00000000E+00
  -0.52000000E+00           0.00000000E+00
  -0.51000000E+00           0.00000000E+00
  -0.50000000E+00           0.00000000E+00
  -0.49000000E+00           0.00000000E+00
  -0.48000000E+00           0.00000000E+00
  -0.47000000E+00           0.00000000E+00
  -0.46000000E+00           0.00000000E+00
  -0.45000000E+00           0.00000000E+00
  -0.44000000E+00           0.00000000E+00
  -0.43000000E+00           0.00000000E+00
  -0.42000000E+00           0.00000000E+00
  -0.41000000E+00           0.00000000E+00
  -0.40000000E+00           0.00000000E+00
  -0.39000000E+00           0.00000000E+00
  -0.38000000E+00           0.00000000E+00
  -0.37000000E+00           0.00000000E+00
  -0.36000000E+00           0.00000000E+00
  -0.35000000E+00           0.00000000E+00
  -0.34000000E+00           0.00000000E+00
  -0.33000000E+00           0.00000000E+00
  -0.32000000E+00           0.00000000E+00
  -0.31000000E+00           0.00000000E+00
  -0.30000000E+00           0.00000000E+00
  -0.29000000E+00           0.00000000E+00
  -0.28000000E+00           0.00000000E+00
  -0.27000000E+00           0.00000000E+00
  -0.26000000E+00           0.00000000E+00
  -0.25000000E+00           0.00000000E+00
  -0.24000000E+00           0.00000000E+00
  -0.23000000E+00           0.00000000E+00
  -0.22000000E+00           0.00000000E+00
  -0.21000000E+00           0.00000000E+00
  -0.20000000E+00           0.00000000E+00
  -0.19000000E+00           0.00000000E+00
  -0.18000000E+00           0.00000000E+00
  -0.17000000E+00           0.00000000E+00
  -0.16000000E+00           0.00000000E+00
  -0.15000000E+00           0.00000000E+00
  -0.14000000E+00           0.00000000E+00
  -0.13000000E+00           0.00000000E+00
  -0.12000000E+00           0.00000000E+00
  -0.11000000E+00           0.00000000E+00
  -0.10000000E+00           0.00000000E+00
  -0.90000000E-01           0.00000000E+00
  -0.80000000E-01           0.00000000E+00
  -0.70000000E-01           0.00000000E+00
  -0.60000000E-01           0.00000000E+00
  -0.50000000E-01           0.00000000E+00
  -0.40000000E-01           0.00000000E+00
  -0.30000000E-01           0.00000000E+00
  -0.20000000E-01           0.00000000E+00
  -0.10000000E-01           0.00000000E+00
   0.00000000E+00           0.25170000E-02
   0.10000000E-01           0.20372600E-01
   0.20000000E-01           0.40494500E-01
   0.30000000E-01           0.60704800E-01
   0.40000000E-01           0.81075800E-01
   0.50000000E-01           0.10136430E+00
   0.60000000E-01           0.12151760E+00
   0.70000000E-01           0.14127520E+00
   0.80000000E-01           0.16136730E+00
   0.90000000E-01           0.18137840E+00
   0.10000000E+00           0.20087900E+00
   0.11000000E+00           0.22063700E+00
   0.12000000E+00           0.23996550E+00
   0.13000000E+00           0.25964310E+00
   0.14000000E+00           0.27953150E+00
   0.15000000E+00           0.29770060E+00
   0.16000000E+00           0.31715030E+00
   0.17000000E+00           0.33652090E+00
   0.18000000E+00           0.35492100E+00
   0.19000000E+00           0.37316840E+00
   0.20000000E+00           0.39136330E+00
   0.21000000E+00           0.40980660E+00
   0.22000000E+00           0.42778960E+00
   0.23000000E+00           0.44528210E+00
   0.24000000E+00           0.46252870E+00
   0.25000000E+00           0.47976700E+00
   0.26000000E+00           0.49711750E+00
   0.27000000E+00           0.51398130E+00
   0.28000000E+00           0.52983590E+00
   0.29000000E+00           0.54645030E+00
   0.30000000E+00           0.56209880E+00
   0.31000000E+00           0.57792810E+00
   0.32000000E+00           0.59318910E+00
   0.33000000E+00           0.60813840E+00
   0.34000000E+00           0.62252370E+00
   0.35000000E+00           0.63749560E+00
   0.36000000E+00           0.65126230E+00
   0.37000000E+00           0.66480120E+00
   0.38000000E+00           0.67889510E+00
   0.39000000E+00           0.69209590E+00
   0.40000000E+00           0.70434340E+00
   0.41000000E+00           0.71711620E+00
   0.42000000E+00           0.72902300E+00
   0.43000000E+00           0.74098230E+00
   0.44000000E+00           0.75159350E+00
   0.45000000E+00           0.76317190E+00
   0.46000000E+00           0.77368910E+00
   0.47000000E+00           0.78445110E+00
   0.48000000E+00           0.79392510E+00
   0.49000000E+00           0.80405160E+00
   0.50000000E+00           0.81285300E+00
   0.51000000E+00           0.82134020E+00
   0.52000000E+00           0.83015020E+00
   0.53000000E+00           0.83817780E+00
   0.54000000E+00           0.84578380E+00
   0.55000000E+00           0.85252760E+00
   0.56000000E+00           0.85888520E+00
   0.57000000E+00           0.86615840E+00
   0.58000000E+00           0.87234630E+00
   0.59000000E+00           0.87775040E+00
   0.60000000E+00           0.88265000E+00
   0.61000000E+00           0.88753160E+00
   0.62000000E+00           0.89232010E+00
   0.63000000E+00           0.89616710E+00
   0.64000000E+00           0.89992580E+00
   0.65000000E+00           0.90297190E+00
   0.66000000E+00           0.90586330E+00
   0.67000000E+00           0.90829560E+00
   0.68000000E+00           0.91031560E+00
   0.69000000E+00           0.91275780E+00
   0.70000000E+00           0.91387360E+00
   0.71000000E+00           0.91501860E+00
   0.72000000E+00           0.91585010E+00
   0.73000000E+00           0.91539930E+00
   0.74000000E+00           0.91532420E+00
   0.75000000E+00           0.91475090E+00
   0.76000000E+00           0.91384260E+00
   0.77000000E+00           0.91306380E+00
   0.78000000E+00           0.91099860E+00
   0.79000000E+00           0.90897430E+00
   0.80000000E+00           0.90712960E+00
   0.81000000E+00           0.90466820E+00
   0.82000000E+00           0.90113070E+00
   0.83000000E+00           0.89813150E+00
   0.84000000E+00           0.89471040E+00
   0.85000000E+00           0.89018030E+00
   0.86000000E+00           0.88656590E+00
   0.87000000E+00           0.88206090E+00
   0.88000000E+00           0.87695830E+00
   0.89000000E+00           0.87169810E+00
   0.90000000E+00           0.86706880E+00
   0.91000000E+00           0.86075560E+00
   0.92000000E+00           0.85509160E+00
   0.93000000E+00           0.84856050E+00
   0.94000000E+00           0.84199220E+00
   0.95000000E+00           0.83563770E+00
   0.96000000E+00           0.82798930E+00
   0.97000000E+00           0.82089510E+00
   0.98000000E+00           0.81296970E+00
   0.99000000E+00           0.80626590E+00
   0.10000000E+01           0.79801450E+00
   0.10100000E+01           0.78934350E+00
   0.10200000E+01           0.78131660E+00
   0.10300000E+01           0.77304240E+00
   0.10400000E+01           0.76386070E+00
   0.10500000E+01           0.75489710E+00
   0.10600000E+01           0.74573660E+00
   0.10700000E+01           0.73659310E+00
   0.10800000E+01           0.72704530E+00
   0.10900000E+01           0.71827830E+00
   0.11000000E+01           0.70854140E+00
   0.11100000E+01           0.69826560E+00
   0.11200000E+01           0.68837340E+00
   0.11300000E+01           0.67821720E+00
   0.11400000E+01           0.66751890E+00
   0.11500000E+01           0.65733220E+00
   0.11600000E+01           0.64719110E+00
   0.11700000E+01           0.63740900E+00
   0.11800000E+01           0.62670730E+00
   0.11900000E+01           0.61562730E+00
   0.12000000E+01           0.60514340E+00
   0.12100000E+01           0.59365030E+00
   0.12200000E+01           0.58300990E+00
   0.12300000E+01           0.57239060E+00
   0.12400000E+01           0.56172660E+00
   0.12500000E+01           0.55121110E+00
   0.12600000E+01           0.53968810E+00
   0.12700000E+01           0.52958690E+00
   0.12800000E+01           0.51752390E+00
   0.12900000E+01           0.50694460E+00
   0.13000000E+01           0.49566240E+00
   0.13100000E+01           0.48508030E+00
   0.13200000E+01           0.47423770E+00
   0.13300000E+01           0.46333380E+00
   0.13400000E+01           0.45252110E+00
   0.13500000E+01           0.44203830E+00
   0.13600000E+01           0.43119390E+00
   0.13700000E+01           0.42040330E+00
   0.13800000E+01           0.40967110E+00
   0.13900000E+01           0.39976950E+00
   0.14000000E+01           0.38892370E+00
   0.14100000E+01           0.37804990E+00
   0.14200000E+01           0.36854240E+00
   0.14300000E+01           0.35799570E+00
   0.14400000E+01           0.34794020E+00
   0.14500000E+01           0.33806120E+00
   0.14600000E+01           0.32816420E+00
   0.14700000E+01           0.31816670E+00
   0.14800000E+01           0.30833530E+00
   0.14900000E+01           0.29905630E+00
   0.15000000E+01           0.28941370E+00
   0.15100000E+01           0.28055920E+00
   0.15200000E+01           0.27114260E+00
   0.15300000E+01           0.26209190E+00
   0.15400000E+01           0.25331200E+00
   0.15500000E+01           0.24454300E+00
   0.15600000E+01           0.23568960E+00
   0.15700000E+01           0.22720780E+00
   0.15800000E+01           0.21898440E+00
   0.15900000E+01           0.21092230E+00
   0.16000000E+01           0.20275520E+00
   0.16100000E+01           0.19500980E+00
   0.16200000E+01           0.18737340E+00
   0.16300000E+01           0.17958920E+00
   0.16400000E+01           0.17208090E+00
   0.16500000E+01           0.16511500E+00
   0.16600000E+01           0.15777930E+00
   0.16700000E+01           0.15102200E+00
   0.16800000E+01           0.14433990E+00
   0.16900000E+01           0.13770490E+00
   0.17000000E+01           0.13134450E+00
   0.17100000E+01           0.12501030E+00
   0.17200000E+01           0.11884560E+00
   0.17300000E+01           0.11306030E+00
   0.17400000E+01           0.10723270E+00
   0.17500000E+01           0.10166490E+00
   0.17600000E+01           0.96238200E-01
   0.17700000E+01           0.90975600E-01
   0.17800000E+01           0.85777600E-01
   0.17900000E+01           0.80941200E-01
   0.18000000E+01           0.76286600E-01
   0.18100000E+01           0.71653900E-01
   0.18200000E+01           0.67390200E-01
   0.18300000E+01           0.62755400E-01
   0.18400000E+01           0.58663600E-01
   0.18500000E+01           0.54854500E-01
   0.18600000E+01           0.51063100E-01
   0.18700000E+01           0.47243100E-01
   0.18800000E+01           0.43782200E-01
   0.18900000E+01           0.40411900E-01
   0.19000000E+01           0.37334700E-01
   0.19100000E+01           0.34195100E-01
   0.19200000E+01           0.31228600E-01
   0.19300000E+01           0.28458600E-01
   0.19400000E+01           0.25817900E-01
   0.19500000E+01           0.23292500E-01
   0.19600000E+01           0.20884700E-01
   0.19700000E+01           0.18711800E-01
   0.19800000E+01           0.16596000E-01
   0.19900000E+01           0.14560700E-01
   0.20000000E+01           0.65435000E-02
 #T=    70.0000
  -0.20000000E+01           0.00000000E+00
  -0.19900000E+01           0.00000000E+00
  -0.19800000E+01           0.00000000E+00
  -0.19700000E+01           0.00000000E+00
  -0.19600000E+01           0.00000000E+00
  -0.19500000E+01           0.00000000E+00
  -0.19400000E+01           0.00000000E+00
  -0.19300000E+01           0.00000000E+00
  -0.19200000E+01           0.00000000E+00
  -0.19100000E+01           0.00000000E+00
  -0.19000000E+01           0.00000000E+00
  -0.18900000E+01           0.00000000E+00
  -0.18800000E+01           0.00000000E+00
  -0.18700000E+01           0.00000000E+00
  -0.18600000E+01           0.00000000E+00
  -0.18500000E+01           0.00000000E+00
  -0.18400000E+01           0.00000000E+00
  -0.18300000E+01           0.00000000E+00
  -0.18200000E+01           0.00000000E+00
  -0.18100000E+01           0.00000000E+00
  -0.18000000E+01           0.00000000E+00
  -0.17900000E+01           0.00000000E+00
  -0.17800000E+01           0.00000000E+00
  -0.17700000E+01           0.00000000E+00
  -0.17600000E+01           0.00000000E+00
  -0.17500000E+01           0.00000000E+00
  -0.17400000E+01           0.00000000E+00
  -0.17300000E+01           0.00000000E+00
  -0.17200000E+01           0.00000000E+00
  -0.17100000E+01           0.00000000E+00
  -0.17000000E+01           0.00000000E+00
  -0.16900000E+01           0.00000000E+00
  -0.16800000E+01           0.00000000E+00
  -0.16700000E+01           0.00000000E+00
  -0.16600000E+01           0.00000000E+00
  -0.16500000E+01           0.00000000E+00
  -0.16400000E+01           0.00000000E+00
  -0.16300000E+01           0.00000000E+00
  -0.16200000E+01           0.00000000E+00
  -0.16100000E+01           0.00000000E+00
  -0.16000000E+01           0.00000000E+00
  -0.15900000E+01           0.00000000E+00
  -0.15800000E+01           0.00000000E+00
  -0.15700000E+01           0.00000000E+00
  -0.15600000E+01           0.00000000E+00
  -0.15500000E+01           0.00000000E+00
  -0.15400000E+01           0.00000000E+00
  -0.15300000E+01           0.00000000E+00
  -0.15200000E+01           0.00000000E+00
  -0.15100000E+01           0.00000000E+00
  -0.15000000E+01           0.00000000E+00
  -0.14900000E+01           0.00000000E+00
  -0.14800000E+01           0.00000000E+00
  -0.14700000E+01           0.00000000E+00
  -0.14600000E+01           0.00000000E+00
  -0.14500000E+01           0.00000000E+00
  -0.14400000E+01           0.00000000E+00
  -0.14300000E+01           0.00000000E+00
  -0.14200000E+01           0.00000000E+00
  -0.14100000E+01           0.00000000E+00
  -0.14000000E+01           0.00000000E+00
  -0.13900000E+01           0.00000000E+00
  -0.13800000E+01           0.00000000E+00
  -0.13700000E+01           0.00000000E+00
  -0.13600000E+01           0.00000000E+00
  -0.13500000E+01           0.00000000E+00
  -0.13400000E+01           0.00000000E+00
  -0.13300000E+01           0.00000000E+00
  -0.13200000E+01           0.00000000E+00
  -0.13100000E+01           0.00000000E+00
  -0.13000000E+01           0.00000000E+00
  -0.12900000E+01           0.00000000E+00
  -0.12800000E+01           0.00000000E+00
  -0.12700000E+01           0.00000000E+00
  -0.12600000E+01           0.00000000E+00
  -0.12500000E+01           0.00000000E+00
  -0.12400000E+01           0.00000000E+00
  -0.12300000E+01           0.00000000E+00
  -0.12200000E+01           0.00000000E+00
  -0.12100000E+01           0.00000000E+00
  -0.12000000E+01           0.00000000E+00
  -0.11900000E+01           0.00000000E+00
  -0.11800000E+01           0.00000000E+00
  -0.11700000E+01           0.00000000E+00
  -0.11600000E+01           0.00000000E+00
  -0.11500000E+01           0.00000000E+00
  -0.11400000E+01           0.00000000E+00
  -0.11300000E+01           0.00000000E+00
  -0.11200000E+01           0.00000000E+00
  -0.11100000E+01           0.00000000E+00
  -0.11000000E+01           0.00000000E+00
  -0.10900000E+01           0.00000000E+00
  -0.10800000E+01           0.00000000E+00
  -0.10700000E+01           0.00000000E+00
  -0.10600000E+01           0.00000000E+00
  -0.10500000E+01           0.00000000E+00
  -0.10400000E+01           0.00000000E+00
  -0.10300000E+01           0.00000000E+00
  -0.10200000E+01           0.00000000E+00
  -0.10100000E+01           0.00000000E+00
  -0.10000000E+01           0.00000000E+00
  -0.99000000E+00           0.00000000E+00
  -0.98000000E+00           0.00000000E+00
  -0.97000000E+00           0.00000000E+00
  -0.96000000E+00           0.00000000E+00
  -0.95000000E+00           0.00000000E+00
  -0.94000000E+00           0.00000000E+00
  -0.93000000E+00           0.00000000E+00
  -0.92000000E+00           0.00000000E+00
  -0.91000000E+00           0.00000000E+00
  -0.90000000E+00           0.00000000E+00
  -0.89000000E+00           0.00000000E+00
  -0.88000000E+00           0.00000000E+00
  -0.87000000E+00           0.00000000E+00
  -0.86000000E+00           0.00000000E+00
  -0.85000000E+00           0.00000000E+00
  -0.84000000E+00           0.00000000E+00
  -0.83000000E+00           0.00000000E+00
  -0.82000000E+00           0.00000000E+00
  -0.81000000E+00           0.00000000E+00
  -0.80000000E+00           0.00000000E+00
  -0.79000000E+00           0.00000000E+00
  -0.78000000E+00           0.00000000E+00
  -0.77000000E+00           0.00000000E+00
  -0.76000000E+00           0.00000000E+00
  -0.75000000E+00           0.00000000E+00
  -0.74000000E+00           0.00000000E+00
  -0.73000000E+00           0.00000000E+00
  -0.72000000E+00           0.00000000E+00
  -0.71000000E+00           0.00000000E+00
  -0.70000000E+00           0.00000000E+00
  -0.69000000E+00           0.00000000E+00
  -0.68000000E+00           0.00000000E+00
  -0.67000000E+00           0.00000000E+00
  -0.66000000E+00           0.00000000E+00
  -0.65000000E+00           0.00000000E+00
  -0.64000000E+00           0.00000000E+00
  -0.63000000E+00           0.00000000E+00
  -0.62000000E+00           0.00000000E+00
  -0.61000000E+00           0.00000000E+00
  -0.60000000E+00           0.00000000E+00
  -0.59000000E+00           0.00000000E+00
  -0.58000000E+00           0.00000000E+00
  -0.57000000E+00           0.00000000E+00
  -0.56000000E+00           0.00000000E+00
  -0.55000000E+00           0.00000000E+00
  -0.54000000E+00           0.00000000E+00
  -0.53000000E+00           0.00000000E+00
  -0.52000000E+00           0.00000000E+00
  -0.51000000E+00           0.00000000E+00
  -0.50000000E+00           0.00000000E+00
  -0.49000000E+00           0.00000000E+00
  -0.48000000E+00           0.00000000E+00
  -0.47000000E+00           0.00000000E+00
  -0.46000000E+00           0.00000000E+00
  -0.45000000E+00           0.00000000E+00
  -0.44000000E+00           0.00000000E+00
  -0.43000000E+00           0.00000000E+00
  -0.42000000E+00           0.00000000E+00
  -0.41000000E+00           0.00000000E+00
  -0.40000000E+00           0.00000000E+00
  -0.39000000E+00           0.00000000E+00
  -0.38000000E+00           0.00000000E+00
  -0.37000000E+00           0.00000000E+00
  -0.36000000E+00           0.00000000E+00
  -0.35000000E+00           0.00000000E+00
  -0.34000000E+00           0.00000000E+00
  -0.33000000E+00           0.00000000E+00
  -0.32000000E+00           0.00000000E+00
  -0.31000000E+00           0.00000000E+00
  -0.30000000E+00           0.00000000E+00
  -0.29000000E+00           0.00000000E+00
  -0.28000000E+00           0.00000000E+00
  -0.27000000E+00           0.00000000E+00
  -0.26000000E+00           0.00000000E+00
  -0.25000000E+00           0.00000000E+00
  -0.24000000E+00           0.00000000E+00
  -0.23000000E+00           0.00000000E+00
  -0.22000000E+00           0.00000000E+00
  -0.21000000E+00           0.00000000E+00
  -0.20000000E+00           0.00000000E+00
  -0.19000000E+00           0.00000000E+00
  -0.18000000E+00           0.00000000E+00
  -0.17000000E+00           0.00000000E+00
  -0.16000000E+00           0.00000000E+00
  -0.15000000E+00           0.00000000E+00
  -0.14000000E+00           0.00000000E+00
  -0.13000000E+00           0.00000000E+00
  -0.12000000E+00           0.00000000E+00
  -0.11000000E+00           0.00000000E+00
  -0.10000000E+00           0.00000000E+00
  -0.90000000E-01           0.00000000E+00
  -0.80000000E-01           0.00000000E+00
  -0.70000000E-01           0.00000000E+00
  -0.60000000E-01           0.00000000E+00
  -0.50000000E-01           0.00000000E+00
  -0.40000000E-01           0.00000000E+00
  -0.30000000E-01           0.00000000E+00
  -0.20000000E-01           0.00000000E+00
  -0.10000000E-01           0.00000000E+00
   0.00000000E+00           0.24891000E-02
   0.10000000E-01           0.19859500E-01
   0.20000000E-01           0.39726900E-01
   0.30000000E-01           0.59474900E-01
   0.40000000E-01           0.79405700E-01
   0.50000000E-01           0.99255700E-01
   0.60000000E-01           0.11879680E+00
   0.70000000E-01           0.13849340E+00
   0.80000000E-01           0.15794310E+00
   0.90000000E-01           0.17777570E+00
   0.10000000E+00           0.19725610E+00
   0.11000000E+00           0.21601360E+00
   0.12000000E+00           0.23512090E+00
   0.13000000E+00           0.25480580E+00
   0.14000000E+00           0.27331220E+00
   0.15000000E+00           0.29248220E+00
   0.16000000E+00           0.31107720E+00
   0.17000000E+00           0.32986780E+00
   0.18000000E+00           0.34801550E+00
   0.19000000E+00           0.36589710E+00
   0.20000000E+00           0.38391500E+00
   0.21000000E+00           0.40209060E+00
   0.22000000E+00           0.41945550E+00
   0.23000000E+00           0.43682250E+00
   0.24000000E+00           0.45431580E+00
   0.25000000E+00           0.47064620E+00
   0.26000000E+00           0.48742510E+00
   0.27000000E+00           0.50471140E+00
   0.28000000E+00           0.52027490E+00
   0.29000000E+00           0.53634550E+00
   0.30000000E+00           0.55202580E+00
   0.31000000E+00           0.56725270E+00
   0.32000000E+00           0.58235840E+00
   0.33000000E+00           0.59753960E+00
   0.34000000E+00           0.61155390E+00
   0.35000000E+00           0.62596100E+00
   0.36000000E+00           0.64025700E+00
   0.37000000E+00           0.65406170E+00
   0.38000000E+00           0.66722280E+00
   0.39000000E+00           0.68057170E+00
   0.40000000E+00           0.69265650E+00
   0.41000000E+00           0.70487910E+00
   0.42000000E+00           0.71697440E+00
   0.43000000E+00           0.72865430E+00
   0.44000000E+00           0.74007840E+00
   0.45000000E+00           0.75118380E+00
   0.46000000E+00           0.76149180E+00
   0.47000000E+00           0.77205730E+00
   0.48000000E+00           0.78188170E+00
   0.49000000E+00           0.79180820E+00
[...]
   0.13800000E+01           0.69271780E+00
   0.13900000E+01           0.69622040E+00
   0.14000000E+01           0.70065110E+00
   0.14100000E+01           0.70430980E+00
   0.14200000E+01           0.70774290E+00
   0.14300000E+01           0.71162000E+00
   0.14400000E+01           0.71572420E+00
   0.14500000E+01           0.71914540E+00
   0.14600000E+01           0.72301560E+00
   0.14700000E+01           0.72674510E+00
   0.14800000E+01           0.73040180E+00
   0.14900000E+01           0.73434110E+00
   0.15000000E+01           0.73714080E+00
   0.15100000E+01           0.74093330E+00
   0.15200000E+01           0.74429080E+00
   0.15300000E+01           0.74830300E+00
   0.15400000E+01           0.75181050E+00
   0.15500000E+01           0.75481270E+00
   0.15600000E+01           0.75882090E+00
   0.15700000E+01           0.76230670E+00
   0.15800000E+01           0.76522370E+00
   0.15900000E+01           0.76892210E+00
   0.16000000E+01           0.77235650E+00
   0.16100000E+01           0.77588700E+00
   0.16200000E+01           0.77873570E+00
   0.16300000E+01           0.78209090E+00
   0.16400000E+01           0.78470990E+00
   0.16500000E+01           0.78832780E+00
   0.16600000E+01           0.79158900E+00
   0.16700000E+01           0.79494480E+00
   0.16800000E+01           0.79786110E+00
   0.16900000E+01           0.80142130E+00
   0.17000000E+01           0.80456780E+00
   0.17100000E+01           0.80694500E+00
   0.17200000E+01           0.81023600E+00
   0.17300000E+01           0.81253150E+00
   0.17400000E+01           0.81607100E+00
   0.17500000E+01           0.81872380E+00
   0.17600000E+01           0.82188610E+00
   0.17700000E+01           0.82475780E+00
   0.17800000E+01           0.82748910E+00
   0.17900000E+01           0.83037880E+00
   0.18000000E+01           0.83330900E+00
   0.18100000E+01           0.83643810E+00
   0.18200000E+01           0.83859290E+00
   0.18300000E+01           0.84139580E+00
   0.18400000E+01           0.84419090E+00
   0.18500000E+01           0.84682940E+00
   0.18600000E+01           0.84954120E+00
   0.18700000E+01           0.85188300E+00
   0.18800000E+01           0.85453100E+00
   0.18900000E+01           0.85686280E+00
   0.19000000E+01           0.85972860E+00
   0.19100000E+01           0.86243390E+00
   0.19200000E+01           0.86495990E+00
   0.19300000E+01           0.86745150E+00
   0.19400000E+01           0.86941350E+00
   0.19500000E+01           0.87164210E+00
   0.19600000E+01           0.87385280E+00
   0.19700000E+01           0.87649350E+00
   0.19800000E+01           0.87872830E+00
   0.19900000E+01           0.88109400E+00
   0.20000000E+01           0.44186660E+00
 #T=   145.0000
  -0.20000000E+01           0.00000000E+00
  -0.19900000E+01           0.00000000E+00
  -0.19800000E+01           0.00000000E+00
  -0.19700000E+01           0.00000000E+00
  -0.19600000E+01           0.00000000E+00
  -0.19500000E+01           0.00000000E+00
  -0.19400000E+01           0.00000000E+00
  -0.19300000E+01           0.00000000E+00
  -0.19200000E+01           0.00000000E+00
  -0.19100000E+01           0.00000000E+00
  -0.19000000E+01           0.00000000E+00
  -0.18900000E+01           0.00000000E+00
  -0.18800000E+01           0.00000000E+00
  -0.18700000E+01           0.00000000E+00
  -0.18600000E+01           0.00000000E+00
  -0.18500000E+01           0.00000000E+00
  -0.18400000E+01           0.00000000E+00
  -0.18300000E+01           0.00000000E+00
  -0.18200000E+01           0.00000000E+00
  -0.18100000E+01           0.00000000E+00
  -0.18000000E+01           0.00000000E+00
  -0.17900000E+01           0.00000000E+00
  -0.17800000E+01           0.00000000E+00
  -0.17700000E+01           0.00000000E+00
  -0.17600000E+01           0.00000000E+00
  -0.17500000E+01           0.00000000E+00
  -0.17400000E+01           0.00000000E+00
  -0.17300000E+01           0.00000000E+00
  -0.17200000E+01           0.00000000E+00
  -0.17100000E+01           0.00000000E+00
  -0.17000000E+01           0.00000000E+00
  -0.16900000E+01           0.00000000E+00
  -0.16800000E+01           0.00000000E+00
  -0.16700000E+01           0.00000000E+00
  -0.16600000E+01           0.00000000E+00
  -0.16500000E+01           0.00000000E+00
  -0.16400000E+01           0.00000000E+00
  -0.16300000E+01           0.00000000E+00
  -0.16200000E+01           0.00000000E+00
  -0.16100000E+01           0.00000000E+00
  -0.16000000E+01           0.00000000E+00
  -0.15900000E+01           0.00000000E+00
  -0.15800000E+01           0.00000000E+00
  -0.15700000E+01           0.00000000E+00
  -0.15600000E+01           0.00000000E+00
  -0.15500000E+01           0.00000000E+00
  -0.15400000E+01           0.00000000E+00
  -0.15300000E+01           0.00000000E+00
  -0.15200000E+01           0.00000000E+00
  -0.15100000E+01           0.00000000E+00
  -0.15000000E+01           0.00000000E+00
  -0.14900000E+01           0.00000000E+00
  -0.14800000E+01           0.00000000E+00
  -0.14700000E+01           0.00000000E+00
  -0.14600000E+01           0.00000000E+00
  -0.14500000E+01           0.00000000E+00
  -0.14400000E+01           0.00000000E+00
  -0.14300000E+01           0.00000000E+00
  -0.14200000E+01           0.00000000E+00
  -0.14100000E+01           0.00000000E+00
  -0.14000000E+01           0.00000000E+00
  -0.13900000E+01           0.00000000E+00
  -0.13800000E+01           0.00000000E+00
  -0.13700000E+01           0.00000000E+00
  -0.13600000E+01           0.00000000E+00
  -0.13500000E+01           0.00000000E+00
  -0.13400000E+01           0.00000000E+00
  -0.13300000E+01           0.00000000E+00
  -0.13200000E+01           0.00000000E+00
  -0.13100000E+01           0.00000000E+00
  -0.13000000E+01           0.00000000E+00
  -0.12900000E+01           0.00000000E+00
  -0.12800000E+01           0.00000000E+00
  -0.12700000E+01           0.00000000E+00
  -0.12600000E+01           0.00000000E+00
  -0.12500000E+01           0.00000000E+00
  -0.12400000E+01           0.00000000E+00
  -0.12300000E+01           0.00000000E+00
  -0.12200000E+01           0.00000000E+00
  -0.12100000E+01           0.00000000E+00
  -0.12000000E+01           0.00000000E+00
  -0.11900000E+01           0.00000000E+00
  -0.11800000E+01           0.00000000E+00
  -0.11700000E+01           0.00000000E+00
  -0.11600000E+01           0.00000000E+00
  -0.11500000E+01           0.00000000E+00
  -0.11400000E+01           0.00000000E+00
  -0.11300000E+01           0.00000000E+00
  -0.11200000E+01           0.00000000E+00
  -0.11100000E+01           0.00000000E+00
  -0.11000000E+01           0.00000000E+00
  -0.10900000E+01           0.00000000E+00
  -0.10800000E+01           0.00000000E+00
  -0.10700000E+01           0.00000000E+00
  -0.10600000E+01           0.00000000E+00
  -0.10500000E+01           0.00000000E+00
  -0.10400000E+01           0.00000000E+00
  -0.10300000E+01           0.00000000E+00
  -0.10200000E+01           0.00000000E+00
  -0.10100000E+01           0.00000000E+00
  -0.10000000E+01           0.00000000E+00
  -0.99000000E+00           0.00000000E+00
  -0.98000000E+00           0.00000000E+00
  -0.97000000E+00           0.00000000E+00
  -0.96000000E+00           0.00000000E+00
  -0.95000000E+00           0.00000000E+00
  -0.94000000E+00           0.00000000E+00
  -0.93000000E+00           0.00000000E+00
  -0.92000000E+00           0.00000000E+00
  -0.91000000E+00           0.00000000E+00
  -0.90000000E+00           0.00000000E+00
  -0.89000000E+00           0.00000000E+00
  -0.88000000E+00           0.00000000E+00
  -0.87000000E+00           0.00000000E+00
  -0.86000000E+00           0.00000000E+00
  -0.85000000E+00           0.00000000E+00
  -0.84000000E+00           0.00000000E+00
  -0.83000000E+00           0.00000000E+00
  -0.82000000E+00           0.00000000E+00
  -0.81000000E+00           0.00000000E+00
  -0.80000000E+00           0.00000000E+00
  -0.79000000E+00           0.00000000E+00
  -0.78000000E+00           0.00000000E+00
  -0.77000000E+00           0.00000000E+00
  -0.76000000E+00           0.00000000E+00
  -0.75000000E+00           0.00000000E+00
  -0.74000000E+00           0.00000000E+00
  -0.73000000E+00           0.00000000E+00
  -0.72000000E+00           0.00000000E+00
  -0.71000000E+00           0.00000000E+00
  -0.70000000E+00           0.00000000E+00
  -0.69000000E+00           0.00000000E+00
  -0.68000000E+00           0.00000000E+00
  -0.67000000E+00           0.00000000E+00
  -0.66000000E+00           0.00000000E+00
  -0.65000000E+00           0.00000000E+00
  -0.64000000E+00           0.00000000E+00
  -0.63000000E+00           0.00000000E+00
  -0.62000000E+00           0.00000000E+00
  -0.61000000E+00           0.00000000E+00
  -0.60000000E+00           0.00000000E+00
  -0.59000000E+00           0.00000000E+00
  -0.58000000E+00           0.00000000E+00
  -0.57000000E+00           0.00000000E+00
  -0.56000000E+00           0.00000000E+00
  -0.55000000E+00           0.00000000E+00
  -0.54000000E+00           0.00000000E+00
  -0.53000000E+00           0.00000000E+00
  -0.52000000E+00           0.00000000E+00
  -0.51000000E+00           0.00000000E+00
  -0.50000000E+00           0.00000000E+00
  -0.49000000E+00           0.00000000E+00
  -0.48000000E+00           0.00000000E+00
  -0.47000000E+00           0.00000000E+00
  -0.46000000E+00           0.00000000E+00
  -0.45000000E+00           0.00000000E+00
  -0.44000000E+00           0.00000000E+00
  -0.43000000E+00           0.00000000E+00
  -0.42000000E+00           0.00000000E+00
  -0.41000000E+00           0.00000000E+00
  -0.40000000E+00           0.00000000E+00
  -0.39000000E+00           0.00000000E+00
  -0.38000000E+00           0.00000000E+00
  -0.37000000E+00           0.00000000E+00
  -0.36000000E+00           0.00000000E+00
  -0.35000000E+00           0.00000000E+00
  -0.34000000E+00           0.00000000E+00
  -0.33000000E+00           0.00000000E+00
  -0.32000000E+00           0.00000000E+00
  -0.31000000E+00           0.00000000E+00
  -0.30000000E+00           0.00000000E+00
  -0.29000000E+00           0.00000000E+00
  -0.28000000E+00           0.00000000E+00
  -0.27000000E+00           0.00000000E+00
  -0.26000000E+00           0.00000000E+00
  -0.25000000E+00           0.00000000E+00
  -0.24000000E+00           0.00000000E+00
  -0.23000000E+00           0.00000000E+00
  -0.22000000E+00           0.00000000E+00
  -0.21000000E+00           0.00000000E+00
  -0.20000000E+00           0.00000000E+00
  -0.19000000E+00           0.00000000E+00
  -0.18000000E+00           0.00000000E+00
  -0.17000000E+00           0.00000000E+00
  -0.16000000E+00           0.00000000E+00
  -0.15000000E+00           0.00000000E+00
  -0.14000000E+00           0.00000000E+00
  -0.13000000E+00           0.00000000E+00
  -0.12000000E+00           0.00000000E+00
  -0.11000000E+00           0.00000000E+00
  -0.10000000E+00           0.00000000E+00
  -0.90000000E-01           0.00000000E+00
  -0.80000000E-01           0.00000000E+00
  -0.70000000E-01           0.00000000E+00
  -0.60000000E-01           0.00000000E+00
  -0.50000000E-01           0.00000000E+00
  -0.40000000E-01           0.00000000E+00
  -0.30000000E-01           0.00000000E+00
  -0.20000000E-01           0.00000000E+00
  -0.10000000E-01           0.00000000E+00
   0.00000000E+00           0.70100000E-03
   0.10000000E-01           0.56101000E-02
   0.20000000E-01           0.11228100E-01
   0.30000000E-01           0.16841000E-01
   0.40000000E-01           0.22412800E-01
   0.50000000E-01           0.28084800E-01
   0.60000000E-01           0.33569900E-01
   0.70000000E-01           0.39154000E-01
   0.80000000E-01           0.44749700E-01
   0.90000000E-01           0.50435300E-01
   0.10000000E+00           0.55957700E-01
   0.11000000E+00           0.61668300E-01
   0.12000000E+00           0.67119600E-01
   0.13000000E+00           0.72761700E-01
   0.14000000E+00           0.78285800E-01
   0.15000000E+00           0.83959000E-01
   0.16000000E+00           0.89344900E-01
   0.17000000E+00           0.95039900E-01
   0.18000000E+00           0.10058090E+00
   0.19000000E+00           0.10611960E+00
   0.20000000E+00           0.11165430E+00
   0.21000000E+00           0.11744130E+00
   0.22000000E+00           0.12292730E+00
   0.23000000E+00           0.12829390E+00
   0.24000000E+00           0.13396250E+00
   0.25000000E+00           0.13972080E+00
   0.26000000E+00           0.14497440E+00
   0.27000000E+00           0.15033340E+00
   0.28000000E+00           0.15617260E+00
   0.29000000E+00           0.16151090E+00
   0.30000000E+00           0.16715890E+00
   0.31000000E+00           0.17262910E+00
   0.32000000E+00           0.17806710E+00
   0.33000000E+00           0.18365420E+00
   0.34000000E+00           0.18938760E+00
   0.35000000E+00           0.19472690E+00
   0.36000000E+00           0.20021740E+00
   0.37000000E+00           0.20544680E+00
   0.38000000E+00           0.21106470E+00
   0.39000000E+00           0.21608440E+00
   0.40000000E+00           0.22223650E+00
   0.41000000E+00           0.22713380E+00
   0.42000000E+00           0.23284920E+00
   0.43000000E+00           0.23826860E+00
   0.44000000E+00           0.24378600E+00
   0.45000000E+00           0.24883330E+00
   0.46000000E+00           0.25452960E+00
   0.47000000E+00           0.26009330E+00
   0.48000000E+00           0.26541050E+00
   0.49000000E+00           0.27064990E+00
   0.50000000E+00           0.27609820E+00
   0.51000000E+00           0.28133930E+00
   0.52000000E+00           0.28691870E+00
   0.53000000E+00           0.29230850E+00
   0.54000000E+00           0.29754860E+00
   0.55000000E+00           0.30295190E+00
   0.56000000E+00           0.30808170E+00
   0.57000000E+00           0.31345870E+00
   0.58000000E+00           0.31850300E+00
   0.59000000E+00           0.32417330E+00
   0.60000000E+00           0.32911380E+00
   0.61000000E+00           0.33466090E+00
   0.62000000E+00           0.33972730E+00
   0.63000000E+00           0.34489160E+00
   0.64000000E+00           0.34986820E+00
   0.65000000E+00           0.35517530E+00
   0.66000000E+00           0.36050950E+00
   0.67000000E+00           0.36537910E+00
   0.68000000E+00           0.37098380E+00
   0.69000000E+00           0.37620770E+00
   0.70000000E+00           0.38127940E+00
   0.71000000E+00           0.38656490E+00
   0.72000000E+00           0.39182690E+00
   0.73000000E+00           0.39668490E+00
   0.74000000E+00           0.40154440E+00
   0.75000000E+00           0.40679730E+00
   0.76000000E+00           0.41181790E+00
   0.77000000E+00           0.41729580E+00
   0.78000000E+00           0.42209650E+00
   0.79000000E+00           0.42669940E+00
   0.80000000E+00           0.43196140E+00
   0.81000000E+00           0.43715410E+00
   0.82000000E+00           0.44217170E+00
   0.83000000E+00           0.44721490E+00
   0.84000000E+00           0.45209700E+00
   0.85000000E+00           0.45725690E+00
   0.86000000E+00           0.46162510E+00
   0.87000000E+00           0.46628890E+00
   0.88000000E+00           0.47156230E+00
   0.89000000E+00           0.47671690E+00
   0.90000000E+00           0.48149080E+00
   0.91000000E+00           0.48589350E+00
   0.92000000E+00           0.49076310E+00
   0.93000000E+00           0.49578850E+00
   0.94000000E+00           0.50076430E+00
   0.95000000E+00           0.50503390E+00
   0.96000000E+00           0.51029100E+00
   0.97000000E+00           0.51498580E+00
   0.98000000E+00           0.51944570E+00
   0.99000000E+00           0.52409360E+00
   0.10000000E+01           0.52869720E+00
   0.10100000E+01           0.53337250E+00
   0.10200000E+01           0.53853650E+00
   0.10300000E+01           0.54308800E+00
   0.10400000E+01           0.54776230E+00
   0.10500000E+01           0.55141840E+00
   0.10600000E+01           0.55645140E+00
   0.10700000E+01           0.56116900E+00
   0.10800000E+01           0.56568940E+00
   0.10900000E+01           0.57044790E+00
   0.11000000E+01           0.57453380E+00
   0.11100000E+01           0.57901510E+00
   0.11200000E+01           0.58353290E+00
   0.11300000E+01           0.58809140E+00
   0.11400000E+01           0.59249590E+00
   0.11500000E+01           0.59710710E+00
   0.11600000E+01           0.60146890E+00
   0.11700000E+01           0.60592920E+00
   0.11800000E+01           0.61045990E+00
   0.11900000E+01           0.61443450E+00
   0.12000000E+01           0.61842380E+00
   0.12100000E+01           0.62348140E+00
   0.12200000E+01           0.62732840E+00
   0.12300000E+01           0.63172930E+00
   0.12400000E+01           0.63581920E+00
   0.12500000E+01           0.64037020E+00
   0.12600000E+01           0.64413240E+00
   0.12700000E+01           0.64837090E+00
   0.12800000E+01           0.65287590E+00
   0.12900000E+01           0.65660620E+00
   0.13000000E+01           0.66054480E+00
   0.13100000E+01           0.66490780E+00
   0.13200000E+01           0.66893420E+00
   0.13300000E+01           0.67279150E+00
   0.13400000E+01           0.67730340E+00
   0.13500000E+01           0.68091340E+00
   0.13600000E+01           0.68458530E+00
   0.13700000E+01           0.68853850E+00
   0.13800000E+01           0.69252480E+00
   0.13900000E+01           0.69626460E+00
   0.14000000E+01           0.70070920E+00
   0.14100000E+01           0.70416870E+00
   0.14200000E+01           0.70776480E+00
   0.14300000E+01           0.71195920E+00
   0.14400000E+01           0.71583430E+00
   0.14500000E+01           0.71903710E+00
   0.14600000E+01           0.72350630E+00
   0.14700000E+01           0.72672360E+00
   0.14800000E+01           0.73037150E+00
   0.14900000E+01           0.73368820E+00
   0.15000000E+01           0.73879410E+00
   0.15100000E+01           0.74144190E+00
   0.15200000E+01           0.74473300E+00
   0.15300000E+01           0.74814180E+00
   0.15400000E+01           0.75267910E+00
   0.15500000E+01           0.75618290E+00
   0.15600000E+01           0.75923030E+00
   0.15700000E+01           0.76210000E+00
   0.15800000E+01           0.76583760E+00
   0.15900000E+01           0.76950350E+00
   0.16000000E+01           0.77309810E+00
   0.16100000E+01           0.77637440E+00
   0.16200000E+01           0.77905490E+00
   0.16300000E+01           0.78265380E+00
   0.16400000E+01           0.78608580E+00
   0.16500000E+01           0.78971440E+00
   0.16600000E+01           0.79288600E+00
   0.16700000E+01           0.79595370E+00
   0.16800000E+01           0.79901130E+00
   0.16900000E+01           0.80215090E+00
   0.17000000E+01           0.80514370E+00
   0.17100000E+01           0.80874000E+00
   0.17200000E+01           0.81156010E+00
   0.17300000E+01           0.81457560E+00
   0.17400000E+01           0.81797550E+00
   0.17500000E+01           0.82055080E+00
   0.17600000E+01           0.82336990E+00
   0.17700000E+01           0.82656070E+00
   0.17800000E+01           0.82926480E+00
   0.17900000E+01           0.83255780E+00
   0.18000000E+01           0.83531510E+00
   0.18100000E+01           0.83764950E+00
   0.18200000E+01           0.84040740E+00
   0.18300000E+01           0.84362380E+00
   0.18400000E+01           0.84667420E+00
   0.18500000E+01           0.84898590E+00
   0.18600000E+01           0.85187090E+00
   0.18700000E+01           0.85415740E+00
   0.18800000E+01           0.85714770E+00
   0.18900000E+01           0.86003310E+00
   0.19000000E+01           0.86243230E+00
   0.19100000E+01           0.86509870E+00
   0.19200000E+01           0.86745710E+00
   0.19300000E+01           0.87003920E+00
   0.19400000E+01           0.87254700E+00
   0.19500000E+01           0.87473970E+00
   0.19600000E+01           0.87762600E+00
   0.19700000E+01           0.87962540E+00
   0.19800000E+01           0.88182860E+00
   0.19900000E+01           0.88375800E+00
   0.20000000E+01           0.44319720E+00
