 #written on  4Sep2024 at 01:14:34 
 #----------------- MONTECARLO -------------------#
 #        M                      P(M)             #
 #------------------------------------------------#
 #T=    80.0000
  -0.20000000E+01           0.00000000E+00
  -0.19900000E+01           0.00000000E+00
  -0.19800000E+01           0.00000000E+00
  -0.19700000E+01           0.00000000E+00
  -0.19600000E+01           0.00000000E+00
  -0.19500000E+01           0.00000000E+00
  -0.19400000E+01           0.00000000E+00
  -0.19300000E+01           0.00000000E+00
  -0.19200000E+01           0.00000000E+00
  -0.19100000E+01           0.00000000E+00
  -0.19000000E+01           0.00000000E+00
  -0.18900000E+01           0.00000000E+00
  -0.18800000E+01           0.00000000E+00
  -0.18700000E+01           0.00000000E+00
  -0.18600000E+01           0.00000000E+00
  -0.18500000E+01           0.00000000E+00
  -0.18400000E+01           0.00000000E+00
  -0.18300000E+01           0.00000000E+00
  -0.18200000E+01           0.00000000E+00
  -0.18100000E+01           0.00000000E+00
  -0.18000000E+01           0.00000000E+00
  -0.17900000E+01           0.00000000E+00
  -0.17800000E+01           0.00000000E+00
  -0.17700000E+01           0.00000000E+00
  -0.17600000E+01           0.00000000E+00
  -0.17500000E+01           0.00000000E+00
  -0.17400000E+01           0.00000000E+00
  -0.17300000E+01           0.00000000E+00
  -0.17200000E+01           0.00000000E+00
  -0.17100000E+01           0.00000000E+00
  -0.17000000E+01           0.00000000E+00
  -0.16900000E+01           0.00000000E+00
  -0.16800000E+01           0.00000000E+00
  -0.16700000E+01           0.00000000E+00
  -0.16600000E+01           0.00000000E+00
  -0.16500000E+01           0.00000000E+00
  -0.16400000E+01           0.00000000E+00
  -0.16300000E+01           0.00000000E+00
  -0.16200000E+01           0.00000000E+00
  -0.16100000E+01           0.00000000E+00
  -0.16000000E+01           0.00000000E+00
  -0.15900000E+01           0.00000000E+00
  -0.15800000E+01           0.00000000E+00
  -0.15700000E+01           0.00000000E+00
  -0.15600000E+01           0.00000000E+00
  -0.15500000E+01           0.00000000E+00
  -0.15400000E+01           0.00000000E+00
  -0.15300000E+01           0.00000000E+00
  -0.15200000E+01           0.00000000E+00
  -0.15100000E+01           0.00000000E+00
  -0.15000000E+01           0.00000000E+00
  -0.14900000E+01           0.00000000E+00
  -0.14800000E+01           0.00000000E+00
  -0.14700000E+01           0.00000000E+00
  -0.14600000E+01           0.00000000E+00
  -0.14500000E+01           0.00000000E+00
  -0.14400000E+01           0.00000000E+00
  -0.14300000E+01           0.00000000E+00
  -0.14200000E+01           0.00000000E+00
  -0.14100000E+01           0.00000000E+00
  -0.14000000E+01           0.00000000E+00
  -0.13900000E+01           0.00000000E+00
  -0.13800000E+01           0.00000000E+00
  -0.13700000E+01           0.00000000E+00
  -0.13600000E+01           0.00000000E+00
  -0.13500000E+01           0.00000000E+00
  -0.13400000E+01           0.00000000E+00
  -0.13300000E+01           0.00000000E+00
  -0.13200000E+01           0.00000000E+00
  -0.13100000E+01           0.00000000E+00
  -0.13000000E+01           0.00000000E+00
  -0.12900000E+01           0.00000000E+00
  -0.12800000E+01           0.00000000E+00
  -0.12700000E+01           0.00000000E+00
  -0.12600000E+01           0.00000000E+00
  -0.12500000E+01           0.00000000E+00
  -0.12400000E+01           0.00000000E+00
  -0.12300000E+01           0.00000000E+00
  -0.12200000E+01           0.00000000E+00
  -0.12100000E+01           0.00000000E+00
  -0.12000000E+01           0.00000000E+00
  -0.11900000E+01           0.00000000E+00
  -0.11800000E+01           0.00000000E+00
  -0.11700000E+01           0.00000000E+00
  -0.11600000E+01           0.00000000E+00
  -0.11500000E+01           0.00000000E+00
  -0.11400000E+01           0.00000000E+00
  -0.11300000E+01           0.00000000E+00
  -0.11200000E+01           0.00000000E+00
  -0.11100000E+01           0.00000000E+00
  -0.11000000E+01           0.00000000E+00
  -0.10900000E+01           0.00000000E+00
  -0.10800000E+01           0.00000000E+00
  -0.10700000E+01           0.00000000E+00
  -0.10600000E+01           0.00000000E+00
  -0.10500000E+01           0.00000000E+00
  -0.10400000E+01           0.00000000E+00
  -0.10300000E+01           0.00000000E+00
  -0.10200000E+01           0.00000000E+00
  -0.10100000E+01           0.00000000E+00
  -0.10000000E+01           0.00000000E+00
  -0.99000000E+00           0.00000000E+00
  -0.98000000E+00           0.00000000E+00
  -0.97000000E+00           0.00000000E+00
  -0.96000000E+00           0.00000000E+00
  -0.95000000E+00           0.00000000E+00
  -0.94000000E+00           0.00000000E+00
  -0.93000000E+00           0.00000000E+00
  -0.92000000E+00           0.00000000E+00
  -0.91000000E+00           0.00000000E+00
  -0.90000000E+00           0.00000000E+00
  -0.89000000E+00           0.00000000E+00
  -0.88000000E+00           0.00000000E+00
  -0.87000000E+00           0.00000000E+00
  -0.86000000E+00           0.00000000E+00
  -0.85000000E+00           0.00000000E+00
  -0.84000000E+00           0.00000000E+00
  -0.83000000E+00           0.00000000E+00
  -0.82000000E+00           0.00000000E+00
  -0.81000000E+00           0.00000000E+00
  -0.80000000E+00           0.00000000E+00
  -0.79000000E+00           0.00000000E+00
  -0.78000000E+00           0.00000000E+00
  -0.77000000E+00           0.00000000E+00
  -0.76000000E+00           0.00000000E+00
  -0.75000000E+00           0.00000000E+00
  -0.74000000E+00           0.00000000E+00
  -0.73000000E+00           0.00000000E+00
  -0.72000000E+00           0.00000000E+00
  -0.71000000E+00           0.00000000E+00
  -0.70000000E+00           0.00000000E+00
  -0.69000000E+00           0.00000000E+00
  -0.68000000E+00           0.00000000E+00
  -0.67000000E+00           0.00000000E+00
  -0.66000000E+00           0.00000000E+00
  -0.65000000E+00           0.00000000E+00
  -0.64000000E+00           0.00000000E+00
  -0.63000000E+00           0.00000000E+00
  -0.62000000E+00           0.00000000E+00
  -0.61000000E+00           0.00000000E+00
  -0.60000000E+00           0.00000000E+00
  -0.59000000E+00           0.00000000E+00
  -0.58000000E+00           0.00000000E+00
  -0.57000000E+00           0.00000000E+00
  -0.56000000E+00           0.00000000E+00
  -0.55000000E+00           0.00000000E+00
  -0.54000000E+00           0.00000000E+00
  -0.53000000E+00           0.00000000E+00
  -0.52000000E+00           0.00000000E+00
  -0.51000000E+00           0.00000000E+00
  -0.50000000E+00           0.00000000E+00
  -0.49000000E+00           0.00000000E+00
  -0.48000000E+00           0.00000000E+00
  -0.47000000E+00           0.00000000E+00
  -0.46000000E+00           0.00000000E+00
  -0.45000000E+00           0.00000000E+00
  -0.44000000E+00           0.00000000E+00
  -0.43000000E+00           0.00000000E+00
  -0.42000000E+00           0.00000000E+00
  -0.41000000E+00           0.00000000E+00
  -0.40000000E+00           0.00000000E+00
  -0.39000000E+00           0.00000000E+00
  -0.38000000E+00           0.00000000E+00
  -0.37000000E+00           0.00000000E+00
  -0.36000000E+00           0.00000000E+00
  -0.35000000E+00           0.00000000E+00
  -0.34000000E+00           0.00000000E+00
  -0.33000000E+00           0.00000000E+00
  -0.32000000E+00           0.00000000E+00
  -0.31000000E+00           0.00000000E+00
  -0.30000000E+00           0.00000000E+00
  -0.29000000E+00           0.00000000E+00
  -0.28000000E+00           0.00000000E+00
  -0.27000000E+00           0.00000000E+00
  -0.26000000E+00           0.00000000E+00
  -0.25000000E+00           0.00000000E+00
  -0.24000000E+00           0.00000000E+00
  -0.23000000E+00           0.00000000E+00
  -0.22000000E+00           0.00000000E+00
  -0.21000000E+00           0.00000000E+00
  -0.20000000E+00           0.00000000E+00
  -0.19000000E+00           0.00000000E+00
  -0.18000000E+00           0.00000000E+00
  -0.17000000E+00           0.00000000E+00
  -0.16000000E+00           0.00000000E+00
  -0.15000000E+00           0.00000000E+00
  -0.14000000E+00           0.00000000E+00
  -0.13000000E+00           0.00000000E+00
  -0.12000000E+00           0.00000000E+00
  -0.11000000E+00           0.00000000E+00
  -0.10000000E+00           0.00000000E+00
  -0.90000000E-01           0.00000000E+00
  -0.80000000E-01           0.00000000E+00
  -0.70000000E-01           0.00000000E+00
  -0.60000000E-01           0.00000000E+00
  -0.50000000E-01           0.00000000E+00
  -0.40000000E-01           0.00000000E+00
  -0.30000000E-01           0.00000000E+00
  -0.20000000E-01           0.00000000E+00
  -0.10000000E-01           0.00000000E+00
   0.00000000E+00           0.30313000E-02
   0.10000000E-01           0.24218100E-01
   0.20000000E-01           0.48462300E-01
   0.30000000E-01           0.72910100E-01
   0.40000000E-01           0.96721600E-01
   0.50000000E-01           0.12100690E+00
   0.60000000E-01           0.14503700E+00
   0.70000000E-01           0.16887320E+00
   0.80000000E-01           0.19294780E+00
   0.90000000E-01           0.21655810E+00
   0.10000000E+00           0.24031640E+00
   0.11000000E+00           0.26362140E+00
   0.12000000E+00           0.28681290E+00
   0.13000000E+00           0.30956270E+00
   0.14000000E+00           0.33245370E+00
   0.15000000E+00           0.35535910E+00
   0.16000000E+00           0.37729250E+00
   0.17000000E+00           0.39982800E+00
   0.18000000E+00           0.42189830E+00
   0.19000000E+00           0.44354250E+00
   0.20000000E+00           0.46460780E+00
   0.21000000E+00           0.48595330E+00
   0.22000000E+00           0.50707230E+00
   0.23000000E+00           0.52738000E+00
   0.24000000E+00           0.54750660E+00
   0.25000000E+00           0.56744280E+00
   0.26000000E+00           0.58633070E+00
   0.27000000E+00           0.60576800E+00
   0.28000000E+00           0.62469030E+00
   0.29000000E+00           0.64278170E+00
   0.30000000E+00           0.66099310E+00
   0.31000000E+00           0.67795140E+00
   0.32000000E+00           0.69535230E+00
   0.33000000E+00           0.71190250E+00
   0.34000000E+00           0.72853510E+00
   0.35000000E+00           0.74380560E+00
   0.36000000E+00           0.75966240E+00
   0.37000000E+00           0.77397320E+00
   0.38000000E+00           0.78856140E+00
   0.39000000E+00           0.80224390E+00
   0.40000000E+00           0.81628460E+00
   0.41000000E+00           0.82903340E+00
   0.42000000E+00           0.84182190E+00
   0.43000000E+00           0.85343630E+00
   0.44000000E+00           0.86556400E+00
   0.45000000E+00           0.87584150E+00
   0.46000000E+00           0.88673010E+00
   0.47000000E+00           0.89718380E+00
   0.48000000E+00           0.90628190E+00
   0.49000000E+00           0.91530960E+00
   0.50000000E+00           0.92313740E+00
   0.51000000E+00           0.93138660E+00
   0.52000000E+00           0.93923040E+00
   0.53000000E+00           0.94609150E+00
   0.54000000E+00           0.95330390E+00
   0.55000000E+00           0.95880130E+00
   0.56000000E+00           0.96346360E+00
   0.57000000E+00           0.96890980E+00
   0.58000000E+00           0.97249360E+00
   0.59000000E+00           0.97661840E+00
   0.60000000E+00           0.98056230E+00
   0.61000000E+00           0.98362910E+00
   0.62000000E+00           0.98585490E+00
   0.63000000E+00           0.98714900E+00
   0.64000000E+00           0.98897820E+00
   0.65000000E+00           0.98953670E+00
   0.66000000E+00           0.99000120E+00
   0.67000000E+00           0.99000190E+00
   0.68000000E+00           0.99014750E+00
   0.69000000E+00           0.98844270E+00
   0.70000000E+00           0.98671180E+00
   0.71000000E+00           0.98538250E+00
   0.72000000E+00           0.98251640E+00
   0.73000000E+00           0.98007160E+00
   0.74000000E+00           0.97636260E+00
   0.75000000E+00           0.97349960E+00
   0.76000000E+00           0.96845050E+00
   0.77000000E+00           0.96388530E+00
   0.78000000E+00           0.95966110E+00
   0.79000000E+00           0.95383570E+00
   0.80000000E+00           0.94784450E+00
   0.81000000E+00           0.94230130E+00
   0.82000000E+00           0.93487310E+00
   0.83000000E+00           0.92890890E+00
   0.84000000E+00           0.92186840E+00
   0.85000000E+00           0.91404800E+00
   0.86000000E+00           0.90586780E+00
   0.87000000E+00           0.89740640E+00
   0.88000000E+00           0.88882780E+00
   0.89000000E+00           0.88098740E+00
   0.90000000E+00           0.87163560E+00
   0.91000000E+00           0.86170900E+00
   0.92000000E+00           0.85275590E+00
   0.93000000E+00           0.84273330E+00
   0.94000000E+00           0.83308280E+00
   0.95000000E+00           0.82219090E+00
   0.96000000E+00           0.81189420E+00
   0.97000000E+00           0.80115850E+00
   0.98000000E+00           0.79032380E+00
   0.99000000E+00           0.77954180E+00
   0.10000000E+01           0.76831870E+00
   0.10100000E+01           0.75613350E+00
   0.10200000E+01           0.74462360E+00
   0.10300000E+01           0.73249440E+00
   0.10400000E+01           0.72075060E+00
   0.10500000E+01           0.70907180E+00
   0.10600000E+01           0.69776820E+00
   0.10700000E+01           0.68514010E+00
   0.10800000E+01           0.67283540E+00
   0.10900000E+01           0.66052860E+00
   0.11000000E+01           0.64802270E+00
   0.11100000E+01           0.63639080E+00
   0.11200000E+01           0.62287190E+00
   0.11300000E+01           0.61067500E+00
   0.11400000E+01           0.59797020E+00
   0.11500000E+01           0.58537350E+00
   0.11600000E+01           0.57305530E+00
   0.11700000E+01           0.56011920E+00
   0.11800000E+01           0.54810880E+00
   0.11900000E+01           0.53483060E+00
   0.12000000E+01           0.52270970E+00
   0.12100000E+01           0.51054590E+00
   0.12200000E+01           0.49762930E+00
   0.12300000E+01           0.48535160E+00
   0.12400000E+01           0.47343460E+00
   0.12500000E+01           0.46161960E+00
   0.12600000E+01           0.44954210E+00
   0.12700000E+01           0.43681310E+00
   0.12800000E+01           0.42517470E+00
   0.12900000E+01           0.41391270E+00
   0.13000000E+01           0.40174920E+00
   0.13100000E+01           0.39035520E+00
   0.13200000E+01           0.37881810E+00
   0.13300000E+01           0.36766770E+00
   0.13400000E+01           0.35629650E+00
   0.13500000E+01           0.34585920E+00
   0.13600000E+01           0.33491580E+00
   0.13700000E+01           0.32366980E+00
   0.13800000E+01           0.31353410E+00
   0.13900000E+01           0.30290920E+00
   0.14000000E+01           0.29254730E+00
   0.14100000E+01           0.28282710E+00
   0.14200000E+01           0.27263900E+00
   0.14300000E+01           0.26309670E+00
   0.14400000E+01           0.25364250E+00
   0.14500000E+01           0.24397200E+00
   0.14600000E+01           0.23453920E+00
   0.14700000E+01           0.22614000E+00
   0.14800000E+01           0.21710450E+00
   0.14900000E+01           0.20871060E+00
   0.15000000E+01           0.20017340E+00
   0.15100000E+01           0.19196160E+00
   0.15200000E+01           0.18386440E+00
   0.15300000E+01           0.17619340E+00
   0.15400000E+01           0.16838350E+00
   0.15500000E+01           0.16117100E+00
   0.15600000E+01           0.15385990E+00
   0.15700000E+01           0.14673980E+00
   0.15800000E+01           0.13980510E+00
   0.15900000E+01           0.13328110E+00
   0.16000000E+01           0.12697760E+00
   0.16100000E+01           0.12040350E+00
   0.16200000E+01           0.11451850E+00
   0.16300000E+01           0.10875590E+00
   0.16400000E+01           0.10308380E+00
   0.16500000E+01           0.97432700E-01
   0.16600000E+01           0.92285100E-01
   0.16700000E+01           0.87249300E-01
   0.16800000E+01           0.82374500E-01
   0.16900000E+01           0.77493900E-01
   0.17000000E+01           0.73006200E-01
   0.17100000E+01           0.68763100E-01
   0.17200000E+01           0.64465600E-01
   0.17300000E+01           0.60471000E-01
   0.17400000E+01           0.56511100E-01
   0.17500000E+01           0.52727000E-01
   0.17600000E+01           0.49228200E-01
   0.17700000E+01           0.45944000E-01
   0.17800000E+01           0.42603300E-01
   0.17900000E+01           0.39689500E-01
   0.18000000E+01           0.36768500E-01
   0.18100000E+01           0.33887800E-01
   0.18200000E+01           0.31170200E-01
   0.18300000E+01           0.28649900E-01
   0.18400000E+01           0.26393900E-01
   0.18500000E+01           0.24176500E-01
   0.18600000E+01           0.21987100E-01
   0.18700000E+01           0.19991300E-01
   0.18800000E+01           0.18192900E-01
   0.18900000E+01           0.16450900E-01
   0.19000000E+01           0.14661600E-01
   0.19100000E+01           0.13224400E-01
   0.19200000E+01           0.11807300E-01
   0.19300000E+01           0.10374600E-01
   0.19400000E+01           0.91740000E-02
   0.19500000E+01           0.80678000E-02
   0.19600000E+01           0.69942000E-02
   0.19700000E+01           0.60096000E-02
   0.19800000E+01           0.51067000E-02
   0.19900000E+01           0.42966000E-02
   0.20000000E+01           0.18554000E-02
 #T=    81.0000
  -0.20000000E+01           0.00000000E+00
  -0.19900000E+01           0.00000000E+00
  -0.19800000E+01           0.00000000E+00
  -0.19700000E+01           0.00000000E+00
  -0.19600000E+01           0.00000000E+00
  -0.19500000E+01           0.00000000E+00
  -0.19400000E+01           0.00000000E+00
  -0.19300000E+01           0.00000000E+00
  -0.19200000E+01           0.00000000E+00
  -0.19100000E+01           0.00000000E+00
  -0.19000000E+01           0.00000000E+00
  -0.18900000E+01           0.00000000E+00
  -0.18800000E+01           0.00000000E+00
  -0.18700000E+01           0.00000000E+00
  -0.18600000E+01           0.00000000E+00
  -0.18500000E+01           0.00000000E+00
  -0.18400000E+01           0.00000000E+00
  -0.18300000E+01           0.00000000E+00
  -0.18200000E+01           0.00000000E+00
  -0.18100000E+01           0.00000000E+00
  -0.18000000E+01           0.00000000E+00
  -0.17900000E+01           0.00000000E+00
  -0.17800000E+01           0.00000000E+00
  -0.17700000E+01           0.00000000E+00
  -0.17600000E+01           0.00000000E+00
  -0.17500000E+01           0.00000000E+00
  -0.17400000E+01           0.00000000E+00
  -0.17300000E+01           0.00000000E+00
  -0.17200000E+01           0.00000000E+00
  -0.17100000E+01           0.00000000E+00
  -0.17000000E+01           0.00000000E+00
  -0.16900000E+01           0.00000000E+00
  -0.16800000E+01           0.00000000E+00
  -0.16700000E+01           0.00000000E+00
  -0.16600000E+01           0.00000000E+00
  -0.16500000E+01           0.00000000E+00
  -0.16400000E+01           0.00000000E+00
  -0.16300000E+01           0.00000000E+00
  -0.16200000E+01           0.00000000E+00
  -0.16100000E+01           0.00000000E+00
  -0.16000000E+01           0.00000000E+00
  -0.15900000E+01           0.00000000E+00
  -0.15800000E+01           0.00000000E+00
  -0.15700000E+01           0.00000000E+00
  -0.15600000E+01           0.00000000E+00
  -0.15500000E+01           0.00000000E+00
  -0.15400000E+01           0.00000000E+00
  -0.15300000E+01           0.00000000E+00
  -0.15200000E+01           0.00000000E+00
  -0.15100000E+01           0.00000000E+00
  -0.15000000E+01           0.00000000E+00
  -0.14900000E+01           0.00000000E+00
  -0.14800000E+01           0.00000000E+00
  -0.14700000E+01           0.00000000E+00
  -0.14600000E+01           0.00000000E+00
  -0.14500000E+01           0.00000000E+00
  -0.14400000E+01           0.00000000E+00
  -0.14300000E+01           0.00000000E+00
  -0.14200000E+01           0.00000000E+00
  -0.14100000E+01           0.00000000E+00
  -0.14000000E+01           0.00000000E+00
  -0.13900000E+01           0.00000000E+00
  -0.13800000E+01           0.00000000E+00
  -0.13700000E+01           0.00000000E+00
  -0.13600000E+01           0.00000000E+00
  -0.13500000E+01           0.00000000E+00
  -0.13400000E+01           0.00000000E+00
  -0.13300000E+01           0.00000000E+00
  -0.13200000E+01           0.00000000E+00
  -0.13100000E+01           0.00000000E+00
  -0.13000000E+01           0.00000000E+00
  -0.12900000E+01           0.00000000E+00
  -0.12800000E+01           0.00000000E+00
  -0.12700000E+01           0.00000000E+00
  -0.12600000E+01           0.00000000E+00
  -0.12500000E+01           0.00000000E+00
  -0.12400000E+01           0.00000000E+00
  -0.12300000E+01           0.00000000E+00
  -0.12200000E+01           0.00000000E+00
  -0.12100000E+01           0.00000000E+00
  -0.12000000E+01           0.00000000E+00
  -0.11900000E+01           0.00000000E+00
  -0.11800000E+01           0.00000000E+00
  -0.11700000E+01           0.00000000E+00
  -0.11600000E+01           0.00000000E+00
  -0.11500000E+01           0.00000000E+00
  -0.11400000E+01           0.00000000E+00
  -0.11300000E+01           0.00000000E+00
  -0.11200000E+01           0.00000000E+00
  -0.11100000E+01           0.00000000E+00
  -0.11000000E+01           0.00000000E+00
  -0.10900000E+01           0.00000000E+00
  -0.10800000E+01           0.00000000E+00
  -0.10700000E+01           0.00000000E+00
  -0.10600000E+01           0.00000000E+00
  -0.10500000E+01           0.00000000E+00
  -0.10400000E+01           0.00000000E+00
  -0.10300000E+01           0.00000000E+00
  -0.10200000E+01           0.00000000E+00
  -0.10100000E+01           0.00000000E+00
  -0.10000000E+01           0.00000000E+00
  -0.99000000E+00           0.00000000E+00
  -0.98000000E+00           0.00000000E+00
  -0.97000000E+00           0.00000000E+00
  -0.96000000E+00           0.00000000E+00
  -0.95000000E+00           0.00000000E+00
  -0.94000000E+00           0.00000000E+00
  -0.93000000E+00           0.00000000E+00
  -0.92000000E+00           0.00000000E+00
  -0.91000000E+00           0.00000000E+00
  -0.90000000E+00           0.00000000E+00
  -0.89000000E+00           0.00000000E+00
  -0.88000000E+00           0.00000000E+00
  -0.87000000E+00           0.00000000E+00
  -0.86000000E+00           0.00000000E+00
  -0.85000000E+00           0.00000000E+00
  -0.84000000E+00           0.00000000E+00
  -0.83000000E+00           0.00000000E+00
  -0.82000000E+00           0.00000000E+00
  -0.81000000E+00           0.00000000E+00
  -0.80000000E+00           0.00000000E+00
  -0.79000000E+00           0.00000000E+00
  -0.78000000E+00           0.00000000E+00
  -0.77000000E+00           0.00000000E+00
  -0.76000000E+00           0.00000000E+00
  -0.75000000E+00           0.00000000E+00
  -0.74000000E+00           0.00000000E+00
  -0.73000000E+00           0.00000000E+00
  -0.72000000E+00           0.00000000E+00
  -0.71000000E+00           0.00000000E+00
  -0.70000000E+00           0.00000000E+00
  -0.69000000E+00           0.00000000E+00
  -0.68000000E+00           0.00000000E+00
  -0.67000000E+00           0.00000000E+00
  -0.66000000E+00           0.00000000E+00
  -0.65000000E+00           0.00000000E+00
  -0.64000000E+00           0.00000000E+00
  -0.63000000E+00           0.00000000E+00
  -0.62000000E+00           0.00000000E+00
  -0.61000000E+00           0.00000000E+00
  -0.60000000E+00           0.00000000E+00
  -0.59000000E+00           0.00000000E+00
  -0.58000000E+00           0.00000000E+00
  -0.57000000E+00           0.00000000E+00
  -0.56000000E+00           0.00000000E+00
  -0.55000000E+00           0.00000000E+00
  -0.54000000E+00           0.00000000E+00
  -0.53000000E+00           0.00000000E+00
  -0.52000000E+00           0.00000000E+00
  -0.51000000E+00           0.00000000E+00
  -0.50000000E+00           0.00000000E+00
  -0.49000000E+00           0.00000000E+00
  -0.48000000E+00           0.00000000E+00
  -0.47000000E+00           0.00000000E+00
  -0.46000000E+00           0.00000000E+00
  -0.45000000E+00           0.00000000E+00
  -0.44000000E+00           0.00000000E+00
  -0.43000000E+00           0.00000000E+00
  -0.42000000E+00           0.00000000E+00
  -0.41000000E+00           0.00000000E+00
  -0.40000000E+00           0.00000000E+00
  -0.39000000E+00           0.00000000E+00
  -0.38000000E+00           0.00000000E+00
  -0.37000000E+00           0.00000000E+00
  -0.36000000E+00           0.00000000E+00
  -0.35000000E+00           0.00000000E+00
  -0.34000000E+00           0.00000000E+00
  -0.33000000E+00           0.00000000E+00
  -0.32000000E+00           0.00000000E+00
  -0.31000000E+00           0.00000000E+00
  -0.30000000E+00           0.00000000E+00
  -0.29000000E+00           0.00000000E+00
  -0.28000000E+00           0.00000000E+00
  -0.27000000E+00           0.00000000E+00
  -0.26000000E+00           0.00000000E+00
  -0.25000000E+00           0.00000000E+00
  -0.24000000E+00           0.00000000E+00
  -0.23000000E+00           0.00000000E+00
  -0.22000000E+00           0.00000000E+00
  -0.21000000E+00           0.00000000E+00
  -0.20000000E+00           0.00000000E+00
  -0.19000000E+00           0.00000000E+00
  -0.18000000E+00           0.00000000E+00
  -0.17000000E+00           0.00000000E+00
  -0.16000000E+00           0.00000000E+00
  -0.15000000E+00           0.00000000E+00
  -0.14000000E+00           0.00000000E+00
  -0.13000000E+00           0.00000000E+00
  -0.12000000E+00           0.00000000E+00
  -0.11000000E+00           0.00000000E+00
  -0.10000000E+00           0.00000000E+00
  -0.90000000E-01           0.00000000E+00
  -0.80000000E-01           0.00000000E+00
  -0.70000000E-01           0.00000000E+00
  -0.60000000E-01           0.00000000E+00
  -0.50000000E-01           0.00000000E+00
  -0.40000000E-01           0.00000000E+00
  -0.30000000E-01           0.00000000E+00
  -0.20000000E-01           0.00000000E+00
  -0.10000000E-01           0.00000000E+00
   0.00000000E+00           0.29856000E-02
   0.10000000E-01           0.23930000E-01
   0.20000000E-01           0.47712800E-01
   0.30000000E-01           0.71674700E-01
   0.40000000E-01           0.95279900E-01
   0.50000000E-01           0.11904570E+00
   0.60000000E-01           0.14264730E+00
   0.70000000E-01           0.16612500E+00
   0.80000000E-01           0.18975530E+00
   0.90000000E-01           0.21311630E+00
   0.10000000E+00           0.23622910E+00
   0.11000000E+00           0.25941540E+00
   0.12000000E+00           0.28215580E+00
   0.13000000E+00           0.30466580E+00
   0.14000000E+00           0.32776630E+00
   0.15000000E+00           0.34969520E+00
   0.16000000E+00           0.37165030E+00
   0.17000000E+00           0.39376820E+00
   0.18000000E+00           0.41579880E+00
   0.19000000E+00           0.43652870E+00
   0.20000000E+00           0.45749670E+00
   0.21000000E+00           0.47814660E+00
   0.22000000E+00           0.49898120E+00
   0.23000000E+00           0.51910470E+00
   0.24000000E+00           0.53899320E+00
   0.25000000E+00           0.55853260E+00
   0.26000000E+00           0.57825640E+00
   0.27000000E+00           0.59660580E+00
   0.28000000E+00           0.61479110E+00
   0.29000000E+00           0.63344590E+00
   0.30000000E+00           0.65127470E+00
   0.31000000E+00           0.66852970E+00
   0.32000000E+00           0.68576700E+00
   0.33000000E+00           0.70181650E+00
   0.34000000E+00           0.71830060E+00
   0.35000000E+00           0.73374730E+00
   0.36000000E+00           0.74911640E+00
   0.37000000E+00           0.76352380E+00
   0.38000000E+00           0.77797010E+00
   0.39000000E+00           0.79201850E+00
   0.40000000E+00           0.80540000E+00
   0.41000000E+00           0.81772950E+00
   0.42000000E+00           0.83053790E+00
   0.43000000E+00           0.84281870E+00
   0.44000000E+00           0.85406190E+00
   0.45000000E+00           0.86545940E+00
   0.46000000E+00           0.87604290E+00
   0.47000000E+00           0.88632100E+00
   0.48000000E+00           0.89617480E+00
   0.49000000E+00           0.90439780E+00
   0.50000000E+00           0.91319570E+00
   0.51000000E+00           0.92170030E+00
   0.52000000E+00           0.92892660E+00
   0.53000000E+00           0.93564540E+00
   0.54000000E+00           0.94202750E+00
   0.55000000E+00           0.94910010E+00
   0.56000000E+00           0.95372330E+00
   0.57000000E+00           0.95894140E+00
   0.58000000E+00           0.96388110E+00
   0.59000000E+00           0.96829880E+00
   0.60000000E+00           0.97161520E+00
   0.61000000E+00           0.97434360E+00
   0.62000000E+00           0.97700420E+00
   0.63000000E+00           0.97926500E+00
   0.64000000E+00           0.98094570E+00
   0.65000000E+00           0.98213630E+00
   0.66000000E+00           0.98208280E+00
   0.67000000E+00           0.98290350E+00
   0.68000000E+00           0.98160440E+00
   0.69000000E+00           0.98188780E+00
   0.70000000E+00           0.98004300E+00
   0.71000000E+00           0.97831820E+00
   0.72000000E+00           0.97669020E+00
   0.73000000E+00           0.97424540E+00
   0.74000000E+00           0.97281720E+00
   0.75000000E+00           0.96788290E+00
   0.76000000E+00           0.96391320E+00
   0.77000000E+00           0.96013520E+00
   0.78000000E+00           0.95467500E+00
   0.79000000E+00           0.95015350E+00
   0.80000000E+00           0.94487380E+00
   0.81000000E+00           0.93934060E+00
   0.82000000E+00           0.93260110E+00
   0.83000000E+00           0.92711160E+00
   0.84000000E+00           0.91962520E+00
   0.85000000E+00           0.91257540E+00
   0.86000000E+00           0.90454980E+00
   0.87000000E+00           0.89700250E+00
   0.88000000E+00           0.88895040E+00
   0.89000000E+00           0.88049110E+00
   0.90000000E+00           0.87169300E+00
   0.91000000E+00           0.86339530E+00
   0.92000000E+00           0.85382310E+00
   0.93000000E+00           0.84449570E+00
   0.94000000E+00           0.83440580E+00
   0.95000000E+00           0.82464090E+00
   0.96000000E+00           0.81416700E+00
   0.97000000E+00           0.80433510E+00
   0.98000000E+00           0.79350660E+00
   0.99000000E+00           0.78226730E+00
   0.10000000E+01           0.77194850E+00
   0.10100000E+01           0.76085040E+00
   0.10200000E+01           0.74940850E+00
   0.10300000E+01           0.73789790E+00
   0.10400000E+01           0.72594010E+00
   0.10500000E+01           0.71458930E+00
   0.10600000E+01           0.70279060E+00
   0.10700000E+01           0.69028910E+00
   0.10800000E+01           0.67929350E+00
   0.10900000E+01           0.66686580E+00
   0.11000000E+01           0.65407980E+00
   0.11100000E+01           0.64236840E+00
   0.11200000E+01           0.63029360E+00
   0.11300000E+01           0.61763220E+00
   0.11400000E+01           0.60549170E+00
   0.11500000E+01           0.59355030E+00
   0.11600000E+01           0.58083890E+00
   0.11700000E+01           0.56777290E+00
   0.11800000E+01           0.55621650E+00
   0.11900000E+01           0.54344700E+00
   0.12000000E+01           0.53121000E+00
   0.12100000E+01           0.51884790E+00
   0.12200000E+01           0.50647430E+00
   0.12300000E+01           0.49472180E+00
   0.12400000E+01           0.48259190E+00
   0.12500000E+01           0.47042430E+00
   0.12600000E+01           0.45795920E+00
   0.12700000E+01           0.44623780E+00
   0.12800000E+01           0.43446690E+00
   0.12900000E+01           0.42268830E+00
   0.13000000E+01           0.41097810E+00
   0.13100000E+01           0.39960080E+00
   0.13200000E+01           0.38805700E+00
   0.13300000E+01           0.37685500E+00
   0.13400000E+01           0.36559530E+00
   0.13500000E+01           0.35428920E+00
   0.13600000E+01           0.34361620E+00
   0.13700000E+01           0.33261460E+00
   0.13800000E+01           0.32223720E+00
   0.13900000E+01           0.31166250E+00
   0.14000000E+01           0.30172690E+00
   0.14100000E+01           0.29147660E+00
   0.14200000E+01           0.28160920E+00
   0.14300000E+01           0.27162940E+00
   0.14400000E+01           0.26182680E+00
   0.14500000E+01           0.25269880E+00
   0.14600000E+01           0.24357600E+00
   0.14700000E+01           0.23412060E+00
   0.14800000E+01           0.22544460E+00
   0.14900000E+01           0.21637950E+00
   0.15000000E+01           0.20783300E+00
   0.15100000E+01           0.19944290E+00
   0.15200000E+01           0.19179520E+00
   0.15300000E+01           0.18365200E+00
   0.15400000E+01           0.17558960E+00
   0.15500000E+01           0.16796280E+00
   0.15600000E+01           0.16095430E+00
   0.15700000E+01           0.15351000E+00
   0.15800000E+01           0.14654670E+00
   0.15900000E+01           0.13992690E+00
   0.16000000E+01           0.13332650E+00
   0.16100000E+01           0.12691800E+00
   0.16200000E+01           0.12039400E+00
   0.16300000E+01           0.11480870E+00
   0.16400000E+01           0.10894060E+00
   0.16500000E+01           0.10307810E+00
   0.16600000E+01           0.97836200E-01
   0.16700000E+01           0.92506700E-01
   0.16800000E+01           0.87358400E-01
   0.16900000E+01           0.82448900E-01
   0.17000000E+01           0.77839800E-01
   0.17100000E+01           0.73024100E-01
   0.17200000E+01           0.68755600E-01
   0.17300000E+01           0.64380100E-01
   0.17400000E+01           0.60480200E-01
   0.17500000E+01           0.56812700E-01
   0.17600000E+01           0.53046700E-01
   0.17700000E+01           0.49172300E-01
   0.17800000E+01           0.45930300E-01
   0.17900000E+01           0.42666000E-01
   0.18000000E+01           0.39496300E-01
   0.18100000E+01           0.36621000E-01
   0.18200000E+01           0.33937900E-01
   0.18300000E+01           0.31286600E-01
   0.18400000E+01           0.28660200E-01
   0.18500000E+01           0.26244100E-01
   0.18600000E+01           0.24102100E-01
   0.18700000E+01           0.21958500E-01
   0.18800000E+01           0.19967600E-01
   0.18900000E+01           0.18039500E-01
   0.19000000E+01           0.16234000E-01
   0.19100000E+01           0.14564600E-01
   0.19200000E+01           0.13048900E-01
   0.19300000E+01           0.11650400E-01
   0.19400000E+01           0.10327600E-01
   0.19500000E+01           0.90138000E-02
   0.19600000E+01           0.78718000E-02
   0.19700000E+01           0.68019000E-02
   0.19800000E+01           0.57773000E-02
   0.19900000E+01           0.48808000E-02
   0.20000000E+01           0.21334000E-02
 #T=    82.0000
  -0.20000000E+01           0.00000000E+00
  -0.19900000E+01           0.00000000E+00
  -0.19800000E+01           0.00000000E+00
  -0.19700000E+01           0.00000000E+00
  -0.19600000E+01           0.00000000E+00
  -0.19500000E+01           0.00000000E+00
  -0.19400000E+01           0.00000000E+00
  -0.19300000E+01           0.00000000E+00
  -0.19200000E+01           0.00000000E+00
  -0.19100000E+01           0.00000000E+00
  -0.19000000E+01           0.00000000E+00
  -0.18900000E+01           0.00000000E+00
  -0.18800000E+01           0.00000000E+00
  -0.18700000E+01           0.00000000E+00
  -0.18600000E+01           0.00000000E+00
  -0.18500000E+01           0.00000000E+00
  -0.18400000E+01           0.00000000E+00
  -0.18300000E+01           0.00000000E+00
  -0.18200000E+01           0.00000000E+00
  -0.18100000E+01           0.00000000E+00
  -0.18000000E+01           0.00000000E+00
  -0.17900000E+01           0.00000000E+00
  -0.17800000E+01           0.00000000E+00
  -0.17700000E+01           0.00000000E+00
  -0.17600000E+01           0.00000000E+00
  -0.17500000E+01           0.00000000E+00
  -0.17400000E+01           0.00000000E+00
  -0.17300000E+01           0.00000000E+00
  -0.17200000E+01           0.00000000E+00
  -0.17100000E+01           0.00000000E+00
  -0.17000000E+01           0.00000000E+00
  -0.16900000E+01           0.00000000E+00
  -0.16800000E+01           0.00000000E+00
  -0.16700000E+01           0.00000000E+00
  -0.16600000E+01           0.00000000E+00
  -0.16500000E+01           0.00000000E+00
  -0.16400000E+01           0.00000000E+00
  -0.16300000E+01           0.00000000E+00
  -0.16200000E+01           0.00000000E+00
  -0.16100000E+01           0.00000000E+00
  -0.16000000E+01           0.00000000E+00
  -0.15900000E+01           0.00000000E+00
  -0.15800000E+01           0.00000000E+00
  -0.15700000E+01           0.00000000E+00
  -0.15600000E+01           0.00000000E+00
  -0.15500000E+01           0.00000000E+00
  -0.15400000E+01           0.00000000E+00
  -0.15300000E+01           0.00000000E+00
  -0.15200000E+01           0.00000000E+00
  -0.15100000E+01           0.00000000E+00
  -0.15000000E+01           0.00000000E+00
  -0.14900000E+01           0.00000000E+00
  -0.14800000E+01           0.00000000E+00
  -0.14700000E+01           0.00000000E+00
  -0.14600000E+01           0.00000000E+00
  -0.14500000E+01           0.00000000E+00
  -0.14400000E+01           0.00000000E+00
  -0.14300000E+01           0.00000000E+00
  -0.14200000E+01           0.00000000E+00
  -0.14100000E+01           0.00000000E+00
  -0.14000000E+01           0.00000000E+00
  -0.13900000E+01           0.00000000E+00
  -0.13800000E+01           0.00000000E+00
  -0.13700000E+01           0.00000000E+00
  -0.13600000E+01           0.00000000E+00
  -0.13500000E+01           0.00000000E+00
  -0.13400000E+01           0.00000000E+00
  -0.13300000E+01           0.00000000E+00
  -0.13200000E+01           0.00000000E+00
  -0.13100000E+01           0.00000000E+00
  -0.13000000E+01           0.00000000E+00
  -0.12900000E+01           0.00000000E+00
  -0.12800000E+01           0.00000000E+00
  -0.12700000E+01           0.00000000E+00
  -0.12600000E+01           0.00000000E+00
  -0.12500000E+01           0.00000000E+00
  -0.12400000E+01           0.00000000E+00
  -0.12300000E+01           0.00000000E+00
  -0.12200000E+01           0.00000000E+00
  -0.12100000E+01           0.00000000E+00
  -0.12000000E+01           0.00000000E+00
  -0.11900000E+01           0.00000000E+00
  -0.11800000E+01           0.00000000E+00
  -0.11700000E+01           0.00000000E+00
  -0.11600000E+01           0.00000000E+00
  -0.11500000E+01           0.00000000E+00
  -0.11400000E+01           0.00000000E+00
  -0.11300000E+01           0.00000000E+00
  -0.11200000E+01           0.00000000E+00
  -0.11100000E+01           0.00000000E+00
  -0.11000000E+01           0.00000000E+00
  -0.10900000E+01           0.00000000E+00
  -0.10800000E+01           0.00000000E+00
  -0.10700000E+01           0.00000000E+00
  -0.10600000E+01           0.00000000E+00
  -0.10500000E+01           0.00000000E+00
  -0.10400000E+01           0.00000000E+00
  -0.10300000E+01           0.00000000E+00
  -0.10200000E+01           0.00000000E+00
  -0.10100000E+01           0.00000000E+00
  -0.10000000E+01           0.00000000E+00
  -0.99000000E+00           0.00000000E+00
  -0.98000000E+00           0.00000000E+00
  -0.97000000E+00           0.00000000E+00
  -0.96000000E+00           0.00000000E+00
  -0.95000000E+00           0.00000000E+00
  -0.94000000E+00           0.00000000E+00
  -0.93000000E+00           0.00000000E+00
  -0.92000000E+00           0.00000000E+00
  -0.91000000E+00           0.00000000E+00
  -0.90000000E+00           0.00000000E+00
  -0.89000000E+00           0.00000000E+00
  -0.88000000E+00           0.00000000E+00
  -0.87000000E+00           0.00000000E+00
  -0.86000000E+00           0.00000000E+00
  -0.85000000E+00           0.00000000E+00
  -0.84000000E+00           0.00000000E+00
  -0.83000000E+00           0.00000000E+00
  -0.82000000E+00           0.00000000E+00
  -0.81000000E+00           0.00000000E+00
  -0.80000000E+00           0.00000000E+00
  -0.79000000E+00           0.00000000E+00
  -0.78000000E+00           0.00000000E+00
  -0.77000000E+00           0.00000000E+00
  -0.76000000E+00           0.00000000E+00
  -0.75000000E+00           0.00000000E+00
  -0.74000000E+00           0.00000000E+00
  -0.73000000E+00           0.00000000E+00
  -0.72000000E+00           0.00000000E+00
  -0.71000000E+00           0.00000000E+00
  -0.70000000E+00           0.00000000E+00
  -0.69000000E+00           0.00000000E+00
  -0.68000000E+00           0.00000000E+00
  -0.67000000E+00           0.00000000E+00
  -0.66000000E+00           0.00000000E+00
  -0.65000000E+00           0.00000000E+00
  -0.64000000E+00           0.00000000E+00
  -0.63000000E+00           0.00000000E+00
  -0.62000000E+00           0.00000000E+00
  -0.61000000E+00           0.00000000E+00
  -0.60000000E+00           0.00000000E+00
  -0.59000000E+00           0.00000000E+00
  -0.58000000E+00           0.00000000E+00
  -0.57000000E+00           0.00000000E+00
  -0.56000000E+00           0.00000000E+00
  -0.55000000E+00           0.00000000E+00
  -0.54000000E+00           0.00000000E+00
  -0.53000000E+00           0.00000000E+00
  -0.52000000E+00           0.00000000E+00
  -0.51000000E+00           0.00000000E+00
  -0.50000000E+00           0.00000000E+00
  -0.49000000E+00           0.00000000E+00
  -0.48000000E+00           0.00000000E+00
  -0.47000000E+00           0.00000000E+00
  -0.46000000E+00           0.00000000E+00
  -0.45000000E+00           0.00000000E+00
  -0.44000000E+00           0.00000000E+00
  -0.43000000E+00           0.00000000E+00
  -0.42000000E+00           0.00000000E+00
  -0.41000000E+00           0.00000000E+00
  -0.40000000E+00           0.00000000E+00
  -0.39000000E+00           0.00000000E+00
  -0.38000000E+00           0.00000000E+00
  -0.37000000E+00           0.00000000E+00
  -0.36000000E+00           0.00000000E+00
  -0.35000000E+00           0.00000000E+00
  -0.34000000E+00           0.00000000E+00
  -0.33000000E+00           0.00000000E+00
  -0.32000000E+00           0.00000000E+00
  -0.31000000E+00           0.00000000E+00
  -0.30000000E+00           0.00000000E+00
  -0.29000000E+00           0.00000000E+00
  -0.28000000E+00           0.00000000E+00
  -0.27000000E+00           0.00000000E+00
  -0.26000000E+00           0.00000000E+00
  -0.25000000E+00           0.00000000E+00
  -0.24000000E+00           0.00000000E+00
  -0.23000000E+00           0.00000000E+00
  -0.22000000E+00           0.00000000E+00
  -0.21000000E+00           0.00000000E+00
  -0.20000000E+00           0.00000000E+00
  -0.19000000E+00           0.00000000E+00
  -0.18000000E+00           0.00000000E+00
  -0.17000000E+00           0.00000000E+00
  -0.16000000E+00           0.00000000E+00
  -0.15000000E+00           0.00000000E+00
  -0.14000000E+00           0.00000000E+00
  -0.13000000E+00           0.00000000E+00
  -0.12000000E+00           0.00000000E+00
  -0.11000000E+00           0.00000000E+00
  -0.10000000E+00           0.00000000E+00
  -0.90000000E-01           0.00000000E+00
  -0.80000000E-01           0.00000000E+00
  -0.70000000E-01           0.00000000E+00
  -0.60000000E-01           0.00000000E+00
  -0.50000000E-01           0.00000000E+00
  -0.40000000E-01           0.00000000E+00
  -0.30000000E-01           0.00000000E+00
  -0.20000000E-01           0.00000000E+00
  -0.10000000E-01           0.00000000E+00
   0.00000000E+00           0.28970000E-02
   0.10000000E-01           0.23456900E-01
   0.20000000E-01           0.47015500E-01
   0.30000000E-01           0.70430600E-01
   0.40000000E-01           0.93905500E-01
   0.50000000E-01           0.11722990E+00
   0.60000000E-01           0.14028340E+00
   0.70000000E-01           0.16337160E+00
   0.80000000E-01           0.18664900E+00
   0.90000000E-01           0.20904100E+00
   0.10000000E+00           0.23188260E+00
   0.11000000E+00           0.25488270E+00
   0.12000000E+00           0.27790330E+00
   0.13000000E+00           0.29965640E+00
   0.14000000E+00           0.32235420E+00
   0.15000000E+00           0.34419870E+00
   0.16000000E+00           0.36605320E+00
   0.17000000E+00           0.38719320E+00
   0.18000000E+00           0.40858800E+00
   0.19000000E+00           0.42994240E+00
   0.20000000E+00           0.45090140E+00
   0.21000000E+00           0.47155110E+00
   0.22000000E+00           0.49058990E+00
   0.23000000E+00           0.51121700E+00
   0.24000000E+00           0.53109000E+00
   0.25000000E+00           0.55003190E+00
   0.26000000E+00           0.56948310E+00
   0.27000000E+00           0.58813530E+00
   0.28000000E+00           0.60604730E+00
   0.29000000E+00           0.62383120E+00
   0.30000000E+00           0.64138150E+00
   0.31000000E+00           0.65828150E+00
   0.32000000E+00           0.67580560E+00
   0.33000000E+00           0.69212630E+00
   0.34000000E+00           0.70812630E+00
   0.35000000E+00           0.72312030E+00
   0.36000000E+00           0.73914110E+00
   0.37000000E+00           0.75422940E+00
   0.38000000E+00           0.76705220E+00
   0.39000000E+00           0.78097620E+00
   0.40000000E+00           0.79491920E+00
   0.41000000E+00           0.80749950E+00
   0.42000000E+00           0.82064020E+00
   0.43000000E+00           0.83228030E+00
   0.44000000E+00           0.84391700E+00
   0.45000000E+00           0.85463970E+00
   0.46000000E+00           0.86590610E+00
   0.47000000E+00           0.87540530E+00
   0.48000000E+00           0.88548720E+00
   0.49000000E+00           0.89413170E+00
   0.50000000E+00           0.90271390E+00
   0.51000000E+00           0.91138620E+00
   0.52000000E+00           0.91887190E+00
   0.53000000E+00           0.92615740E+00
   0.54000000E+00           0.93284310E+00
   0.55000000E+00           0.93880660E+00
   0.56000000E+00           0.94423270E+00
   0.57000000E+00           0.95003610E+00
   0.58000000E+00           0.95484040E+00
   0.59000000E+00           0.95826390E+00
   0.60000000E+00           0.96236770E+00
   0.61000000E+00           0.96506620E+00
   0.62000000E+00           0.96876070E+00
   0.63000000E+00           0.97062450E+00
   0.64000000E+00           0.97228270E+00
   0.65000000E+00           0.97449260E+00
   0.66000000E+00           0.97489120E+00
   0.67000000E+00           0.97608890E+00
   0.68000000E+00           0.97559080E+00
   0.69000000E+00           0.97426820E+00
   0.70000000E+00           0.97452070E+00
   0.71000000E+00           0.97273620E+00
   0.72000000E+00           0.97044990E+00
   0.73000000E+00           0.96910620E+00
   0.74000000E+00           0.96577600E+00
   0.75000000E+00           0.96337290E+00
   0.76000000E+00           0.95962310E+00
   0.77000000E+00           0.95585570E+00
   0.78000000E+00           0.95137290E+00
   0.79000000E+00           0.94629310E+00
   0.80000000E+00           0.94163950E+00
   0.81000000E+00           0.93591420E+00
   0.82000000E+00           0.93026160E+00
   0.83000000E+00           0.92449190E+00
   0.84000000E+00           0.91811090E+00
   0.85000000E+00           0.91129250E+00
   0.86000000E+00           0.90347680E+00
   0.87000000E+00           0.89637890E+00
   0.88000000E+00           0.88870600E+00
   0.89000000E+00           0.88102310E+00
   0.90000000E+00           0.87225120E+00
   0.91000000E+00           0.86363130E+00
   0.92000000E+00           0.85523790E+00
   0.93000000E+00           0.84552330E+00
   0.94000000E+00           0.83616710E+00
   0.95000000E+00           0.82694370E+00
   0.96000000E+00           0.81707680E+00
   0.97000000E+00           0.80638890E+00
   0.98000000E+00           0.79677930E+00
   0.99000000E+00           0.78609570E+00
   0.10000000E+01           0.77489720E+00
   0.10100000E+01           0.76486960E+00
   0.10200000E+01           0.75345180E+00
   0.10300000E+01           0.74249810E+00
   0.10400000E+01           0.73073050E+00
   0.10500000E+01           0.71911370E+00
   0.10600000E+01           0.70812360E+00
   0.10700000E+01           0.69704600E+00
   0.10800000E+01           0.68476690E+00
   0.10900000E+01           0.67272310E+00
   0.11000000E+01           0.66032220E+00
   0.11100000E+01           0.64937390E+00
   0.11200000E+01           0.63706280E+00
   0.11300000E+01           0.62493150E+00
   0.11400000E+01           0.61219360E+00
   0.11500000E+01           0.60000360E+00
   0.11600000E+01           0.58854970E+00
   0.11700000E+01           0.57571660E+00
   0.11800000E+01           0.56324070E+00
   0.11900000E+01           0.55101770E+00
   0.12000000E+01           0.53934240E+00
   0.12100000E+01           0.52706260E+00
   0.12200000E+01           0.51484420E+00
   0.12300000E+01           0.50321380E+00
   0.12400000E+01           0.49115390E+00
   0.12500000E+01           0.47859090E+00
   0.12600000E+01           0.46712170E+00
   0.12700000E+01           0.45508180E+00
   0.12800000E+01           0.44315540E+00
   0.12900000E+01           0.43159190E+00
   0.13000000E+01           0.41997390E+00
   0.13100000E+01           0.40805540E+00
   0.13200000E+01           0.39677360E+00
   0.13300000E+01           0.38605510E+00
   0.13400000E+01           0.37449410E+00
   0.13500000E+01           0.36374570E+00
   0.13600000E+01           0.35251760E+00
   0.13700000E+01           0.34171570E+00
   0.13800000E+01           0.33094300E+00
   0.13900000E+01           0.32084260E+00
   0.14000000E+01           0.31034980E+00
   0.14100000E+01           0.29998620E+00
   0.14200000E+01           0.29012460E+00
   0.14300000E+01           0.28006180E+00
   0.14400000E+01           0.27060590E+00
   0.14500000E+01           0.26108660E+00
   0.14600000E+01           0.25143020E+00
   0.14700000E+01           0.24236280E+00
   0.14800000E+01           0.23344600E+00
   0.14900000E+01           0.22436860E+00
   0.15000000E+01           0.21604630E+00
   0.15100000E+01           0.20756240E+00
   0.15200000E+01           0.19891430E+00
   0.15300000E+01           0.19146170E+00
   0.15400000E+01           0.18342420E+00
   0.15500000E+01           0.17526420E+00
   0.15600000E+01           0.16801920E+00
   0.15700000E+01           0.16056890E+00
   0.15800000E+01           0.15356450E+00
   0.15900000E+01           0.14661580E+00
   0.16000000E+01           0.13979060E+00
   0.16100000E+01           0.13306970E+00
   0.16200000E+01           0.12675570E+00
   0.16300000E+01           0.12071490E+00
   0.16400000E+01           0.11448490E+00
   0.16500000E+01           0.10870020E+00
   0.16600000E+01           0.10301390E+00
   0.16700000E+01           0.97624300E-01
   0.16800000E+01           0.92418800E-01
   0.16900000E+01           0.87341600E-01
   0.17000000E+01           0.82448800E-01
   0.17100000E+01           0.77682000E-01
   0.17200000E+01           0.73199500E-01
   0.17300000E+01           0.68738300E-01
   0.17400000E+01           0.64499800E-01
   0.17500000E+01           0.60423800E-01
   0.17600000E+01           0.56585200E-01
   0.17700000E+01           0.52855300E-01
   0.17800000E+01           0.49241000E-01
   0.17900000E+01           0.46054600E-01
   0.18000000E+01           0.42781600E-01
   0.18100000E+01           0.39485200E-01
   0.18200000E+01           0.36566100E-01
   0.18300000E+01           0.33892300E-01
   0.18400000E+01           0.31171600E-01
   0.18500000E+01           0.28545600E-01
   0.18600000E+01           0.26304800E-01
   0.18700000E+01           0.23921000E-01
   0.18800000E+01           0.21786100E-01
   0.18900000E+01           0.19775400E-01
   0.19000000E+01           0.17863100E-01
   0.19100000E+01           0.16160400E-01
   0.19200000E+01           0.14486200E-01
   0.19300000E+01           0.12862400E-01
   0.19400000E+01           0.11441100E-01
   0.19500000E+01           0.10091600E-01
   0.19600000E+01           0.88483000E-02
   0.19700000E+01           0.76591000E-02
   0.19800000E+01           0.65414000E-02
   0.19900000E+01           0.55826000E-02
   0.20000000E+01           0.24562000E-02
 #T=    83.0000
  -0.20000000E+01           0.00000000E+00
  -0.19900000E+01           0.00000000E+00
  -0.19800000E+01           0.00000000E+00
  -0.19700000E+01           0.00000000E+00
  -0.19600000E+01           0.00000000E+00
  -0.19500000E+01           0.00000000E+00
  -0.19400000E+01           0.00000000E+00
  -0.19300000E+01           0.00000000E+00
  -0.19200000E+01           0.00000000E+00
  -0.19100000E+01           0.00000000E+00
  -0.19000000E+01           0.00000000E+00
  -0.18900000E+01           0.00000000E+00
  -0.18800000E+01           0.00000000E+00
  -0.18700000E+01           0.00000000E+00
  -0.18600000E+01           0.00000000E+00
  -0.18500000E+01           0.00000000E+00
  -0.18400000E+01           0.00000000E+00
  -0.18300000E+01           0.00000000E+00
  -0.18200000E+01           0.00000000E+00
  -0.18100000E+01           0.00000000E+00
  -0.18000000E+01           0.00000000E+00
  -0.17900000E+01           0.00000000E+00
  -0.17800000E+01           0.00000000E+00
  -0.17700000E+01           0.00000000E+00
  -0.17600000E+01           0.00000000E+00
  -0.17500000E+01           0.00000000E+00
  -0.17400000E+01           0.00000000E+00
  -0.17300000E+01           0.00000000E+00
  -0.17200000E+01           0.00000000E+00
  -0.17100000E+01           0.00000000E+00
  -0.17000000E+01           0.00000000E+00
  -0.16900000E+01           0.00000000E+00
  -0.16800000E+01           0.00000000E+00
  -0.16700000E+01           0.00000000E+00
  -0.16600000E+01           0.00000000E+00
  -0.16500000E+01           0.00000000E+00
  -0.16400000E+01           0.00000000E+00
  -0.16300000E+01           0.00000000E+00
  -0.16200000E+01           0.00000000E+00
  -0.16100000E+01           0.00000000E+00
  -0.16000000E+01           0.00000000E+00
  -0.15900000E+01           0.00000000E+00
  -0.15800000E+01           0.00000000E+00
  -0.15700000E+01           0.00000000E+00
  -0.15600000E+01           0.00000000E+00
  -0.15500000E+01           0.00000000E+00
  -0.15400000E+01           0.00000000E+00
  -0.15300000E+01           0.00000000E+00
  -0.15200000E+01           0.00000000E+00
  -0.15100000E+01           0.00000000E+00
  -0.15000000E+01           0.00000000E+00
  -0.14900000E+01           0.00000000E+00
  -0.14800000E+01           0.00000000E+00
  -0.14700000E+01           0.00000000E+00
  -0.14600000E+01           0.00000000E+00
  -0.14500000E+01           0.00000000E+00
  -0.14400000E+01           0.00000000E+00
  -0.14300000E+01           0.00000000E+00
  -0.14200000E+01           0.00000000E+00
  -0.14100000E+01           0.00000000E+00
  -0.14000000E+01           0.00000000E+00
  -0.13900000E+01           0.00000000E+00
  -0.13800000E+01           0.00000000E+00
  -0.13700000E+01           0.00000000E+00
  -0.13600000E+01           0.00000000E+00
  -0.13500000E+01           0.00000000E+00
  -0.13400000E+01           0.00000000E+00
  -0.13300000E+01           0.00000000E+00
  -0.13200000E+01           0.00000000E+00
  -0.13100000E+01           0.00000000E+00
  -0.13000000E+01           0.00000000E+00
  -0.12900000E+01           0.00000000E+00
  -0.12800000E+01           0.00000000E+00
  -0.12700000E+01           0.00000000E+00
  -0.12600000E+01           0.00000000E+00
  -0.12500000E+01           0.00000000E+00
  -0.12400000E+01           0.00000000E+00
  -0.12300000E+01           0.00000000E+00
  -0.12200000E+01           0.00000000E+00
  -0.12100000E+01           0.00000000E+00
  -0.12000000E+01           0.00000000E+00
  -0.11900000E+01           0.00000000E+00
  -0.11800000E+01           0.00000000E+00
  -0.11700000E+01           0.00000000E+00
  -0.11600000E+01           0.00000000E+00
  -0.11500000E+01           0.00000000E+00
  -0.11400000E+01           0.00000000E+00
  -0.11300000E+01           0.00000000E+00
  -0.11200000E+01           0.00000000E+00
  -0.11100000E+01           0.00000000E+00
  -0.11000000E+01           0.00000000E+00
  -0.10900000E+01           0.00000000E+00
  -0.10800000E+01           0.00000000E+00
  -0.10700000E+01           0.00000000E+00
  -0.10600000E+01           0.00000000E+00
  -0.10500000E+01           0.00000000E+00
  -0.10400000E+01           0.00000000E+00
  -0.10300000E+01           0.00000000E+00
  -0.10200000E+01           0.00000000E+00
  -0.10100000E+01           0.00000000E+00
  -0.10000000E+01           0.00000000E+00
  -0.99000000E+00           0.00000000E+00
  -0.98000000E+00           0.00000000E+00
  -0.97000000E+00           0.00000000E+00
  -0.96000000E+00           0.00000000E+00
  -0.95000000E+00           0.00000000E+00
  -0.94000000E+00           0.00000000E+00
  -0.93000000E+00           0.00000000E+00
  -0.92000000E+00           0.00000000E+00
  -0.91000000E+00           0.00000000E+00
  -0.90000000E+00           0.00000000E+00
  -0.89000000E+00           0.00000000E+00
  -0.88000000E+00           0.00000000E+00
  -0.87000000E+00           0.00000000E+00
  -0.86000000E+00           0.00000000E+00
  -0.85000000E+00           0.00000000E+00
  -0.84000000E+00           0.00000000E+00
  -0.83000000E+00           0.00000000E+00
  -0.82000000E+00           0.00000000E+00
  -0.81000000E+00           0.00000000E+00
  -0.80000000E+00           0.00000000E+00
  -0.79000000E+00           0.00000000E+00
  -0.78000000E+00           0.00000000E+00
  -0.77000000E+00           0.00000000E+00
  -0.76000000E+00           0.00000000E+00
  -0.75000000E+00           0.00000000E+00
  -0.74000000E+00           0.00000000E+00
  -0.73000000E+00           0.00000000E+00
  -0.72000000E+00           0.00000000E+00
  -0.71000000E+00           0.00000000E+00
  -0.70000000E+00           0.00000000E+00
  -0.69000000E+00           0.00000000E+00
  -0.68000000E+00           0.00000000E+00
  -0.67000000E+00           0.00000000E+00
  -0.66000000E+00           0.00000000E+00
  -0.65000000E+00           0.00000000E+00
  -0.64000000E+00           0.00000000E+00
  -0.63000000E+00           0.00000000E+00
  -0.62000000E+00           0.00000000E+00
  -0.61000000E+00           0.00000000E+00
  -0.60000000E+00           0.00000000E+00
  -0.59000000E+00           0.00000000E+00
  -0.58000000E+00           0.00000000E+00
  -0.57000000E+00           0.00000000E+00
  -0.56000000E+00           0.00000000E+00
  -0.55000000E+00           0.00000000E+00
  -0.54000000E+00           0.00000000E+00
  -0.53000000E+00           0.00000000E+00
  -0.52000000E+00           0.00000000E+00
  -0.51000000E+00           0.00000000E+00
  -0.50000000E+00           0.00000000E+00
  -0.49000000E+00           0.00000000E+00
  -0.48000000E+00           0.00000000E+00
  -0.47000000E+00           0.00000000E+00
  -0.46000000E+00           0.00000000E+00
  -0.45000000E+00           0.00000000E+00
  -0.44000000E+00           0.00000000E+00
  -0.43000000E+00           0.00000000E+00
  -0.42000000E+00           0.00000000E+00
  -0.41000000E+00           0.00000000E+00
  -0.40000000E+00           0.00000000E+00
  -0.39000000E+00           0.00000000E+00
  -0.38000000E+00           0.00000000E+00
  -0.37000000E+00           0.00000000E+00
  -0.36000000E+00           0.00000000E+00
  -0.35000000E+00           0.00000000E+00
  -0.34000000E+00           0.00000000E+00
  -0.33000000E+00           0.00000000E+00
  -0.32000000E+00           0.00000000E+00
  -0.31000000E+00           0.00000000E+00
  -0.30000000E+00           0.00000000E+00
  -0.29000000E+00           0.00000000E+00
  -0.28000000E+00           0.00000000E+00
  -0.27000000E+00           0.00000000E+00
  -0.26000000E+00           0.00000000E+00
  -0.25000000E+00           0.00000000E+00
  -0.24000000E+00           0.00000000E+00
  -0.23000000E+00           0.00000000E+00
  -0.22000000E+00           0.00000000E+00
  -0.21000000E+00           0.00000000E+00
  -0.20000000E+00           0.00000000E+00
  -0.19000000E+00           0.00000000E+00
  -0.18000000E+00           0.00000000E+00
  -0.17000000E+00           0.00000000E+00
  -0.16000000E+00           0.00000000E+00
  -0.15000000E+00           0.00000000E+00
  -0.14000000E+00           0.00000000E+00
  -0.13000000E+00           0.00000000E+00
  -0.12000000E+00           0.00000000E+00
  -0.11000000E+00           0.00000000E+00
  -0.10000000E+00           0.00000000E+00
  -0.90000000E-01           0.00000000E+00
  -0.80000000E-01           0.00000000E+00
  -0.70000000E-01           0.00000000E+00
  -0.60000000E-01           0.00000000E+00
  -0.50000000E-01           0.00000000E+00
  -0.40000000E-01           0.00000000E+00
  -0.30000000E-01           0.00000000E+00
  -0.20000000E-01           0.00000000E+00
  -0.10000000E-01           0.00000000E+00
   0.00000000E+00           0.28731000E-02
   0.10000000E-01           0.23116200E-01
   0.20000000E-01           0.46227500E-01
   0.30000000E-01           0.69229000E-01
   0.40000000E-01           0.92224400E-01
   0.50000000E-01           0.11532570E+00
   0.60000000E-01           0.13829340E+00
   0.70000000E-01           0.16097590E+00
   0.80000000E-01           0.18343040E+00
   0.90000000E-01           0.20614050E+00
   0.10000000E+00           0.22900410E+00
   0.11000000E+00           0.25073780E+00
   0.12000000E+00           0.27337510E+00
   0.13000000E+00           0.29525490E+00
   0.14000000E+00           0.31724790E+00
   0.15000000E+00           0.33892160E+00
   0.16000000E+00           0.36005430E+00
   0.17000000E+00           0.38155970E+00
   0.18000000E+00           0.40250230E+00
   0.19000000E+00           0.42355550E+00
   0.20000000E+00           0.44313930E+00
   0.21000000E+00           0.46402780E+00
   0.22000000E+00           0.48390340E+00
   0.23000000E+00           0.50365380E+00
   0.24000000E+00           0.52294350E+00
   0.25000000E+00           0.54238210E+00
   0.26000000E+00           0.56114610E+00
   0.27000000E+00           0.57925840E+00
   0.28000000E+00           0.59742260E+00
   0.29000000E+00           0.61530400E+00
   0.30000000E+00           0.63234440E+00
   0.31000000E+00           0.64943350E+00
   0.32000000E+00           0.66587980E+00
   0.33000000E+00           0.68256080E+00
   0.34000000E+00           0.69823050E+00
   0.35000000E+00           0.71409470E+00
   0.36000000E+00           0.72881810E+00
   0.37000000E+00           0.74259890E+00
   0.38000000E+00           0.75767060E+00
   0.39000000E+00           0.77102380E+00
   0.40000000E+00           0.78410870E+00
   0.41000000E+00           0.79757320E+00
   0.42000000E+00           0.80976830E+00
   0.43000000E+00           0.82167400E+00
   0.44000000E+00           0.83326140E+00
   0.45000000E+00           0.84386860E+00
   0.46000000E+00           0.85481810E+00
   0.47000000E+00           0.86501970E+00
   0.48000000E+00           0.87500880E+00
   0.49000000E+00           0.88393830E+00
   0.50000000E+00           0.89258490E+00
   0.51000000E+00           0.90141010E+00
   0.52000000E+00           0.90805290E+00
   0.53000000E+00           0.91636750E+00
   0.54000000E+00           0.92247780E+00
   0.55000000E+00           0.92919640E+00
   0.56000000E+00           0.93437610E+00
   0.57000000E+00           0.94052040E+00
   0.58000000E+00           0.94570500E+00
   0.59000000E+00           0.95002190E+00
   0.60000000E+00           0.95362620E+00
   0.61000000E+00           0.95719840E+00
   0.62000000E+00           0.96052670E+00
   0.63000000E+00           0.96257100E+00
   0.64000000E+00           0.96492100E+00
   0.65000000E+00           0.96657460E+00
   0.66000000E+00           0.96801640E+00
   0.67000000E+00           0.96849810E+00
   0.68000000E+00           0.96819730E+00
   0.69000000E+00           0.96842350E+00
   0.70000000E+00           0.96733300E+00
   0.71000000E+00           0.96626570E+00
   0.72000000E+00           0.96560770E+00
   0.73000000E+00           0.96357890E+00
   0.74000000E+00           0.96109200E+00
   0.75000000E+00           0.95842650E+00
   0.76000000E+00           0.95516790E+00
   0.77000000E+00           0.95164560E+00
   0.78000000E+00           0.94668990E+00
   0.79000000E+00           0.94371470E+00
   0.80000000E+00           0.93814160E+00
   0.81000000E+00           0.93317500E+00
   0.82000000E+00           0.92747330E+00
   0.83000000E+00           0.92232900E+00
   0.84000000E+00           0.91532820E+00
   0.85000000E+00           0.90983770E+00
   0.86000000E+00           0.90234130E+00
   0.87000000E+00           0.89487630E+00
   0.88000000E+00           0.88829280E+00
   0.89000000E+00           0.87960220E+00
   0.90000000E+00           0.87273720E+00
   0.91000000E+00           0.86410840E+00
   0.92000000E+00           0.85506540E+00
   0.93000000E+00           0.84662300E+00
   0.94000000E+00           0.83747100E+00
   0.95000000E+00           0.82843270E+00
   0.96000000E+00           0.81896320E+00
   0.97000000E+00           0.80902730E+00
   0.98000000E+00           0.79902620E+00
   0.99000000E+00           0.78957770E+00
   0.10000000E+01           0.77847000E+00
   0.10100000E+01           0.76764690E+00
   0.10200000E+01           0.75783960E+00
   0.10300000E+01           0.74632060E+00
   0.10400000E+01           0.73578010E+00
   0.10500000E+01           0.72434310E+00
   0.10600000E+01           0.71308920E+00
   0.10700000E+01           0.70171190E+00
   0.10800000E+01           0.69014610E+00
   0.10900000E+01           0.67820520E+00
   0.11000000E+01           0.66687050E+00
   0.11100000E+01           0.65473060E+00
   0.11200000E+01           0.64312990E+00
   0.11300000E+01           0.63079780E+00
   0.11400000E+01           0.61904890E+00
   0.11500000E+01           0.60739390E+00
   0.11600000E+01           0.59532170E+00
   0.11700000E+01           0.58309230E+00
   0.11800000E+01           0.57129260E+00
   0.11900000E+01           0.55933830E+00
   0.12000000E+01           0.54693960E+00
   0.12100000E+01           0.53469580E+00
   0.12200000E+01           0.52302620E+00
   0.12300000E+01           0.51088340E+00
   0.12400000E+01           0.49919100E+00
   0.12500000E+01           0.48702600E+00
   0.12600000E+01           0.47537040E+00
   0.12700000E+01           0.46361090E+00
   0.12800000E+01           0.45188810E+00
   0.12900000E+01           0.44001610E+00
   0.13000000E+01           0.42893220E+00
   0.13100000E+01           0.41744940E+00
   0.13200000E+01           0.40591820E+00
   0.13300000E+01           0.39432600E+00
   0.13400000E+01           0.38327490E+00
   0.13500000E+01           0.37196640E+00
   0.13600000E+01           0.36148650E+00
   0.13700000E+01           0.35071480E+00
   0.13800000E+01           0.33946920E+00
   0.13900000E+01           0.32926230E+00
   0.14000000E+01           0.31871600E+00
   0.14100000E+01           0.30882930E+00
   0.14200000E+01           0.29892100E+00
   0.14300000E+01           0.28871490E+00
   0.14400000E+01           0.27910450E+00
   0.14500000E+01           0.26927070E+00
   0.14600000E+01           0.25998940E+00
   0.14700000E+01           0.25083630E+00
   0.14800000E+01           0.24164120E+00
   0.14900000E+01           0.23254800E+00
   0.15000000E+01           0.22381490E+00
   0.15100000E+01           0.21527100E+00
   0.15200000E+01           0.20692490E+00
   0.15300000E+01           0.19850020E+00
   0.15400000E+01           0.19064940E+00
   0.15500000E+01           0.18255050E+00
   0.15600000E+01           0.17505410E+00
   0.15700000E+01           0.16758190E+00
   0.15800000E+01           0.16036460E+00
   0.15900000E+01           0.15324450E+00
   0.16000000E+01           0.14648030E+00
   0.16100000E+01           0.13967620E+00
   0.16200000E+01           0.13310700E+00
   0.16300000E+01           0.12668270E+00
   0.16400000E+01           0.12052940E+00
   0.16500000E+01           0.11447940E+00
   0.16600000E+01           0.10850540E+00
   0.16700000E+01           0.10309130E+00
   0.16800000E+01           0.97717100E-01
   0.16900000E+01           0.92480400E-01
   0.17000000E+01           0.87221500E-01
   0.17100000E+01           0.82362000E-01
   0.17200000E+01           0.77725300E-01
   0.17300000E+01           0.73087100E-01
   0.17400000E+01           0.68678100E-01
   0.17500000E+01           0.64516500E-01
   0.17600000E+01           0.60397300E-01
   0.17700000E+01           0.56521000E-01
   0.17800000E+01           0.52961400E-01
   0.17900000E+01           0.49413700E-01
   0.18000000E+01           0.45776200E-01
   0.18100000E+01           0.42539700E-01
   0.18200000E+01           0.39491200E-01
   0.18300000E+01           0.36494700E-01
   0.18400000E+01           0.33845000E-01
   0.18500000E+01           0.31010300E-01
   0.18600000E+01           0.28622100E-01
   0.18700000E+01           0.26034600E-01
   0.18800000E+01           0.23828300E-01
   0.18900000E+01           0.21718500E-01
   0.19000000E+01           0.19616900E-01
   0.19100000E+01           0.17791600E-01
   0.19200000E+01           0.15859700E-01
   0.19300000E+01           0.14241000E-01
   0.19400000E+01           0.12765000E-01
   0.19500000E+01           0.11228500E-01
   0.19600000E+01           0.98210000E-02
   0.19700000E+01           0.85188000E-02
   0.19800000E+01           0.74026000E-02
   0.19900000E+01           0.62981000E-02
   0.20000000E+01           0.27771000E-02
 #T=    84.0000
  -0.20000000E+01           0.00000000E+00
  -0.19900000E+01           0.00000000E+00
  -0.19800000E+01           0.00000000E+00
  -0.19700000E+01           0.00000000E+00
  -0.19600000E+01           0.00000000E+00
  -0.19500000E+01           0.00000000E+00
  -0.19400000E+01           0.00000000E+00
  -0.19300000E+01           0.00000000E+00
  -0.19200000E+01           0.00000000E+00
  -0.19100000E+01           0.00000000E+00
  -0.19000000E+01           0.00000000E+00
  -0.18900000E+01           0.00000000E+00
  -0.18800000E+01           0.00000000E+00
  -0.18700000E+01           0.00000000E+00
  -0.18600000E+01           0.00000000E+00
  -0.18500000E+01           0.00000000E+00
  -0.18400000E+01           0.00000000E+00
  -0.18300000E+01           0.00000000E+00
  -0.18200000E+01           0.00000000E+00
  -0.18100000E+01           0.00000000E+00
  -0.18000000E+01           0.00000000E+00
  -0.17900000E+01           0.00000000E+00
  -0.17800000E+01           0.00000000E+00
  -0.17700000E+01           0.00000000E+00
  -0.17600000E+01           0.00000000E+00
  -0.17500000E+01           0.00000000E+00
  -0.17400000E+01           0.00000000E+00
  -0.17300000E+01           0.00000000E+00
  -0.17200000E+01           0.00000000E+00
  -0.17100000E+01           0.00000000E+00
  -0.17000000E+01           0.00000000E+00
  -0.16900000E+01           0.00000000E+00
  -0.16800000E+01           0.00000000E+00
  -0.16700000E+01           0.00000000E+00
  -0.16600000E+01           0.00000000E+00
  -0.16500000E+01           0.00000000E+00
  -0.16400000E+01           0.00000000E+00
  -0.16300000E+01           0.00000000E+00
  -0.16200000E+01           0.00000000E+00
  -0.16100000E+01           0.00000000E+00
  -0.16000000E+01           0.00000000E+00
  -0.15900000E+01           0.00000000E+00
  -0.15800000E+01           0.00000000E+00
  -0.15700000E+01           0.00000000E+00
  -0.15600000E+01           0.00000000E+00
  -0.15500000E+01           0.00000000E+00
  -0.15400000E+01           0.00000000E+00
  -0.15300000E+01           0.00000000E+00
  -0.15200000E+01           0.00000000E+00
  -0.15100000E+01           0.00000000E+00
  -0.15000000E+01           0.00000000E+00
  -0.14900000E+01           0.00000000E+00
  -0.14800000E+01           0.00000000E+00
  -0.14700000E+01           0.00000000E+00
  -0.14600000E+01           0.00000000E+00
  -0.14500000E+01           0.00000000E+00
  -0.14400000E+01           0.00000000E+00
  -0.14300000E+01           0.00000000E+00
  -0.14200000E+01           0.00000000E+00
  -0.14100000E+01           0.00000000E+00
  -0.14000000E+01           0.00000000E+00
  -0.13900000E+01           0.00000000E+00
  -0.13800000E+01           0.00000000E+00
  -0.13700000E+01           0.00000000E+00
  -0.13600000E+01           0.00000000E+00
  -0.13500000E+01           0.00000000E+00
  -0.13400000E+01           0.00000000E+00
  -0.13300000E+01           0.00000000E+00
  -0.13200000E+01           0.00000000E+00
  -0.13100000E+01           0.00000000E+00
  -0.13000000E+01           0.00000000E+00
  -0.12900000E+01           0.00000000E+00
  -0.12800000E+01           0.00000000E+00
  -0.12700000E+01           0.00000000E+00
  -0.12600000E+01           0.00000000E+00
  -0.12500000E+01           0.00000000E+00
  -0.12400000E+01           0.00000000E+00
  -0.12300000E+01           0.00000000E+00
  -0.12200000E+01           0.00000000E+00
  -0.12100000E+01           0.00000000E+00
  -0.12000000E+01           0.00000000E+00
  -0.11900000E+01           0.00000000E+00
  -0.11800000E+01           0.00000000E+00
  -0.11700000E+01           0.00000000E+00
  -0.11600000E+01           0.00000000E+00
  -0.11500000E+01           0.00000000E+00
  -0.11400000E+01           0.00000000E+00
  -0.11300000E+01           0.00000000E+00
  -0.11200000E+01           0.00000000E+00
  -0.11100000E+01           0.00000000E+00
  -0.11000000E+01           0.00000000E+00
  -0.10900000E+01           0.00000000E+00
  -0.10800000E+01           0.00000000E+00
  -0.10700000E+01           0.00000000E+00
  -0.10600000E+01           0.00000000E+00
  -0.10500000E+01           0.00000000E+00
  -0.10400000E+01           0.00000000E+00
  -0.10300000E+01           0.00000000E+00
  -0.10200000E+01           0.00000000E+00
  -0.10100000E+01           0.00000000E+00
  -0.10000000E+01           0.00000000E+00
  -0.99000000E+00           0.00000000E+00
  -0.98000000E+00           0.00000000E+00
  -0.97000000E+00           0.00000000E+00
  -0.96000000E+00           0.00000000E+00
  -0.95000000E+00           0.00000000E+00
  -0.94000000E+00           0.00000000E+00
  -0.93000000E+00           0.00000000E+00
  -0.92000000E+00           0.00000000E+00
  -0.91000000E+00           0.00000000E+00
  -0.90000000E+00           0.00000000E+00
  -0.89000000E+00           0.00000000E+00
  -0.88000000E+00           0.00000000E+00
  -0.87000000E+00           0.00000000E+00
  -0.86000000E+00           0.00000000E+00
  -0.85000000E+00           0.00000000E+00
  -0.84000000E+00           0.00000000E+00
  -0.83000000E+00           0.00000000E+00
  -0.82000000E+00           0.00000000E+00
  -0.81000000E+00           0.00000000E+00
  -0.80000000E+00           0.00000000E+00
  -0.79000000E+00           0.00000000E+00
  -0.78000000E+00           0.00000000E+00
  -0.77000000E+00           0.00000000E+00
  -0.76000000E+00           0.00000000E+00
  -0.75000000E+00           0.00000000E+00
  -0.74000000E+00           0.00000000E+00
  -0.73000000E+00           0.00000000E+00
  -0.72000000E+00           0.00000000E+00
  -0.71000000E+00           0.00000000E+00
  -0.70000000E+00           0.00000000E+00
  -0.69000000E+00           0.00000000E+00
  -0.68000000E+00           0.00000000E+00
  -0.67000000E+00           0.00000000E+00
  -0.66000000E+00           0.00000000E+00
  -0.65000000E+00           0.00000000E+00
  -0.64000000E+00           0.00000000E+00
  -0.63000000E+00           0.00000000E+00
  -0.62000000E+00           0.00000000E+00
  -0.61000000E+00           0.00000000E+00
  -0.60000000E+00           0.00000000E+00
  -0.59000000E+00           0.00000000E+00
  -0.58000000E+00           0.00000000E+00
  -0.57000000E+00           0.00000000E+00
  -0.56000000E+00           0.00000000E+00
  -0.55000000E+00           0.00000000E+00
  -0.54000000E+00           0.00000000E+00
  -0.53000000E+00           0.00000000E+00
  -0.52000000E+00           0.00000000E+00
  -0.51000000E+00           0.00000000E+00
  -0.50000000E+00           0.00000000E+00
  -0.49000000E+00           0.00000000E+00
  -0.48000000E+00           0.00000000E+00
  -0.47000000E+00           0.00000000E+00
  -0.46000000E+00           0.00000000E+00
  -0.45000000E+00           0.00000000E+00
  -0.44000000E+00           0.00000000E+00
  -0.43000000E+00           0.00000000E+00
  -0.42000000E+00           0.00000000E+00
  -0.41000000E+00           0.00000000E+00
  -0.40000000E+00           0.00000000E+00
  -0.39000000E+00           0.00000000E+00
  -0.38000000E+00           0.00000000E+00
  -0.37000000E+00           0.00000000E+00
  -0.36000000E+00           0.00000000E+00
  -0.35000000E+00           0.00000000E+00
  -0.34000000E+00           0.00000000E+00
  -0.33000000E+00           0.00000000E+00
  -0.32000000E+00           0.00000000E+00
  -0.31000000E+00           0.00000000E+00
  -0.30000000E+00           0.00000000E+00
  -0.29000000E+00           0.00000000E+00
  -0.28000000E+00           0.00000000E+00
  -0.27000000E+00           0.00000000E+00
  -0.26000000E+00           0.00000000E+00
  -0.25000000E+00           0.00000000E+00
  -0.24000000E+00           0.00000000E+00
  -0.23000000E+00           0.00000000E+00
  -0.22000000E+00           0.00000000E+00
  -0.21000000E+00           0.00000000E+00
  -0.20000000E+00           0.00000000E+00
  -0.19000000E+00           0.00000000E+00
  -0.18000000E+00           0.00000000E+00
  -0.17000000E+00           0.00000000E+00
  -0.16000000E+00           0.00000000E+00
  -0.15000000E+00           0.00000000E+00
  -0.14000000E+00           0.00000000E+00
  -0.13000000E+00           0.00000000E+00
  -0.12000000E+00           0.00000000E+00
  -0.11000000E+00           0.00000000E+00
  -0.10000000E+00           0.00000000E+00
  -0.90000000E-01           0.00000000E+00
  -0.80000000E-01           0.00000000E+00
  -0.70000000E-01           0.00000000E+00
  -0.60000000E-01           0.00000000E+00
  -0.50000000E-01           0.00000000E+00
  -0.40000000E-01           0.00000000E+00
  -0.30000000E-01           0.00000000E+00
  -0.20000000E-01           0.00000000E+00
  -0.10000000E-01           0.00000000E+00
   0.00000000E+00           0.27936000E-02
   0.10000000E-01           0.22796600E-01
   0.20000000E-01           0.45471300E-01
   0.30000000E-01           0.68351900E-01
   0.40000000E-01           0.90859000E-01
   0.50000000E-01           0.11342670E+00
   0.60000000E-01           0.13606920E+00
   0.70000000E-01           0.15832610E+00
   0.80000000E-01           0.18073500E+00
   0.90000000E-01           0.20297400E+00
   0.10000000E+00           0.22523320E+00
   0.11000000E+00           0.24718090E+00
   0.12000000E+00           0.26879380E+00
   0.13000000E+00           0.29036970E+00
   0.14000000E+00           0.31235820E+00
   0.15000000E+00           0.33346900E+00
   0.16000000E+00           0.35452030E+00
   0.17000000E+00           0.37576840E+00
   0.18000000E+00           0.39633720E+00
   0.19000000E+00           0.41656630E+00
   0.20000000E+00           0.43742950E+00
   0.21000000E+00           0.45693030E+00
   0.22000000E+00           0.47600360E+00
   0.23000000E+00           0.49597340E+00
   0.24000000E+00           0.51531480E+00
   0.25000000E+00           0.53413590E+00
   0.26000000E+00           0.55205690E+00
   0.27000000E+00           0.57051230E+00
   0.28000000E+00           0.58891190E+00
   0.29000000E+00           0.60588290E+00
   0.30000000E+00           0.62255180E+00
   0.31000000E+00           0.64033250E+00
   0.32000000E+00           0.65643570E+00
   0.33000000E+00           0.67300790E+00
   0.34000000E+00           0.68844510E+00
   0.35000000E+00           0.70386260E+00
   0.36000000E+00           0.71855360E+00
   0.37000000E+00           0.73302460E+00
   0.38000000E+00           0.74740360E+00
   0.39000000E+00           0.76101610E+00
   0.40000000E+00           0.77438640E+00
   0.41000000E+00           0.78716310E+00
   0.42000000E+00           0.79980470E+00
   0.43000000E+00           0.81085750E+00
   0.44000000E+00           0.82241600E+00
   0.45000000E+00           0.83382070E+00
   0.46000000E+00           0.84532830E+00
   0.47000000E+00           0.85441110E+00
   0.48000000E+00           0.86484970E+00
   0.49000000E+00           0.87406050E+00
[...]
   0.13800000E+01           0.69139050E+00
   0.13900000E+01           0.69553370E+00
   0.14000000E+01           0.70076780E+00
   0.14100000E+01           0.70485570E+00
   0.14200000E+01           0.70937820E+00
   0.14300000E+01           0.71371720E+00
   0.14400000E+01           0.71799850E+00
   0.14500000E+01           0.72231040E+00
   0.14600000E+01           0.72665330E+00
   0.14700000E+01           0.73130300E+00
   0.14800000E+01           0.73538520E+00
   0.14900000E+01           0.73964610E+00
   0.15000000E+01           0.74418020E+00
   0.15100000E+01           0.74845390E+00
   0.15200000E+01           0.75233650E+00
   0.15300000E+01           0.75655620E+00
   0.15400000E+01           0.76128040E+00
   0.15500000E+01           0.76529800E+00
   0.15600000E+01           0.76945590E+00
   0.15700000E+01           0.77373560E+00
   0.15800000E+01           0.77782040E+00
   0.15900000E+01           0.78260500E+00
   0.16000000E+01           0.78630670E+00
   0.16100000E+01           0.79046300E+00
   0.16200000E+01           0.79408720E+00
   0.16300000E+01           0.79841190E+00
   0.16400000E+01           0.80288420E+00
   0.16500000E+01           0.80688470E+00
   0.16600000E+01           0.81098430E+00
   0.16700000E+01           0.81538480E+00
   0.16800000E+01           0.81890830E+00
   0.16900000E+01           0.82294840E+00
   0.17000000E+01           0.82752220E+00
   0.17100000E+01           0.83147640E+00
   0.17200000E+01           0.83563920E+00
   0.17300000E+01           0.83881250E+00
   0.17400000E+01           0.84323420E+00
   0.17500000E+01           0.84749800E+00
   0.17600000E+01           0.85090350E+00
   0.17700000E+01           0.85552160E+00
   0.17800000E+01           0.85876310E+00
   0.17900000E+01           0.86291810E+00
   0.18000000E+01           0.86708610E+00
   0.18100000E+01           0.86977530E+00
   0.18200000E+01           0.87444340E+00
   0.18300000E+01           0.87805800E+00
   0.18400000E+01           0.88205110E+00
   0.18500000E+01           0.88600730E+00
   0.18600000E+01           0.88980400E+00
   0.18700000E+01           0.89311880E+00
   0.18800000E+01           0.89690600E+00
   0.18900000E+01           0.90086710E+00
   0.19000000E+01           0.90440370E+00
   0.19100000E+01           0.90805240E+00
   0.19200000E+01           0.91240850E+00
   0.19300000E+01           0.91532800E+00
   0.19400000E+01           0.91897260E+00
   0.19500000E+01           0.92310220E+00
   0.19600000E+01           0.92702350E+00
   0.19700000E+01           0.93018040E+00
   0.19800000E+01           0.93410010E+00
   0.19900000E+01           0.93742570E+00
   0.20000000E+01           0.46981080E+00
 #T=   179.0000
  -0.20000000E+01           0.00000000E+00
  -0.19900000E+01           0.00000000E+00
  -0.19800000E+01           0.00000000E+00
  -0.19700000E+01           0.00000000E+00
  -0.19600000E+01           0.00000000E+00
  -0.19500000E+01           0.00000000E+00
  -0.19400000E+01           0.00000000E+00
  -0.19300000E+01           0.00000000E+00
  -0.19200000E+01           0.00000000E+00
  -0.19100000E+01           0.00000000E+00
  -0.19000000E+01           0.00000000E+00
  -0.18900000E+01           0.00000000E+00
  -0.18800000E+01           0.00000000E+00
  -0.18700000E+01           0.00000000E+00
  -0.18600000E+01           0.00000000E+00
  -0.18500000E+01           0.00000000E+00
  -0.18400000E+01           0.00000000E+00
  -0.18300000E+01           0.00000000E+00
  -0.18200000E+01           0.00000000E+00
  -0.18100000E+01           0.00000000E+00
  -0.18000000E+01           0.00000000E+00
  -0.17900000E+01           0.00000000E+00
  -0.17800000E+01           0.00000000E+00
  -0.17700000E+01           0.00000000E+00
  -0.17600000E+01           0.00000000E+00
  -0.17500000E+01           0.00000000E+00
  -0.17400000E+01           0.00000000E+00
  -0.17300000E+01           0.00000000E+00
  -0.17200000E+01           0.00000000E+00
  -0.17100000E+01           0.00000000E+00
  -0.17000000E+01           0.00000000E+00
  -0.16900000E+01           0.00000000E+00
  -0.16800000E+01           0.00000000E+00
  -0.16700000E+01           0.00000000E+00
  -0.16600000E+01           0.00000000E+00
  -0.16500000E+01           0.00000000E+00
  -0.16400000E+01           0.00000000E+00
  -0.16300000E+01           0.00000000E+00
  -0.16200000E+01           0.00000000E+00
  -0.16100000E+01           0.00000000E+00
  -0.16000000E+01           0.00000000E+00
  -0.15900000E+01           0.00000000E+00
  -0.15800000E+01           0.00000000E+00
  -0.15700000E+01           0.00000000E+00
  -0.15600000E+01           0.00000000E+00
  -0.15500000E+01           0.00000000E+00
  -0.15400000E+01           0.00000000E+00
  -0.15300000E+01           0.00000000E+00
  -0.15200000E+01           0.00000000E+00
  -0.15100000E+01           0.00000000E+00
  -0.15000000E+01           0.00000000E+00
  -0.14900000E+01           0.00000000E+00
  -0.14800000E+01           0.00000000E+00
  -0.14700000E+01           0.00000000E+00
  -0.14600000E+01           0.00000000E+00
  -0.14500000E+01           0.00000000E+00
  -0.14400000E+01           0.00000000E+00
  -0.14300000E+01           0.00000000E+00
  -0.14200000E+01           0.00000000E+00
  -0.14100000E+01           0.00000000E+00
  -0.14000000E+01           0.00000000E+00
  -0.13900000E+01           0.00000000E+00
  -0.13800000E+01           0.00000000E+00
  -0.13700000E+01           0.00000000E+00
  -0.13600000E+01           0.00000000E+00
  -0.13500000E+01           0.00000000E+00
  -0.13400000E+01           0.00000000E+00
  -0.13300000E+01           0.00000000E+00
  -0.13200000E+01           0.00000000E+00
  -0.13100000E+01           0.00000000E+00
  -0.13000000E+01           0.00000000E+00
  -0.12900000E+01           0.00000000E+00
  -0.12800000E+01           0.00000000E+00
  -0.12700000E+01           0.00000000E+00
  -0.12600000E+01           0.00000000E+00
  -0.12500000E+01           0.00000000E+00
  -0.12400000E+01           0.00000000E+00
  -0.12300000E+01           0.00000000E+00
  -0.12200000E+01           0.00000000E+00
  -0.12100000E+01           0.00000000E+00
  -0.12000000E+01           0.00000000E+00
  -0.11900000E+01           0.00000000E+00
  -0.11800000E+01           0.00000000E+00
  -0.11700000E+01           0.00000000E+00
  -0.11600000E+01           0.00000000E+00
  -0.11500000E+01           0.00000000E+00
  -0.11400000E+01           0.00000000E+00
  -0.11300000E+01           0.00000000E+00
  -0.11200000E+01           0.00000000E+00
  -0.11100000E+01           0.00000000E+00
  -0.11000000E+01           0.00000000E+00
  -0.10900000E+01           0.00000000E+00
  -0.10800000E+01           0.00000000E+00
  -0.10700000E+01           0.00000000E+00
  -0.10600000E+01           0.00000000E+00
  -0.10500000E+01           0.00000000E+00
  -0.10400000E+01           0.00000000E+00
  -0.10300000E+01           0.00000000E+00
  -0.10200000E+01           0.00000000E+00
  -0.10100000E+01           0.00000000E+00
  -0.10000000E+01           0.00000000E+00
  -0.99000000E+00           0.00000000E+00
  -0.98000000E+00           0.00000000E+00
  -0.97000000E+00           0.00000000E+00
  -0.96000000E+00           0.00000000E+00
  -0.95000000E+00           0.00000000E+00
  -0.94000000E+00           0.00000000E+00
  -0.93000000E+00           0.00000000E+00
  -0.92000000E+00           0.00000000E+00
  -0.91000000E+00           0.00000000E+00
  -0.90000000E+00           0.00000000E+00
  -0.89000000E+00           0.00000000E+00
  -0.88000000E+00           0.00000000E+00
  -0.87000000E+00           0.00000000E+00
  -0.86000000E+00           0.00000000E+00
  -0.85000000E+00           0.00000000E+00
  -0.84000000E+00           0.00000000E+00
  -0.83000000E+00           0.00000000E+00
  -0.82000000E+00           0.00000000E+00
  -0.81000000E+00           0.00000000E+00
  -0.80000000E+00           0.00000000E+00
  -0.79000000E+00           0.00000000E+00
  -0.78000000E+00           0.00000000E+00
  -0.77000000E+00           0.00000000E+00
  -0.76000000E+00           0.00000000E+00
  -0.75000000E+00           0.00000000E+00
  -0.74000000E+00           0.00000000E+00
  -0.73000000E+00           0.00000000E+00
  -0.72000000E+00           0.00000000E+00
  -0.71000000E+00           0.00000000E+00
  -0.70000000E+00           0.00000000E+00
  -0.69000000E+00           0.00000000E+00
  -0.68000000E+00           0.00000000E+00
  -0.67000000E+00           0.00000000E+00
  -0.66000000E+00           0.00000000E+00
  -0.65000000E+00           0.00000000E+00
  -0.64000000E+00           0.00000000E+00
  -0.63000000E+00           0.00000000E+00
  -0.62000000E+00           0.00000000E+00
  -0.61000000E+00           0.00000000E+00
  -0.60000000E+00           0.00000000E+00
  -0.59000000E+00           0.00000000E+00
  -0.58000000E+00           0.00000000E+00
  -0.57000000E+00           0.00000000E+00
  -0.56000000E+00           0.00000000E+00
  -0.55000000E+00           0.00000000E+00
  -0.54000000E+00           0.00000000E+00
  -0.53000000E+00           0.00000000E+00
  -0.52000000E+00           0.00000000E+00
  -0.51000000E+00           0.00000000E+00
  -0.50000000E+00           0.00000000E+00
  -0.49000000E+00           0.00000000E+00
  -0.48000000E+00           0.00000000E+00
  -0.47000000E+00           0.00000000E+00
  -0.46000000E+00           0.00000000E+00
  -0.45000000E+00           0.00000000E+00
  -0.44000000E+00           0.00000000E+00
  -0.43000000E+00           0.00000000E+00
  -0.42000000E+00           0.00000000E+00
  -0.41000000E+00           0.00000000E+00
  -0.40000000E+00           0.00000000E+00
  -0.39000000E+00           0.00000000E+00
  -0.38000000E+00           0.00000000E+00
  -0.37000000E+00           0.00000000E+00
  -0.36000000E+00           0.00000000E+00
  -0.35000000E+00           0.00000000E+00
  -0.34000000E+00           0.00000000E+00
  -0.33000000E+00           0.00000000E+00
  -0.32000000E+00           0.00000000E+00
  -0.31000000E+00           0.00000000E+00
  -0.30000000E+00           0.00000000E+00
  -0.29000000E+00           0.00000000E+00
  -0.28000000E+00           0.00000000E+00
  -0.27000000E+00           0.00000000E+00
  -0.26000000E+00           0.00000000E+00
  -0.25000000E+00           0.00000000E+00
  -0.24000000E+00           0.00000000E+00
  -0.23000000E+00           0.00000000E+00
  -0.22000000E+00           0.00000000E+00
  -0.21000000E+00           0.00000000E+00
  -0.20000000E+00           0.00000000E+00
  -0.19000000E+00           0.00000000E+00
  -0.18000000E+00           0.00000000E+00
  -0.17000000E+00           0.00000000E+00
  -0.16000000E+00           0.00000000E+00
  -0.15000000E+00           0.00000000E+00
  -0.14000000E+00           0.00000000E+00
  -0.13000000E+00           0.00000000E+00
  -0.12000000E+00           0.00000000E+00
  -0.11000000E+00           0.00000000E+00
  -0.10000000E+00           0.00000000E+00
  -0.90000000E-01           0.00000000E+00
  -0.80000000E-01           0.00000000E+00
  -0.70000000E-01           0.00000000E+00
  -0.60000000E-01           0.00000000E+00
  -0.50000000E-01           0.00000000E+00
  -0.40000000E-01           0.00000000E+00
  -0.30000000E-01           0.00000000E+00
  -0.20000000E-01           0.00000000E+00
  -0.10000000E-01           0.00000000E+00
   0.00000000E+00           0.65000000E-03
   0.10000000E-01           0.53612000E-02
   0.20000000E-01           0.10582900E-01
   0.30000000E-01           0.15890500E-01
   0.40000000E-01           0.21149000E-01
   0.50000000E-01           0.26512000E-01
   0.60000000E-01           0.31740700E-01
   0.70000000E-01           0.37077200E-01
   0.80000000E-01           0.42423500E-01
   0.90000000E-01           0.47548300E-01
   0.10000000E+00           0.52991500E-01
   0.11000000E+00           0.58149900E-01
   0.12000000E+00           0.63568000E-01
   0.13000000E+00           0.68777000E-01
   0.14000000E+00           0.74287600E-01
   0.15000000E+00           0.79486100E-01
   0.16000000E+00           0.84707800E-01
   0.17000000E+00           0.89993600E-01
   0.18000000E+00           0.95397300E-01
   0.19000000E+00           0.10031820E+00
   0.20000000E+00           0.10577170E+00
   0.21000000E+00           0.11098380E+00
   0.22000000E+00           0.11631350E+00
   0.23000000E+00           0.12159760E+00
   0.24000000E+00           0.12693800E+00
   0.25000000E+00           0.13211100E+00
   0.26000000E+00           0.13752050E+00
   0.27000000E+00           0.14255110E+00
   0.28000000E+00           0.14793930E+00
   0.29000000E+00           0.15320370E+00
   0.30000000E+00           0.15844070E+00
   0.31000000E+00           0.16372830E+00
   0.32000000E+00           0.16908780E+00
   0.33000000E+00           0.17434950E+00
   0.34000000E+00           0.17953510E+00
   0.35000000E+00           0.18501130E+00
   0.36000000E+00           0.18998680E+00
   0.37000000E+00           0.19522930E+00
   0.38000000E+00           0.20043020E+00
   0.39000000E+00           0.20581580E+00
   0.40000000E+00           0.21094570E+00
   0.41000000E+00           0.21614410E+00
   0.42000000E+00           0.22130740E+00
   0.43000000E+00           0.22678050E+00
   0.44000000E+00           0.23178600E+00
   0.45000000E+00           0.23691580E+00
   0.46000000E+00           0.24219190E+00
   0.47000000E+00           0.24744410E+00
   0.48000000E+00           0.25205000E+00
   0.49000000E+00           0.25798980E+00
   0.50000000E+00           0.26265150E+00
   0.51000000E+00           0.26777800E+00
   0.52000000E+00           0.27325090E+00
   0.53000000E+00           0.27838950E+00
   0.54000000E+00           0.28348140E+00
   0.55000000E+00           0.28893740E+00
   0.56000000E+00           0.29368250E+00
   0.57000000E+00           0.29902340E+00
   0.58000000E+00           0.30391680E+00
   0.59000000E+00           0.30957260E+00
   0.60000000E+00           0.31469860E+00
   0.61000000E+00           0.31950750E+00
   0.62000000E+00           0.32513900E+00
   0.63000000E+00           0.32981910E+00
   0.64000000E+00           0.33484050E+00
   0.65000000E+00           0.34013890E+00
   0.66000000E+00           0.34526960E+00
   0.67000000E+00           0.35058960E+00
   0.68000000E+00           0.35533670E+00
   0.69000000E+00           0.36042310E+00
   0.70000000E+00           0.36557420E+00
   0.71000000E+00           0.37093800E+00
   0.72000000E+00           0.37569760E+00
   0.73000000E+00           0.38034010E+00
   0.74000000E+00           0.38564140E+00
   0.75000000E+00           0.39098800E+00
   0.76000000E+00           0.39583690E+00
   0.77000000E+00           0.40108210E+00
   0.78000000E+00           0.40572730E+00
   0.79000000E+00           0.41115230E+00
   0.80000000E+00           0.41569610E+00
   0.81000000E+00           0.42097360E+00
   0.82000000E+00           0.42599410E+00
   0.83000000E+00           0.43117640E+00
   0.84000000E+00           0.43611510E+00
   0.85000000E+00           0.44069130E+00
   0.86000000E+00           0.44588750E+00
   0.87000000E+00           0.45095240E+00
   0.88000000E+00           0.45566320E+00
   0.89000000E+00           0.46067760E+00
   0.90000000E+00           0.46546200E+00
   0.91000000E+00           0.47053880E+00
   0.92000000E+00           0.47564830E+00
   0.93000000E+00           0.48026460E+00
   0.94000000E+00           0.48553170E+00
   0.95000000E+00           0.49033830E+00
   0.96000000E+00           0.49529560E+00
   0.97000000E+00           0.49988850E+00
   0.98000000E+00           0.50512160E+00
   0.99000000E+00           0.50985280E+00
   0.10000000E+01           0.51462840E+00
   0.10100000E+01           0.51919290E+00
   0.10200000E+01           0.52405610E+00
   0.10300000E+01           0.52929650E+00
   0.10400000E+01           0.53354180E+00
   0.10500000E+01           0.53864980E+00
   0.10600000E+01           0.54373680E+00
   0.10700000E+01           0.54870950E+00
   0.10800000E+01           0.55351460E+00
   0.10900000E+01           0.55806660E+00
   0.11000000E+01           0.56224800E+00
   0.11100000E+01           0.56714320E+00
   0.11200000E+01           0.57223430E+00
   0.11300000E+01           0.57671460E+00
   0.11400000E+01           0.58144540E+00
   0.11500000E+01           0.58599890E+00
   0.11600000E+01           0.59099800E+00
   0.11700000E+01           0.59570220E+00
   0.11800000E+01           0.60016000E+00
   0.11900000E+01           0.60483280E+00
   0.12000000E+01           0.60926240E+00
   0.12100000E+01           0.61407530E+00
   0.12200000E+01           0.61857910E+00
   0.12300000E+01           0.62356100E+00
   0.12400000E+01           0.62780710E+00
   0.12500000E+01           0.63240600E+00
   0.12600000E+01           0.63721450E+00
   0.12700000E+01           0.64188160E+00
   0.12800000E+01           0.64657310E+00
   0.12900000E+01           0.65126810E+00
   0.13000000E+01           0.65548270E+00
   0.13100000E+01           0.66008550E+00
   0.13200000E+01           0.66444890E+00
   0.13300000E+01           0.66971450E+00
   0.13400000E+01           0.67330980E+00
   0.13500000E+01           0.67805190E+00
   0.13600000E+01           0.68278190E+00
   0.13700000E+01           0.68745080E+00
   0.13800000E+01           0.69169230E+00
   0.13900000E+01           0.69639580E+00
   0.14000000E+01           0.70097190E+00
   0.14100000E+01           0.70474430E+00
   0.14200000E+01           0.70933370E+00
   0.14300000E+01           0.71336800E+00
   0.14400000E+01           0.71810410E+00
   0.14500000E+01           0.72236030E+00
   0.14600000E+01           0.72719680E+00
   0.14700000E+01           0.73102370E+00
   0.14800000E+01           0.73542760E+00
   0.14900000E+01           0.73941440E+00
   0.15000000E+01           0.74427140E+00
   0.15100000E+01           0.74813340E+00
   0.15200000E+01           0.75270160E+00
   0.15300000E+01           0.75691260E+00
   0.15400000E+01           0.76143340E+00
   0.15500000E+01           0.76514780E+00
   0.15600000E+01           0.76989630E+00
   0.15700000E+01           0.77402430E+00
   0.15800000E+01           0.77824220E+00
   0.15900000E+01           0.78278520E+00
   0.16000000E+01           0.78658270E+00
   0.16100000E+01           0.79123830E+00
   0.16200000E+01           0.79503550E+00
   0.16300000E+01           0.79922050E+00
   0.16400000E+01           0.80340080E+00
   0.16500000E+01           0.80762720E+00
   0.16600000E+01           0.81136660E+00
   0.16700000E+01           0.81526440E+00
   0.16800000E+01           0.81928530E+00
   0.16900000E+01           0.82334850E+00
   0.17000000E+01           0.82801720E+00
   0.17100000E+01           0.83204780E+00
   0.17200000E+01           0.83558130E+00
   0.17300000E+01           0.83964540E+00
   0.17400000E+01           0.84331760E+00
   0.17500000E+01           0.84787870E+00
   0.17600000E+01           0.85199370E+00
   0.17700000E+01           0.85602710E+00
   0.17800000E+01           0.86008710E+00
   0.17900000E+01           0.86379720E+00
   0.18000000E+01           0.86782350E+00
   0.18100000E+01           0.87169780E+00
   0.18200000E+01           0.87510350E+00
   0.18300000E+01           0.87904210E+00
   0.18400000E+01           0.88320170E+00
   0.18500000E+01           0.88641670E+00
   0.18600000E+01           0.89081140E+00
   0.18700000E+01           0.89378010E+00
   0.18800000E+01           0.89801780E+00
   0.18900000E+01           0.90212250E+00
   0.19000000E+01           0.90586620E+00
   0.19100000E+01           0.90931030E+00
   0.19200000E+01           0.91344110E+00
   0.19300000E+01           0.91711380E+00
   0.19400000E+01           0.92034950E+00
   0.19500000E+01           0.92424720E+00
   0.19600000E+01           0.92804570E+00
   0.19700000E+01           0.93189180E+00
   0.19800000E+01           0.93490140E+00
   0.19900000E+01           0.93891100E+00
   0.20000000E+01           0.47082970E+00
