 #written on 12Sep2024 at 17:47:06 
 #----------------- MONTECARLO -------------------#
 #        M                      P(M)             #
 #------------------------------------------------#
 #T=    40.0000
  -0.40000000E+01           0.00000000E+00
  -0.39900000E+01           0.00000000E+00
  -0.39800000E+01           0.00000000E+00
  -0.39700000E+01           0.00000000E+00
  -0.39600000E+01           0.00000000E+00
  -0.39500000E+01           0.00000000E+00
  -0.39400000E+01           0.00000000E+00
  -0.39300000E+01           0.00000000E+00
  -0.39200000E+01           0.00000000E+00
  -0.39100000E+01           0.00000000E+00
  -0.39000000E+01           0.00000000E+00
  -0.38900000E+01           0.00000000E+00
  -0.38800000E+01           0.00000000E+00
  -0.38700000E+01           0.00000000E+00
  -0.38600000E+01           0.00000000E+00
  -0.38500000E+01           0.00000000E+00
  -0.38400000E+01           0.00000000E+00
  -0.38300000E+01           0.00000000E+00
  -0.38200000E+01           0.00000000E+00
  -0.38100000E+01           0.00000000E+00
  -0.38000000E+01           0.00000000E+00
  -0.37900000E+01           0.00000000E+00
  -0.37800000E+01           0.00000000E+00
  -0.37700000E+01           0.00000000E+00
  -0.37600000E+01           0.00000000E+00
  -0.37500000E+01           0.00000000E+00
  -0.37400000E+01           0.00000000E+00
  -0.37300000E+01           0.00000000E+00
  -0.37200000E+01           0.00000000E+00
  -0.37100000E+01           0.00000000E+00
  -0.37000000E+01           0.00000000E+00
  -0.36900000E+01           0.00000000E+00
  -0.36800000E+01           0.00000000E+00
  -0.36700000E+01           0.00000000E+00
  -0.36600000E+01           0.00000000E+00
  -0.36500000E+01           0.00000000E+00
  -0.36400000E+01           0.00000000E+00
  -0.36300000E+01           0.00000000E+00
  -0.36200000E+01           0.00000000E+00
  -0.36100000E+01           0.00000000E+00
  -0.36000000E+01           0.00000000E+00
  -0.35900000E+01           0.00000000E+00
  -0.35800000E+01           0.00000000E+00
  -0.35700000E+01           0.00000000E+00
  -0.35600000E+01           0.00000000E+00
  -0.35500000E+01           0.00000000E+00
  -0.35400000E+01           0.00000000E+00
  -0.35300000E+01           0.00000000E+00
  -0.35200000E+01           0.00000000E+00
  -0.35100000E+01           0.00000000E+00
  -0.35000000E+01           0.00000000E+00
  -0.34900000E+01           0.00000000E+00
  -0.34800000E+01           0.00000000E+00
  -0.34700000E+01           0.00000000E+00
  -0.34600000E+01           0.00000000E+00
  -0.34500000E+01           0.00000000E+00
  -0.34400000E+01           0.00000000E+00
  -0.34300000E+01           0.00000000E+00
  -0.34200000E+01           0.00000000E+00
  -0.34100000E+01           0.00000000E+00
  -0.34000000E+01           0.00000000E+00
  -0.33900000E+01           0.00000000E+00
  -0.33800000E+01           0.00000000E+00
  -0.33700000E+01           0.00000000E+00
  -0.33600000E+01           0.00000000E+00
  -0.33500000E+01           0.00000000E+00
  -0.33400000E+01           0.00000000E+00
  -0.33300000E+01           0.00000000E+00
  -0.33200000E+01           0.00000000E+00
  -0.33100000E+01           0.00000000E+00
  -0.33000000E+01           0.00000000E+00
  -0.32900000E+01           0.00000000E+00
  -0.32800000E+01           0.00000000E+00
  -0.32700000E+01           0.00000000E+00
  -0.32600000E+01           0.00000000E+00
  -0.32500000E+01           0.00000000E+00
  -0.32400000E+01           0.00000000E+00
  -0.32300000E+01           0.00000000E+00
  -0.32200000E+01           0.00000000E+00
  -0.32100000E+01           0.00000000E+00
  -0.32000000E+01           0.00000000E+00
  -0.31900000E+01           0.00000000E+00
  -0.31800000E+01           0.00000000E+00
  -0.31700000E+01           0.00000000E+00
  -0.31600000E+01           0.00000000E+00
  -0.31500000E+01           0.00000000E+00
  -0.31400000E+01           0.00000000E+00
  -0.31300000E+01           0.00000000E+00
  -0.31200000E+01           0.00000000E+00
  -0.31100000E+01           0.00000000E+00
  -0.31000000E+01           0.00000000E+00
  -0.30900000E+01           0.00000000E+00
  -0.30800000E+01           0.00000000E+00
  -0.30700000E+01           0.00000000E+00
  -0.30600000E+01           0.00000000E+00
  -0.30500000E+01           0.00000000E+00
  -0.30400000E+01           0.00000000E+00
  -0.30300000E+01           0.00000000E+00
  -0.30200000E+01           0.00000000E+00
  -0.30100000E+01           0.00000000E+00
  -0.30000000E+01           0.00000000E+00
  -0.29900000E+01           0.00000000E+00
  -0.29800000E+01           0.00000000E+00
  -0.29700000E+01           0.00000000E+00
  -0.29600000E+01           0.00000000E+00
  -0.29500000E+01           0.00000000E+00
  -0.29400000E+01           0.00000000E+00
  -0.29300000E+01           0.00000000E+00
  -0.29200000E+01           0.00000000E+00
  -0.29100000E+01           0.00000000E+00
  -0.29000000E+01           0.00000000E+00
  -0.28900000E+01           0.00000000E+00
  -0.28800000E+01           0.00000000E+00
  -0.28700000E+01           0.00000000E+00
  -0.28600000E+01           0.00000000E+00
  -0.28500000E+01           0.00000000E+00
  -0.28400000E+01           0.00000000E+00
  -0.28300000E+01           0.00000000E+00
  -0.28200000E+01           0.00000000E+00
  -0.28100000E+01           0.00000000E+00
  -0.28000000E+01           0.00000000E+00
  -0.27900000E+01           0.00000000E+00
  -0.27800000E+01           0.00000000E+00
  -0.27700000E+01           0.00000000E+00
  -0.27600000E+01           0.00000000E+00
  -0.27500000E+01           0.00000000E+00
  -0.27400000E+01           0.00000000E+00
  -0.27300000E+01           0.00000000E+00
  -0.27200000E+01           0.00000000E+00
  -0.27100000E+01           0.00000000E+00
  -0.27000000E+01           0.00000000E+00
  -0.26900000E+01           0.00000000E+00
  -0.26800000E+01           0.00000000E+00
  -0.26700000E+01           0.00000000E+00
  -0.26600000E+01           0.00000000E+00
  -0.26500000E+01           0.00000000E+00
  -0.26400000E+01           0.00000000E+00
  -0.26300000E+01           0.00000000E+00
  -0.26200000E+01           0.00000000E+00
  -0.26100000E+01           0.00000000E+00
  -0.26000000E+01           0.00000000E+00
  -0.25900000E+01           0.00000000E+00
  -0.25800000E+01           0.00000000E+00
  -0.25700000E+01           0.00000000E+00
  -0.25600000E+01           0.00000000E+00
  -0.25500000E+01           0.00000000E+00
  -0.25400000E+01           0.00000000E+00
  -0.25300000E+01           0.00000000E+00
  -0.25200000E+01           0.00000000E+00
  -0.25100000E+01           0.00000000E+00
  -0.25000000E+01           0.00000000E+00
  -0.24900000E+01           0.00000000E+00
  -0.24800000E+01           0.00000000E+00
  -0.24700000E+01           0.00000000E+00
  -0.24600000E+01           0.00000000E+00
  -0.24500000E+01           0.00000000E+00
  -0.24400000E+01           0.00000000E+00
  -0.24300000E+01           0.00000000E+00
  -0.24200000E+01           0.00000000E+00
  -0.24100000E+01           0.00000000E+00
  -0.24000000E+01           0.00000000E+00
  -0.23900000E+01           0.00000000E+00
  -0.23800000E+01           0.00000000E+00
  -0.23700000E+01           0.00000000E+00
  -0.23600000E+01           0.00000000E+00
  -0.23500000E+01           0.00000000E+00
  -0.23400000E+01           0.00000000E+00
  -0.23300000E+01           0.00000000E+00
  -0.23200000E+01           0.00000000E+00
  -0.23100000E+01           0.00000000E+00
  -0.23000000E+01           0.00000000E+00
  -0.22900000E+01           0.00000000E+00
  -0.22800000E+01           0.00000000E+00
  -0.22700000E+01           0.00000000E+00
  -0.22600000E+01           0.00000000E+00
  -0.22500000E+01           0.00000000E+00
  -0.22400000E+01           0.00000000E+00
  -0.22300000E+01           0.00000000E+00
  -0.22200000E+01           0.00000000E+00
  -0.22100000E+01           0.00000000E+00
  -0.22000000E+01           0.00000000E+00
  -0.21900000E+01           0.00000000E+00
  -0.21800000E+01           0.00000000E+00
  -0.21700000E+01           0.00000000E+00
  -0.21600000E+01           0.00000000E+00
  -0.21500000E+01           0.00000000E+00
  -0.21400000E+01           0.00000000E+00
  -0.21300000E+01           0.00000000E+00
  -0.21200000E+01           0.00000000E+00
  -0.21100000E+01           0.00000000E+00
  -0.21000000E+01           0.00000000E+00
  -0.20900000E+01           0.00000000E+00
  -0.20800000E+01           0.00000000E+00
  -0.20700000E+01           0.00000000E+00
  -0.20600000E+01           0.00000000E+00
  -0.20500000E+01           0.00000000E+00
  -0.20400000E+01           0.00000000E+00
  -0.20300000E+01           0.00000000E+00
  -0.20200000E+01           0.00000000E+00
  -0.20100000E+01           0.00000000E+00
  -0.20000000E+01           0.00000000E+00
  -0.19900000E+01           0.00000000E+00
  -0.19800000E+01           0.00000000E+00
  -0.19700000E+01           0.00000000E+00
  -0.19600000E+01           0.00000000E+00
  -0.19500000E+01           0.00000000E+00
  -0.19400000E+01           0.00000000E+00
  -0.19300000E+01           0.00000000E+00
  -0.19200000E+01           0.00000000E+00
  -0.19100000E+01           0.00000000E+00
  -0.19000000E+01           0.00000000E+00
  -0.18900000E+01           0.00000000E+00
  -0.18800000E+01           0.00000000E+00
  -0.18700000E+01           0.00000000E+00
  -0.18600000E+01           0.00000000E+00
  -0.18500000E+01           0.00000000E+00
  -0.18400000E+01           0.00000000E+00
  -0.18300000E+01           0.00000000E+00
  -0.18200000E+01           0.00000000E+00
  -0.18100000E+01           0.00000000E+00
  -0.18000000E+01           0.00000000E+00
  -0.17900000E+01           0.00000000E+00
  -0.17800000E+01           0.00000000E+00
  -0.17700000E+01           0.00000000E+00
  -0.17600000E+01           0.00000000E+00
  -0.17500000E+01           0.00000000E+00
  -0.17400000E+01           0.00000000E+00
  -0.17300000E+01           0.00000000E+00
  -0.17200000E+01           0.00000000E+00
  -0.17100000E+01           0.00000000E+00
  -0.17000000E+01           0.00000000E+00
  -0.16900000E+01           0.00000000E+00
  -0.16800000E+01           0.00000000E+00
  -0.16700000E+01           0.00000000E+00
  -0.16600000E+01           0.00000000E+00
  -0.16500000E+01           0.00000000E+00
  -0.16400000E+01           0.00000000E+00
  -0.16300000E+01           0.00000000E+00
  -0.16200000E+01           0.00000000E+00
  -0.16100000E+01           0.00000000E+00
  -0.16000000E+01           0.00000000E+00
  -0.15900000E+01           0.00000000E+00
  -0.15800000E+01           0.00000000E+00
  -0.15700000E+01           0.00000000E+00
  -0.15600000E+01           0.00000000E+00
  -0.15500000E+01           0.00000000E+00
  -0.15400000E+01           0.00000000E+00
  -0.15300000E+01           0.00000000E+00
  -0.15200000E+01           0.00000000E+00
  -0.15100000E+01           0.00000000E+00
  -0.15000000E+01           0.00000000E+00
  -0.14900000E+01           0.00000000E+00
  -0.14800000E+01           0.00000000E+00
  -0.14700000E+01           0.00000000E+00
  -0.14600000E+01           0.00000000E+00
  -0.14500000E+01           0.00000000E+00
  -0.14400000E+01           0.00000000E+00
  -0.14300000E+01           0.00000000E+00
  -0.14200000E+01           0.00000000E+00
  -0.14100000E+01           0.00000000E+00
  -0.14000000E+01           0.00000000E+00
  -0.13900000E+01           0.00000000E+00
  -0.13800000E+01           0.00000000E+00
  -0.13700000E+01           0.00000000E+00
  -0.13600000E+01           0.00000000E+00
  -0.13500000E+01           0.00000000E+00
  -0.13400000E+01           0.00000000E+00
  -0.13300000E+01           0.00000000E+00
  -0.13200000E+01           0.00000000E+00
  -0.13100000E+01           0.00000000E+00
  -0.13000000E+01           0.00000000E+00
  -0.12900000E+01           0.00000000E+00
  -0.12800000E+01           0.00000000E+00
  -0.12700000E+01           0.00000000E+00
  -0.12600000E+01           0.00000000E+00
  -0.12500000E+01           0.00000000E+00
  -0.12400000E+01           0.00000000E+00
  -0.12300000E+01           0.00000000E+00
  -0.12200000E+01           0.00000000E+00
  -0.12100000E+01           0.00000000E+00
  -0.12000000E+01           0.00000000E+00
  -0.11900000E+01           0.00000000E+00
  -0.11800000E+01           0.00000000E+00
  -0.11700000E+01           0.00000000E+00
  -0.11600000E+01           0.00000000E+00
  -0.11500000E+01           0.00000000E+00
  -0.11400000E+01           0.00000000E+00
  -0.11300000E+01           0.00000000E+00
  -0.11200000E+01           0.00000000E+00
  -0.11100000E+01           0.00000000E+00
  -0.11000000E+01           0.00000000E+00
  -0.10900000E+01           0.00000000E+00
  -0.10800000E+01           0.00000000E+00
  -0.10700000E+01           0.00000000E+00
  -0.10600000E+01           0.00000000E+00
  -0.10500000E+01           0.00000000E+00
  -0.10400000E+01           0.00000000E+00
  -0.10300000E+01           0.00000000E+00
  -0.10200000E+01           0.00000000E+00
  -0.10100000E+01           0.00000000E+00
  -0.10000000E+01           0.00000000E+00
  -0.99000000E+00           0.00000000E+00
  -0.98000000E+00           0.00000000E+00
  -0.97000000E+00           0.00000000E+00
  -0.96000000E+00           0.00000000E+00
  -0.95000000E+00           0.00000000E+00
  -0.94000000E+00           0.00000000E+00
  -0.93000000E+00           0.00000000E+00
  -0.92000000E+00           0.00000000E+00
  -0.91000000E+00           0.00000000E+00
  -0.90000000E+00           0.00000000E+00
  -0.89000000E+00           0.00000000E+00
  -0.88000000E+00           0.00000000E+00
  -0.87000000E+00           0.00000000E+00
  -0.86000000E+00           0.00000000E+00
  -0.85000000E+00           0.00000000E+00
  -0.84000000E+00           0.00000000E+00
  -0.83000000E+00           0.00000000E+00
  -0.82000000E+00           0.00000000E+00
  -0.81000000E+00           0.00000000E+00
  -0.80000000E+00           0.00000000E+00
  -0.79000000E+00           0.00000000E+00
  -0.78000000E+00           0.00000000E+00
  -0.77000000E+00           0.00000000E+00
  -0.76000000E+00           0.00000000E+00
  -0.75000000E+00           0.00000000E+00
  -0.74000000E+00           0.00000000E+00
  -0.73000000E+00           0.00000000E+00
  -0.72000000E+00           0.00000000E+00
  -0.71000000E+00           0.00000000E+00
  -0.70000000E+00           0.00000000E+00
  -0.69000000E+00           0.00000000E+00
  -0.68000000E+00           0.00000000E+00
  -0.67000000E+00           0.00000000E+00
  -0.66000000E+00           0.00000000E+00
  -0.65000000E+00           0.00000000E+00
  -0.64000000E+00           0.00000000E+00
  -0.63000000E+00           0.00000000E+00
  -0.62000000E+00           0.00000000E+00
  -0.61000000E+00           0.00000000E+00
  -0.60000000E+00           0.00000000E+00
  -0.59000000E+00           0.00000000E+00
  -0.58000000E+00           0.00000000E+00
  -0.57000000E+00           0.00000000E+00
  -0.56000000E+00           0.00000000E+00
  -0.55000000E+00           0.00000000E+00
  -0.54000000E+00           0.00000000E+00
  -0.53000000E+00           0.00000000E+00
  -0.52000000E+00           0.00000000E+00
  -0.51000000E+00           0.00000000E+00
  -0.50000000E+00           0.00000000E+00
  -0.49000000E+00           0.00000000E+00
  -0.48000000E+00           0.00000000E+00
  -0.47000000E+00           0.00000000E+00
  -0.46000000E+00           0.00000000E+00
  -0.45000000E+00           0.00000000E+00
  -0.44000000E+00           0.00000000E+00
  -0.43000000E+00           0.00000000E+00
  -0.42000000E+00           0.00000000E+00
  -0.41000000E+00           0.00000000E+00
  -0.40000000E+00           0.00000000E+00
  -0.39000000E+00           0.00000000E+00
  -0.38000000E+00           0.00000000E+00
  -0.37000000E+00           0.00000000E+00
  -0.36000000E+00           0.00000000E+00
  -0.35000000E+00           0.00000000E+00
  -0.34000000E+00           0.00000000E+00
  -0.33000000E+00           0.00000000E+00
  -0.32000000E+00           0.00000000E+00
  -0.31000000E+00           0.00000000E+00
  -0.30000000E+00           0.00000000E+00
  -0.29000000E+00           0.00000000E+00
  -0.28000000E+00           0.00000000E+00
  -0.27000000E+00           0.00000000E+00
  -0.26000000E+00           0.00000000E+00
  -0.25000000E+00           0.00000000E+00
  -0.24000000E+00           0.00000000E+00
  -0.23000000E+00           0.00000000E+00
  -0.22000000E+00           0.00000000E+00
  -0.21000000E+00           0.00000000E+00
  -0.20000000E+00           0.00000000E+00
  -0.19000000E+00           0.00000000E+00
  -0.18000000E+00           0.00000000E+00
  -0.17000000E+00           0.00000000E+00
  -0.16000000E+00           0.00000000E+00
  -0.15000000E+00           0.00000000E+00
  -0.14000000E+00           0.00000000E+00
  -0.13000000E+00           0.00000000E+00
  -0.12000000E+00           0.00000000E+00
  -0.11000000E+00           0.00000000E+00
  -0.10000000E+00           0.00000000E+00
  -0.90000000E-01           0.00000000E+00
  -0.80000000E-01           0.00000000E+00
  -0.70000000E-01           0.00000000E+00
  -0.60000000E-01           0.00000000E+00
  -0.50000000E-01           0.00000000E+00
  -0.40000000E-01           0.00000000E+00
  -0.30000000E-01           0.00000000E+00
  -0.20000000E-01           0.00000000E+00
  -0.10000000E-01           0.00000000E+00
   0.00000000E+00           0.15055556E-03
   0.10000000E-01           0.35164815E-02
   0.20000000E-01           0.12383704E-01
   0.30000000E-01           0.25676481E-01
   0.40000000E-01           0.42276481E-01
   0.50000000E-01           0.61172963E-01
   0.60000000E-01           0.82681296E-01
   0.70000000E-01           0.10489444E+00
   0.80000000E-01           0.12876315E+00
   0.90000000E-01           0.15322759E+00
   0.10000000E+00           0.17808426E+00
   0.11000000E+00           0.20301463E+00
   0.12000000E+00           0.22750667E+00
   0.13000000E+00           0.25271222E+00
   0.14000000E+00           0.27768259E+00
   0.15000000E+00           0.30186278E+00
   0.16000000E+00           0.32659667E+00
   0.17000000E+00           0.34997185E+00
   0.18000000E+00           0.37330019E+00
   0.19000000E+00           0.39636778E+00
   0.20000000E+00           0.41906815E+00
   0.21000000E+00           0.44030093E+00
   0.22000000E+00           0.46173426E+00
   0.23000000E+00           0.48352407E+00
   0.24000000E+00           0.50351611E+00
   0.25000000E+00           0.52312796E+00
   0.26000000E+00           0.54260407E+00
   0.27000000E+00           0.56212778E+00
   0.28000000E+00           0.58076444E+00
   0.29000000E+00           0.59826833E+00
   0.30000000E+00           0.61530130E+00
   0.31000000E+00           0.63278389E+00
   0.32000000E+00           0.64928222E+00
   0.33000000E+00           0.66475907E+00
   0.34000000E+00           0.68042741E+00
   0.35000000E+00           0.69477611E+00
   0.36000000E+00           0.70914667E+00
   0.37000000E+00           0.72290278E+00
   0.38000000E+00           0.73587519E+00
   0.39000000E+00           0.74896000E+00
   0.40000000E+00           0.76068037E+00
   0.41000000E+00           0.77272407E+00
   0.42000000E+00           0.78378463E+00
   0.43000000E+00           0.79369204E+00
   0.44000000E+00           0.80395407E+00
   0.45000000E+00           0.81326407E+00
   0.46000000E+00           0.82204648E+00
   0.47000000E+00           0.83106796E+00
   0.48000000E+00           0.83921426E+00
   0.49000000E+00           0.84536704E+00
   0.50000000E+00           0.85296537E+00
   0.51000000E+00           0.85877611E+00
   0.52000000E+00           0.86541333E+00
   0.53000000E+00           0.86997778E+00
   0.54000000E+00           0.87524741E+00
   0.55000000E+00           0.87898537E+00
   0.56000000E+00           0.88308759E+00
   0.57000000E+00           0.88644167E+00
   0.58000000E+00           0.88878019E+00
   0.59000000E+00           0.89071296E+00
   0.60000000E+00           0.89320074E+00
   0.61000000E+00           0.89453111E+00
   0.62000000E+00           0.89572648E+00
   0.63000000E+00           0.89558685E+00
   0.64000000E+00           0.89515630E+00
   0.65000000E+00           0.89474889E+00
   0.66000000E+00           0.89416741E+00
   0.67000000E+00           0.89195333E+00
   0.68000000E+00           0.89040778E+00
   0.69000000E+00           0.88834648E+00
   0.70000000E+00           0.88644111E+00
   0.71000000E+00           0.88213593E+00
   0.72000000E+00           0.87930481E+00
   0.73000000E+00           0.87429630E+00
   0.74000000E+00           0.87134426E+00
   0.75000000E+00           0.86652222E+00
   0.76000000E+00           0.86113167E+00
   0.77000000E+00           0.85636981E+00
   0.78000000E+00           0.84986889E+00
   0.79000000E+00           0.84495722E+00
   0.80000000E+00           0.83706722E+00
   0.81000000E+00           0.83059778E+00
   0.82000000E+00           0.82434778E+00
   0.83000000E+00           0.81769667E+00
   0.84000000E+00           0.81025444E+00
   0.85000000E+00           0.80269426E+00
   0.86000000E+00           0.79410685E+00
   0.87000000E+00           0.78628833E+00
   0.88000000E+00           0.77733259E+00
   0.89000000E+00           0.76892889E+00
   0.90000000E+00           0.76055667E+00
   0.91000000E+00           0.75191463E+00
   0.92000000E+00           0.74209241E+00
   0.93000000E+00           0.73338981E+00
   0.94000000E+00           0.72332796E+00
   0.95000000E+00           0.71394741E+00
   0.96000000E+00           0.70350185E+00
   0.97000000E+00           0.69382852E+00
   0.98000000E+00           0.68376278E+00
   0.99000000E+00           0.67388148E+00
   0.10000000E+01           0.66309815E+00
   0.10100000E+01           0.65330167E+00
   0.10200000E+01           0.64296611E+00
   0.10300000E+01           0.63283389E+00
   0.10400000E+01           0.62143519E+00
   0.10500000E+01           0.61133407E+00
   0.10600000E+01           0.60103778E+00
   0.10700000E+01           0.58995519E+00
   0.10800000E+01           0.58011556E+00
   0.10900000E+01           0.56909259E+00
   0.11000000E+01           0.55791519E+00
   0.11100000E+01           0.54629593E+00
   0.11200000E+01           0.53669704E+00
   0.11300000E+01           0.52551037E+00
   0.11400000E+01           0.51510259E+00
   0.11500000E+01           0.50518852E+00
   0.11600000E+01           0.49371481E+00
   0.11700000E+01           0.48418426E+00
   0.11800000E+01           0.47352426E+00
   0.11900000E+01           0.46235796E+00
   0.12000000E+01           0.45268278E+00
   0.12100000E+01           0.44222148E+00
   0.12200000E+01           0.43202185E+00
   0.12300000E+01           0.42248611E+00
   0.12400000E+01           0.41276963E+00
   0.12500000E+01           0.40245963E+00
   0.12600000E+01           0.39183593E+00
   0.12700000E+01           0.38195259E+00
   0.12800000E+01           0.37387556E+00
   0.12900000E+01           0.36385667E+00
   0.13000000E+01           0.35401074E+00
   0.13100000E+01           0.34583667E+00
   0.13200000E+01           0.33587759E+00
   0.13300000E+01           0.32773130E+00
   0.13400000E+01           0.31852463E+00
   0.13500000E+01           0.31034741E+00
   0.13600000E+01           0.30135833E+00
   0.13700000E+01           0.29338926E+00
   0.13800000E+01           0.28461741E+00
   0.13900000E+01           0.27691981E+00
   0.14000000E+01           0.26935315E+00
   0.14100000E+01           0.26185056E+00
   0.14200000E+01           0.25403593E+00
   0.14300000E+01           0.24571204E+00
   0.14400000E+01           0.23864370E+00
   0.14500000E+01           0.23236741E+00
   0.14600000E+01           0.22466722E+00
   0.14700000E+01           0.21796074E+00
   0.14800000E+01           0.21131352E+00
   0.14900000E+01           0.20534074E+00
   0.15000000E+01           0.19896111E+00
   0.15100000E+01           0.19289463E+00
   0.15200000E+01           0.18698370E+00
   0.15300000E+01           0.18137685E+00
   0.15400000E+01           0.17582019E+00
   0.15500000E+01           0.17042222E+00
   0.15600000E+01           0.16584519E+00
   0.15700000E+01           0.16036537E+00
   0.15800000E+01           0.15596463E+00
   0.15900000E+01           0.15131426E+00
   0.16000000E+01           0.14774296E+00
   0.16100000E+01           0.14400963E+00
   0.16200000E+01           0.13997093E+00
   0.16300000E+01           0.13640537E+00
   0.16400000E+01           0.13336630E+00
   0.16500000E+01           0.13058519E+00
   0.16600000E+01           0.12797241E+00
   0.16700000E+01           0.12605463E+00
   0.16800000E+01           0.12386444E+00
   0.16900000E+01           0.12261926E+00
   0.17000000E+01           0.12159907E+00
   0.17100000E+01           0.12070852E+00
   0.17200000E+01           0.12024407E+00
   0.17300000E+01           0.12071130E+00
   0.17400000E+01           0.12189685E+00
   0.17500000E+01           0.12256185E+00
   0.17600000E+01           0.12492056E+00
   0.17700000E+01           0.12695019E+00
   0.17800000E+01           0.12998500E+00
   0.17900000E+01           0.13378019E+00
   0.18000000E+01           0.13824889E+00
   0.18100000E+01           0.14340204E+00
   0.18200000E+01           0.14961370E+00
   0.18300000E+01           0.15612426E+00
   0.18400000E+01           0.16423056E+00
   0.18500000E+01           0.17242685E+00
   0.18600000E+01           0.18181148E+00
   0.18700000E+01           0.19238537E+00
   0.18800000E+01           0.20330278E+00
   0.18900000E+01           0.21474037E+00
   0.19000000E+01           0.22724352E+00
   0.19100000E+01           0.24016278E+00
   0.19200000E+01           0.25318296E+00
   0.19300000E+01           0.26629759E+00
   0.19400000E+01           0.27866963E+00
   0.19500000E+01           0.28987593E+00
   0.19600000E+01           0.29927833E+00
   0.19700000E+01           0.30563074E+00
   0.19800000E+01           0.30817667E+00
   0.19900000E+01           0.30463222E+00
   0.20000000E+01           0.29446407E+00
   0.20100000E+01           0.27991481E+00
   0.20200000E+01           0.26516315E+00
   0.20300000E+01           0.25123148E+00
   0.20400000E+01           0.23850074E+00
   0.20500000E+01           0.22573463E+00
   0.20600000E+01           0.21430481E+00
   0.20700000E+01           0.20323630E+00
   0.20800000E+01           0.19185056E+00
   0.20900000E+01           0.18195537E+00
   0.21000000E+01           0.17182759E+00
   0.21100000E+01           0.16220111E+00
   0.21200000E+01           0.15350667E+00
   0.21300000E+01           0.14498185E+00
   0.21400000E+01           0.13673759E+00
   0.21500000E+01           0.12914333E+00
   0.21600000E+01           0.12228833E+00
   0.21700000E+01           0.11514870E+00
   0.21800000E+01           0.10850537E+00
   0.21900000E+01           0.10245074E+00
   0.22000000E+01           0.96436296E-01
   0.22100000E+01           0.90286481E-01
   0.22200000E+01           0.85470741E-01
   0.22300000E+01           0.80863148E-01
   0.22400000E+01           0.75616852E-01
   0.22500000E+01           0.71235000E-01
   0.22600000E+01           0.67054815E-01
   0.22700000E+01           0.62768704E-01
   0.22800000E+01           0.59064444E-01
   0.22900000E+01           0.55465556E-01
   0.23000000E+01           0.52084815E-01
   0.23100000E+01           0.48859259E-01
   0.23200000E+01           0.45945370E-01
   0.23300000E+01           0.42914630E-01
   0.23400000E+01           0.40421852E-01
   0.23500000E+01           0.37643704E-01
   0.23600000E+01           0.35451296E-01
   0.23700000E+01           0.32926852E-01
   0.23800000E+01           0.31010741E-01
   0.23900000E+01           0.29011852E-01
   0.24000000E+01           0.26943519E-01
   0.24100000E+01           0.25195185E-01
   0.24200000E+01           0.23570185E-01
   0.24300000E+01           0.22113519E-01
   0.24400000E+01           0.20720926E-01
   0.24500000E+01           0.19124630E-01
   0.24600000E+01           0.17884444E-01
   0.24700000E+01           0.16865926E-01
   0.24800000E+01           0.15649259E-01
   0.24900000E+01           0.14418519E-01
   0.25000000E+01           0.13471852E-01
   0.25100000E+01           0.12610185E-01
   0.25200000E+01           0.11709815E-01
   0.25300000E+01           0.11017222E-01
   0.25400000E+01           0.10142593E-01
   0.25500000E+01           0.94050000E-02
   0.25600000E+01           0.87259259E-02
   0.25700000E+01           0.81316667E-02
   0.25800000E+01           0.75059259E-02
   0.25900000E+01           0.69818519E-02
   0.26000000E+01           0.65296296E-02
   0.26100000E+01           0.60670370E-02
   0.26200000E+01           0.55622222E-02
   0.26300000E+01           0.51762963E-02
   0.26400000E+01           0.48166667E-02
   0.26500000E+01           0.44401852E-02
   0.26600000E+01           0.40553704E-02
   0.26700000E+01           0.37920370E-02
   0.26800000E+01           0.35248148E-02
   0.26900000E+01           0.32168519E-02
   0.27000000E+01           0.29888889E-02
   0.27100000E+01           0.27450000E-02
   0.27200000E+01           0.25255556E-02
   0.27300000E+01           0.23261111E-02
   0.27400000E+01           0.21511111E-02
   0.27500000E+01           0.19974074E-02
   0.27600000E+01           0.18518519E-02
   0.27700000E+01           0.16774074E-02
   0.27800000E+01           0.15625926E-02
   0.27900000E+01           0.14209259E-02
   0.28000000E+01           0.13244444E-02
   0.28100000E+01           0.12362963E-02
   0.28200000E+01           0.11335185E-02
   0.28300000E+01           0.10272222E-02
   0.28400000E+01           0.93629630E-03
   0.28500000E+01           0.84740741E-03
   0.28600000E+01           0.78277778E-03
   0.28700000E+01           0.72129630E-03
   0.28800000E+01           0.66555556E-03
   0.28900000E+01           0.59777778E-03
   0.29000000E+01           0.56944444E-03
   0.29100000E+01           0.50537037E-03
   0.29200000E+01           0.48648148E-03
   0.29300000E+01           0.42388889E-03
   0.29400000E+01           0.39648148E-03
   0.29500000E+01           0.36907407E-03
   0.29600000E+01           0.32685185E-03
   0.29700000E+01           0.32037037E-03
   0.29800000E+01           0.27555556E-03
   0.29900000E+01           0.24055556E-03
   0.30000000E+01           0.23648148E-03
   0.30100000E+01           0.20148148E-03
   0.30200000E+01           0.18351852E-03
   0.30300000E+01           0.17629630E-03
   0.30400000E+01           0.15759259E-03
   0.30500000E+01           0.15129630E-03
   0.30600000E+01           0.12685185E-03
   0.30700000E+01           0.11796296E-03
   0.30800000E+01           0.10611111E-03
   0.30900000E+01           0.10351852E-03
   0.31000000E+01           0.83888889E-04
   0.31100000E+01           0.76666667E-04
   0.31200000E+01           0.66296296E-04
   0.31300000E+01           0.62592593E-04
   0.31400000E+01           0.57592593E-04
   0.31500000E+01           0.61666667E-04
   0.31600000E+01           0.51296296E-04
   0.31700000E+01           0.45185185E-04
   0.31800000E+01           0.40185185E-04
   0.31900000E+01           0.39259259E-04
   0.32000000E+01           0.38333333E-04
   0.32100000E+01           0.34259259E-04
   0.32200000E+01           0.23703704E-04
   0.32300000E+01           0.21851852E-04
   0.32400000E+01           0.21666667E-04
   0.32500000E+01           0.22222222E-04
   0.32600000E+01           0.19444444E-04
   0.32700000E+01           0.17777778E-04
   0.32800000E+01           0.15185185E-04
   0.32900000E+01           0.11851852E-04
   0.33000000E+01           0.13148148E-04
   0.33100000E+01           0.12407407E-04
   0.33200000E+01           0.13333333E-04
   0.33300000E+01           0.79629630E-05
   0.33400000E+01           0.87037037E-05
   0.33500000E+01           0.81481481E-05
   0.33600000E+01           0.83333333E-05
   0.33700000E+01           0.53703704E-05
   0.33800000E+01           0.37037037E-05
   0.33900000E+01           0.62962963E-05
   0.34000000E+01           0.79629630E-05
   0.34100000E+01           0.46296296E-05
   0.34200000E+01           0.38888889E-05
   0.34300000E+01           0.44444444E-05
   0.34400000E+01           0.38888889E-05
   0.34500000E+01           0.35185185E-05
   0.34600000E+01           0.24074074E-05
   0.34700000E+01           0.14814815E-05
   0.34800000E+01           0.11111111E-05
   0.34900000E+01           0.14814815E-05
   0.35000000E+01           0.12962963E-05
   0.35100000E+01           0.16666667E-05
   0.35200000E+01           0.12962963E-05
   0.35300000E+01           0.11111111E-05
   0.35400000E+01           0.22222222E-05
   0.35500000E+01           0.11111111E-05
   0.35600000E+01           0.74074074E-06
   0.35700000E+01           0.74074074E-06
   0.35800000E+01           0.37037037E-06
   0.35900000E+01           0.74074074E-06
   0.36000000E+01           0.12962963E-05
   0.36100000E+01           0.18518519E-06
   0.36200000E+01           0.37037037E-06
   0.36300000E+01           0.18518519E-06
   0.36400000E+01           0.00000000E+00
   0.36500000E+01           0.37037037E-06
   0.36600000E+01           0.55555556E-06
   0.36700000E+01           0.18518519E-06
   0.36800000E+01           0.00000000E+00
   0.36900000E+01           0.55555556E-06
   0.37000000E+01           0.18518519E-06
   0.37100000E+01           0.18518519E-06
   0.37200000E+01           0.37037037E-06
   0.37300000E+01           0.00000000E+00
   0.37400000E+01           0.18518519E-06
   0.37500000E+01           0.18518519E-06
   0.37600000E+01           0.00000000E+00
   0.37700000E+01           0.00000000E+00
   0.37800000E+01           0.00000000E+00
   0.37900000E+01           0.00000000E+00
   0.38000000E+01           0.00000000E+00
   0.38100000E+01           0.00000000E+00
   0.38200000E+01           0.00000000E+00
   0.38300000E+01           0.00000000E+00
   0.38400000E+01           0.00000000E+00
   0.38500000E+01           0.00000000E+00
   0.38600000E+01           0.00000000E+00
   0.38700000E+01           0.00000000E+00
   0.38800000E+01           0.00000000E+00
   0.38900000E+01           0.00000000E+00
   0.39000000E+01           0.00000000E+00
   0.39100000E+01           0.00000000E+00
   0.39200000E+01           0.00000000E+00
   0.39300000E+01           0.00000000E+00
   0.39400000E+01           0.00000000E+00
   0.39500000E+01           0.00000000E+00
   0.39600000E+01           0.00000000E+00
   0.39700000E+01           0.00000000E+00
   0.39800000E+01           0.00000000E+00
   0.39900000E+01           0.00000000E+00
   0.40000000E+01           0.00000000E+00
 #T=    41.0000
  -0.40000000E+01           0.00000000E+00
  -0.39900000E+01           0.00000000E+00
  -0.39800000E+01           0.00000000E+00
  -0.39700000E+01           0.00000000E+00
  -0.39600000E+01           0.00000000E+00
  -0.39500000E+01           0.00000000E+00
  -0.39400000E+01           0.00000000E+00
  -0.39300000E+01           0.00000000E+00
  -0.39200000E+01           0.00000000E+00
  -0.39100000E+01           0.00000000E+00
  -0.39000000E+01           0.00000000E+00
  -0.38900000E+01           0.00000000E+00
  -0.38800000E+01           0.00000000E+00
  -0.38700000E+01           0.00000000E+00
  -0.38600000E+01           0.00000000E+00
  -0.38500000E+01           0.00000000E+00
  -0.38400000E+01           0.00000000E+00
  -0.38300000E+01           0.00000000E+00
  -0.38200000E+01           0.00000000E+00
  -0.38100000E+01           0.00000000E+00
  -0.38000000E+01           0.00000000E+00
  -0.37900000E+01           0.00000000E+00
  -0.37800000E+01           0.00000000E+00
  -0.37700000E+01           0.00000000E+00
  -0.37600000E+01           0.00000000E+00
  -0.37500000E+01           0.00000000E+00
  -0.37400000E+01           0.00000000E+00
  -0.37300000E+01           0.00000000E+00
  -0.37200000E+01           0.00000000E+00
  -0.37100000E+01           0.00000000E+00
  -0.37000000E+01           0.00000000E+00
  -0.36900000E+01           0.00000000E+00
  -0.36800000E+01           0.00000000E+00
  -0.36700000E+01           0.00000000E+00
  -0.36600000E+01           0.00000000E+00
  -0.36500000E+01           0.00000000E+00
  -0.36400000E+01           0.00000000E+00
  -0.36300000E+01           0.00000000E+00
  -0.36200000E+01           0.00000000E+00
  -0.36100000E+01           0.00000000E+00
  -0.36000000E+01           0.00000000E+00
  -0.35900000E+01           0.00000000E+00
  -0.35800000E+01           0.00000000E+00
  -0.35700000E+01           0.00000000E+00
  -0.35600000E+01           0.00000000E+00
  -0.35500000E+01           0.00000000E+00
  -0.35400000E+01           0.00000000E+00
  -0.35300000E+01           0.00000000E+00
  -0.35200000E+01           0.00000000E+00
  -0.35100000E+01           0.00000000E+00
  -0.35000000E+01           0.00000000E+00
  -0.34900000E+01           0.00000000E+00
  -0.34800000E+01           0.00000000E+00
  -0.34700000E+01           0.00000000E+00
  -0.34600000E+01           0.00000000E+00
  -0.34500000E+01           0.00000000E+00
  -0.34400000E+01           0.00000000E+00
  -0.34300000E+01           0.00000000E+00
  -0.34200000E+01           0.00000000E+00
  -0.34100000E+01           0.00000000E+00
  -0.34000000E+01           0.00000000E+00
  -0.33900000E+01           0.00000000E+00
  -0.33800000E+01           0.00000000E+00
  -0.33700000E+01           0.00000000E+00
  -0.33600000E+01           0.00000000E+00
  -0.33500000E+01           0.00000000E+00
  -0.33400000E+01           0.00000000E+00
  -0.33300000E+01           0.00000000E+00
  -0.33200000E+01           0.00000000E+00
  -0.33100000E+01           0.00000000E+00
  -0.33000000E+01           0.00000000E+00
  -0.32900000E+01           0.00000000E+00
  -0.32800000E+01           0.00000000E+00
  -0.32700000E+01           0.00000000E+00
  -0.32600000E+01           0.00000000E+00
  -0.32500000E+01           0.00000000E+00
  -0.32400000E+01           0.00000000E+00
  -0.32300000E+01           0.00000000E+00
  -0.32200000E+01           0.00000000E+00
  -0.32100000E+01           0.00000000E+00
  -0.32000000E+01           0.00000000E+00
  -0.31900000E+01           0.00000000E+00
  -0.31800000E+01           0.00000000E+00
  -0.31700000E+01           0.00000000E+00
  -0.31600000E+01           0.00000000E+00
  -0.31500000E+01           0.00000000E+00
  -0.31400000E+01           0.00000000E+00
  -0.31300000E+01           0.00000000E+00
  -0.31200000E+01           0.00000000E+00
  -0.31100000E+01           0.00000000E+00
  -0.31000000E+01           0.00000000E+00
  -0.30900000E+01           0.00000000E+00
  -0.30800000E+01           0.00000000E+00
  -0.30700000E+01           0.00000000E+00
  -0.30600000E+01           0.00000000E+00
  -0.30500000E+01           0.00000000E+00
  -0.30400000E+01           0.00000000E+00
  -0.30300000E+01           0.00000000E+00
  -0.30200000E+01           0.00000000E+00
  -0.30100000E+01           0.00000000E+00
  -0.30000000E+01           0.00000000E+00
  -0.29900000E+01           0.00000000E+00
  -0.29800000E+01           0.00000000E+00
  -0.29700000E+01           0.00000000E+00
  -0.29600000E+01           0.00000000E+00
  -0.29500000E+01           0.00000000E+00
  -0.29400000E+01           0.00000000E+00
  -0.29300000E+01           0.00000000E+00
  -0.29200000E+01           0.00000000E+00
  -0.29100000E+01           0.00000000E+00
  -0.29000000E+01           0.00000000E+00
  -0.28900000E+01           0.00000000E+00
  -0.28800000E+01           0.00000000E+00
  -0.28700000E+01           0.00000000E+00
  -0.28600000E+01           0.00000000E+00
  -0.28500000E+01           0.00000000E+00
  -0.28400000E+01           0.00000000E+00
  -0.28300000E+01           0.00000000E+00
  -0.28200000E+01           0.00000000E+00
  -0.28100000E+01           0.00000000E+00
  -0.28000000E+01           0.00000000E+00
  -0.27900000E+01           0.00000000E+00
  -0.27800000E+01           0.00000000E+00
  -0.27700000E+01           0.00000000E+00
  -0.27600000E+01           0.00000000E+00
  -0.27500000E+01           0.00000000E+00
  -0.27400000E+01           0.00000000E+00
  -0.27300000E+01           0.00000000E+00
  -0.27200000E+01           0.00000000E+00
  -0.27100000E+01           0.00000000E+00
  -0.27000000E+01           0.00000000E+00
  -0.26900000E+01           0.00000000E+00
  -0.26800000E+01           0.00000000E+00
  -0.26700000E+01           0.00000000E+00
  -0.26600000E+01           0.00000000E+00
  -0.26500000E+01           0.00000000E+00
  -0.26400000E+01           0.00000000E+00
  -0.26300000E+01           0.00000000E+00
  -0.26200000E+01           0.00000000E+00
  -0.26100000E+01           0.00000000E+00
  -0.26000000E+01           0.00000000E+00
  -0.25900000E+01           0.00000000E+00
  -0.25800000E+01           0.00000000E+00
  -0.25700000E+01           0.00000000E+00
  -0.25600000E+01           0.00000000E+00
  -0.25500000E+01           0.00000000E+00
  -0.25400000E+01           0.00000000E+00
  -0.25300000E+01           0.00000000E+00
  -0.25200000E+01           0.00000000E+00
  -0.25100000E+01           0.00000000E+00
  -0.25000000E+01           0.00000000E+00
  -0.24900000E+01           0.00000000E+00
  -0.24800000E+01           0.00000000E+00
  -0.24700000E+01           0.00000000E+00
  -0.24600000E+01           0.00000000E+00
  -0.24500000E+01           0.00000000E+00
  -0.24400000E+01           0.00000000E+00
  -0.24300000E+01           0.00000000E+00
  -0.24200000E+01           0.00000000E+00
  -0.24100000E+01           0.00000000E+00
  -0.24000000E+01           0.00000000E+00
  -0.23900000E+01           0.00000000E+00
  -0.23800000E+01           0.00000000E+00
  -0.23700000E+01           0.00000000E+00
  -0.23600000E+01           0.00000000E+00
  -0.23500000E+01           0.00000000E+00
  -0.23400000E+01           0.00000000E+00
  -0.23300000E+01           0.00000000E+00
  -0.23200000E+01           0.00000000E+00
  -0.23100000E+01           0.00000000E+00
  -0.23000000E+01           0.00000000E+00
  -0.22900000E+01           0.00000000E+00
  -0.22800000E+01           0.00000000E+00
  -0.22700000E+01           0.00000000E+00
  -0.22600000E+01           0.00000000E+00
  -0.22500000E+01           0.00000000E+00
  -0.22400000E+01           0.00000000E+00
  -0.22300000E+01           0.00000000E+00
  -0.22200000E+01           0.00000000E+00
  -0.22100000E+01           0.00000000E+00
  -0.22000000E+01           0.00000000E+00
  -0.21900000E+01           0.00000000E+00
  -0.21800000E+01           0.00000000E+00
  -0.21700000E+01           0.00000000E+00
  -0.21600000E+01           0.00000000E+00
  -0.21500000E+01           0.00000000E+00
  -0.21400000E+01           0.00000000E+00
  -0.21300000E+01           0.00000000E+00
  -0.21200000E+01           0.00000000E+00
  -0.21100000E+01           0.00000000E+00
  -0.21000000E+01           0.00000000E+00
  -0.20900000E+01           0.00000000E+00
  -0.20800000E+01           0.00000000E+00
  -0.20700000E+01           0.00000000E+00
  -0.20600000E+01           0.00000000E+00
  -0.20500000E+01           0.00000000E+00
  -0.20400000E+01           0.00000000E+00
  -0.20300000E+01           0.00000000E+00
  -0.20200000E+01           0.00000000E+00
  -0.20100000E+01           0.00000000E+00
  -0.20000000E+01           0.00000000E+00
  -0.19900000E+01           0.00000000E+00
  -0.19800000E+01           0.00000000E+00
  -0.19700000E+01           0.00000000E+00
  -0.19600000E+01           0.00000000E+00
  -0.19500000E+01           0.00000000E+00
  -0.19400000E+01           0.00000000E+00
  -0.19300000E+01           0.00000000E+00
  -0.19200000E+01           0.00000000E+00
  -0.19100000E+01           0.00000000E+00
  -0.19000000E+01           0.00000000E+00
  -0.18900000E+01           0.00000000E+00
  -0.18800000E+01           0.00000000E+00
  -0.18700000E+01           0.00000000E+00
  -0.18600000E+01           0.00000000E+00
  -0.18500000E+01           0.00000000E+00
  -0.18400000E+01           0.00000000E+00
  -0.18300000E+01           0.00000000E+00
  -0.18200000E+01           0.00000000E+00
  -0.18100000E+01           0.00000000E+00
  -0.18000000E+01           0.00000000E+00
  -0.17900000E+01           0.00000000E+00
  -0.17800000E+01           0.00000000E+00
  -0.17700000E+01           0.00000000E+00
  -0.17600000E+01           0.00000000E+00
  -0.17500000E+01           0.00000000E+00
  -0.17400000E+01           0.00000000E+00
  -0.17300000E+01           0.00000000E+00
  -0.17200000E+01           0.00000000E+00
  -0.17100000E+01           0.00000000E+00
  -0.17000000E+01           0.00000000E+00
  -0.16900000E+01           0.00000000E+00
  -0.16800000E+01           0.00000000E+00
  -0.16700000E+01           0.00000000E+00
  -0.16600000E+01           0.00000000E+00
  -0.16500000E+01           0.00000000E+00
  -0.16400000E+01           0.00000000E+00
  -0.16300000E+01           0.00000000E+00
  -0.16200000E+01           0.00000000E+00
  -0.16100000E+01           0.00000000E+00
  -0.16000000E+01           0.00000000E+00
  -0.15900000E+01           0.00000000E+00
  -0.15800000E+01           0.00000000E+00
  -0.15700000E+01           0.00000000E+00
  -0.15600000E+01           0.00000000E+00
  -0.15500000E+01           0.00000000E+00
  -0.15400000E+01           0.00000000E+00
  -0.15300000E+01           0.00000000E+00
  -0.15200000E+01           0.00000000E+00
  -0.15100000E+01           0.00000000E+00
  -0.15000000E+01           0.00000000E+00
  -0.14900000E+01           0.00000000E+00
  -0.14800000E+01           0.00000000E+00
  -0.14700000E+01           0.00000000E+00
  -0.14600000E+01           0.00000000E+00
  -0.14500000E+01           0.00000000E+00
  -0.14400000E+01           0.00000000E+00
  -0.14300000E+01           0.00000000E+00
  -0.14200000E+01           0.00000000E+00
  -0.14100000E+01           0.00000000E+00
  -0.14000000E+01           0.00000000E+00
  -0.13900000E+01           0.00000000E+00
  -0.13800000E+01           0.00000000E+00
  -0.13700000E+01           0.00000000E+00
  -0.13600000E+01           0.00000000E+00
  -0.13500000E+01           0.00000000E+00
  -0.13400000E+01           0.00000000E+00
  -0.13300000E+01           0.00000000E+00
  -0.13200000E+01           0.00000000E+00
  -0.13100000E+01           0.00000000E+00
  -0.13000000E+01           0.00000000E+00
  -0.12900000E+01           0.00000000E+00
  -0.12800000E+01           0.00000000E+00
  -0.12700000E+01           0.00000000E+00
  -0.12600000E+01           0.00000000E+00
  -0.12500000E+01           0.00000000E+00
  -0.12400000E+01           0.00000000E+00
  -0.12300000E+01           0.00000000E+00
  -0.12200000E+01           0.00000000E+00
  -0.12100000E+01           0.00000000E+00
  -0.12000000E+01           0.00000000E+00
  -0.11900000E+01           0.00000000E+00
  -0.11800000E+01           0.00000000E+00
  -0.11700000E+01           0.00000000E+00
  -0.11600000E+01           0.00000000E+00
  -0.11500000E+01           0.00000000E+00
  -0.11400000E+01           0.00000000E+00
  -0.11300000E+01           0.00000000E+00
  -0.11200000E+01           0.00000000E+00
  -0.11100000E+01           0.00000000E+00
  -0.11000000E+01           0.00000000E+00
  -0.10900000E+01           0.00000000E+00
  -0.10800000E+01           0.00000000E+00
  -0.10700000E+01           0.00000000E+00
  -0.10600000E+01           0.00000000E+00
  -0.10500000E+01           0.00000000E+00
  -0.10400000E+01           0.00000000E+00
  -0.10300000E+01           0.00000000E+00
  -0.10200000E+01           0.00000000E+00
  -0.10100000E+01           0.00000000E+00
  -0.10000000E+01           0.00000000E+00
  -0.99000000E+00           0.00000000E+00
  -0.98000000E+00           0.00000000E+00
  -0.97000000E+00           0.00000000E+00
  -0.96000000E+00           0.00000000E+00
  -0.95000000E+00           0.00000000E+00
  -0.94000000E+00           0.00000000E+00
  -0.93000000E+00           0.00000000E+00
  -0.92000000E+00           0.00000000E+00
  -0.91000000E+00           0.00000000E+00
  -0.90000000E+00           0.00000000E+00
  -0.89000000E+00           0.00000000E+00
  -0.88000000E+00           0.00000000E+00
  -0.87000000E+00           0.00000000E+00
  -0.86000000E+00           0.00000000E+00
  -0.85000000E+00           0.00000000E+00
  -0.84000000E+00           0.00000000E+00
  -0.83000000E+00           0.00000000E+00
  -0.82000000E+00           0.00000000E+00
  -0.81000000E+00           0.00000000E+00
  -0.80000000E+00           0.00000000E+00
  -0.79000000E+00           0.00000000E+00
  -0.78000000E+00           0.00000000E+00
  -0.77000000E+00           0.00000000E+00
  -0.76000000E+00           0.00000000E+00
  -0.75000000E+00           0.00000000E+00
  -0.74000000E+00           0.00000000E+00
  -0.73000000E+00           0.00000000E+00
  -0.72000000E+00           0.00000000E+00
  -0.71000000E+00           0.00000000E+00
  -0.70000000E+00           0.00000000E+00
  -0.69000000E+00           0.00000000E+00
  -0.68000000E+00           0.00000000E+00
  -0.67000000E+00           0.00000000E+00
  -0.66000000E+00           0.00000000E+00
  -0.65000000E+00           0.00000000E+00
  -0.64000000E+00           0.00000000E+00
  -0.63000000E+00           0.00000000E+00
  -0.62000000E+00           0.00000000E+00
  -0.61000000E+00           0.00000000E+00
  -0.60000000E+00           0.00000000E+00
  -0.59000000E+00           0.00000000E+00
  -0.58000000E+00           0.00000000E+00
  -0.57000000E+00           0.00000000E+00
  -0.56000000E+00           0.00000000E+00
  -0.55000000E+00           0.00000000E+00
  -0.54000000E+00           0.00000000E+00
  -0.53000000E+00           0.00000000E+00
  -0.52000000E+00           0.00000000E+00
  -0.51000000E+00           0.00000000E+00
  -0.50000000E+00           0.00000000E+00
  -0.49000000E+00           0.00000000E+00
  -0.48000000E+00           0.00000000E+00
  -0.47000000E+00           0.00000000E+00
  -0.46000000E+00           0.00000000E+00
  -0.45000000E+00           0.00000000E+00
  -0.44000000E+00           0.00000000E+00
  -0.43000000E+00           0.00000000E+00
  -0.42000000E+00           0.00000000E+00
  -0.41000000E+00           0.00000000E+00
  -0.40000000E+00           0.00000000E+00
  -0.39000000E+00           0.00000000E+00
  -0.38000000E+00           0.00000000E+00
  -0.37000000E+00           0.00000000E+00
  -0.36000000E+00           0.00000000E+00
  -0.35000000E+00           0.00000000E+00
  -0.34000000E+00           0.00000000E+00
  -0.33000000E+00           0.00000000E+00
  -0.32000000E+00           0.00000000E+00
  -0.31000000E+00           0.00000000E+00
  -0.30000000E+00           0.00000000E+00
  -0.29000000E+00           0.00000000E+00
  -0.28000000E+00           0.00000000E+00
  -0.27000000E+00           0.00000000E+00
  -0.26000000E+00           0.00000000E+00
  -0.25000000E+00           0.00000000E+00
  -0.24000000E+00           0.00000000E+00
  -0.23000000E+00           0.00000000E+00
  -0.22000000E+00           0.00000000E+00
  -0.21000000E+00           0.00000000E+00
  -0.20000000E+00           0.00000000E+00
  -0.19000000E+00           0.00000000E+00
  -0.18000000E+00           0.00000000E+00
  -0.17000000E+00           0.00000000E+00
  -0.16000000E+00           0.00000000E+00
  -0.15000000E+00           0.00000000E+00
  -0.14000000E+00           0.00000000E+00
  -0.13000000E+00           0.00000000E+00
  -0.12000000E+00           0.00000000E+00
  -0.11000000E+00           0.00000000E+00
  -0.10000000E+00           0.00000000E+00
  -0.90000000E-01           0.00000000E+00
  -0.80000000E-01           0.00000000E+00
  -0.70000000E-01           0.00000000E+00
  -0.60000000E-01           0.00000000E+00
  -0.50000000E-01           0.00000000E+00
  -0.40000000E-01           0.00000000E+00
  -0.30000000E-01           0.00000000E+00
  -0.20000000E-01           0.00000000E+00
  -0.10000000E-01           0.00000000E+00
   0.00000000E+00           0.13333333E-03
   0.10000000E-01           0.33712963E-02
   0.20000000E-01           0.11796111E-01
   0.30000000E-01           0.24189444E-01
   0.40000000E-01           0.40324815E-01
   0.50000000E-01           0.58497963E-01
   0.60000000E-01           0.78680000E-01
   0.70000000E-01           0.10021204E+00
   0.80000000E-01           0.12402722E+00
   0.90000000E-01           0.14696852E+00
   0.10000000E+00           0.17102593E+00
   0.11000000E+00           0.19488259E+00
   0.12000000E+00           0.21983907E+00
   0.13000000E+00           0.24372204E+00
   0.14000000E+00           0.26754833E+00
   0.15000000E+00           0.29149389E+00
   0.16000000E+00           0.31470889E+00
   0.17000000E+00           0.33874370E+00
   0.18000000E+00           0.36150167E+00
   0.19000000E+00           0.38370741E+00
   0.20000000E+00           0.40603204E+00
   0.21000000E+00           0.42738463E+00
   0.22000000E+00           0.44849426E+00
   0.23000000E+00           0.46938407E+00
   0.24000000E+00           0.48956333E+00
   0.25000000E+00           0.50902574E+00
   0.26000000E+00           0.52743000E+00
   0.27000000E+00           0.54605889E+00
   0.28000000E+00           0.56484815E+00
   0.29000000E+00           0.58346667E+00
   0.30000000E+00           0.60036981E+00
   0.31000000E+00           0.61598500E+00
   0.32000000E+00           0.63295759E+00
   0.33000000E+00           0.64822630E+00
   0.34000000E+00           0.66287000E+00
   0.35000000E+00           0.67812778E+00
   0.36000000E+00           0.69290630E+00
   0.37000000E+00           0.70591407E+00
   0.38000000E+00           0.71903685E+00
   0.39000000E+00           0.73197870E+00
   0.40000000E+00           0.74433667E+00
   0.41000000E+00           0.75591815E+00
   0.42000000E+00           0.76622889E+00
   0.43000000E+00           0.77634741E+00
   0.44000000E+00           0.78710167E+00
   0.45000000E+00           0.79693074E+00
   0.46000000E+00           0.80601185E+00
   0.47000000E+00           0.81481685E+00
   0.48000000E+00           0.82205630E+00
   0.49000000E+00           0.83012796E+00
   0.50000000E+00           0.83822852E+00
   0.51000000E+00           0.84355556E+00
   0.52000000E+00           0.85015185E+00
   0.53000000E+00           0.85538148E+00
   0.54000000E+00           0.86000722E+00
   0.55000000E+00           0.86350056E+00
   0.56000000E+00           0.86811537E+00
   0.57000000E+00           0.87223204E+00
   0.58000000E+00           0.87630981E+00
   0.59000000E+00           0.87685556E+00
   0.60000000E+00           0.87854000E+00
   0.61000000E+00           0.88131574E+00
   0.62000000E+00           0.88238056E+00
   0.63000000E+00           0.88438204E+00
   0.64000000E+00           0.88334296E+00
   0.65000000E+00           0.88307056E+00
   0.66000000E+00           0.88279111E+00
   0.67000000E+00           0.88112426E+00
   0.68000000E+00           0.88066167E+00
   0.69000000E+00           0.87918241E+00
   0.70000000E+00           0.87648259E+00
   0.71000000E+00           0.87396907E+00
   0.72000000E+00           0.87073722E+00
   0.73000000E+00           0.86663500E+00
   0.74000000E+00           0.86418130E+00
   0.75000000E+00           0.85936537E+00
   0.76000000E+00           0.85513426E+00
   0.77000000E+00           0.84948056E+00
   0.78000000E+00           0.84554426E+00
   0.79000000E+00           0.84019926E+00
   0.80000000E+00           0.83353815E+00
   0.81000000E+00           0.82708722E+00
   0.82000000E+00           0.82105759E+00
   0.83000000E+00           0.81487148E+00
   0.84000000E+00           0.80779741E+00
   0.85000000E+00           0.80118833E+00
   0.86000000E+00           0.79199333E+00
   0.87000000E+00           0.78523481E+00
   0.88000000E+00           0.77695185E+00
   0.89000000E+00           0.76850796E+00
   0.90000000E+00           0.76118333E+00
   0.91000000E+00           0.75271222E+00
   0.92000000E+00           0.74363278E+00
   0.93000000E+00           0.73519852E+00
   0.94000000E+00           0.72578093E+00
   0.95000000E+00           0.71663519E+00
   0.96000000E+00           0.70735870E+00
   0.97000000E+00           0.69789519E+00
   0.98000000E+00           0.68838537E+00
   0.99000000E+00           0.67895889E+00
   0.10000000E+01           0.66838148E+00
   0.10100000E+01           0.65750685E+00
   0.10200000E+01           0.64931130E+00
   0.10300000E+01           0.63817796E+00
   0.10400000E+01           0.62798759E+00
   0.10500000E+01           0.61828407E+00
   0.10600000E+01           0.60729815E+00
   0.10700000E+01           0.59755907E+00
   0.10800000E+01           0.58725741E+00
   0.10900000E+01           0.57678870E+00
   0.11000000E+01           0.56592241E+00
   0.11100000E+01           0.55597963E+00
   0.11200000E+01           0.54547333E+00
   0.11300000E+01           0.53517204E+00
   0.11400000E+01           0.52496722E+00
   0.11500000E+01           0.51436167E+00
   0.11600000E+01           0.50421574E+00
   0.11700000E+01           0.49314074E+00
   0.11800000E+01           0.48394074E+00
   0.11900000E+01           0.47309630E+00
   0.12000000E+01           0.46277389E+00
   0.12100000E+01           0.45288667E+00
   0.12200000E+01           0.44303778E+00
   0.12300000E+01           0.43314241E+00
   0.12400000E+01           0.42316370E+00
   0.12500000E+01           0.41379148E+00
   0.12600000E+01           0.40371241E+00
   0.12700000E+01           0.39362000E+00
   0.12800000E+01           0.38537519E+00
   0.12900000E+01           0.37569574E+00
   0.13000000E+01           0.36682407E+00
   0.13100000E+01           0.35747870E+00
   0.13200000E+01           0.34781722E+00
   0.13300000E+01           0.33926648E+00
   0.13400000E+01           0.33094907E+00
   0.13500000E+01           0.32207556E+00
   0.13600000E+01           0.31309481E+00
   0.13700000E+01           0.30525648E+00
   0.13800000E+01           0.29675556E+00
   0.13900000E+01           0.28882296E+00
   0.14000000E+01           0.28050167E+00
   0.14100000E+01           0.27274333E+00
   0.14200000E+01           0.26533759E+00
   0.14300000E+01           0.25832704E+00
   0.14400000E+01           0.25021296E+00
   0.14500000E+01           0.24357407E+00
   0.14600000E+01           0.23635574E+00
   0.14700000E+01           0.22922852E+00
   0.14800000E+01           0.22278000E+00
   0.14900000E+01           0.21616963E+00
   0.15000000E+01           0.21020037E+00
   0.15100000E+01           0.20399648E+00
   0.15200000E+01           0.19824648E+00
   0.15300000E+01           0.19197667E+00
   0.15400000E+01           0.18646296E+00
   0.15500000E+01           0.18135648E+00
   0.15600000E+01           0.17616259E+00
   0.15700000E+01           0.17093278E+00
   0.15800000E+01           0.16625426E+00
   0.15900000E+01           0.16196630E+00
   0.16000000E+01           0.15757148E+00
   0.16100000E+01           0.15377204E+00
   0.16200000E+01           0.15007722E+00
   0.16300000E+01           0.14653185E+00
   0.16400000E+01           0.14303056E+00
   0.16500000E+01           0.14016111E+00
   0.16600000E+01           0.13750981E+00
   0.16700000E+01           0.13535370E+00
   0.16800000E+01           0.13404815E+00
   0.16900000E+01           0.13187648E+00
   0.17000000E+01           0.13087333E+00
   0.17100000E+01           0.13031870E+00
   0.17200000E+01           0.12943407E+00
   0.17300000E+01           0.12982741E+00
   0.17400000E+01           0.13012111E+00
   0.17500000E+01           0.13149778E+00
   0.17600000E+01           0.13306333E+00
   0.17700000E+01           0.13528944E+00
   0.17800000E+01           0.13862333E+00
   0.17900000E+01           0.14193852E+00
   0.18000000E+01           0.14631574E+00
   0.18100000E+01           0.15102444E+00
   0.18200000E+01           0.15680370E+00
   0.18300000E+01           0.16347037E+00
   0.18400000E+01           0.17047537E+00
   0.18500000E+01           0.17875500E+00
   0.18600000E+01           0.18796093E+00
   0.18700000E+01           0.19723704E+00
   0.18800000E+01           0.20758222E+00
   0.18900000E+01           0.21946611E+00
   0.19000000E+01           0.23044037E+00
   0.19100000E+01           0.24271963E+00
   0.19200000E+01           0.25470519E+00
   0.19300000E+01           0.26668259E+00
   0.19400000E+01           0.27790130E+00
   0.19500000E+01           0.28814278E+00
   0.19600000E+01           0.29697778E+00
   0.19700000E+01           0.30241704E+00
   0.19800000E+01           0.30477000E+00
   0.19900000E+01           0.30163019E+00
   0.20000000E+01           0.29046889E+00
   0.20100000E+01           0.27701685E+00
   0.20200000E+01           0.26323944E+00
   0.20300000E+01           0.24959315E+00
   0.20400000E+01           0.23683185E+00
   0.20500000E+01           0.22506130E+00
   0.20600000E+01           0.21333204E+00
   0.20700000E+01           0.20214185E+00
   0.20800000E+01           0.19182778E+00
   0.20900000E+01           0.18211630E+00
   0.21000000E+01           0.17244778E+00
   0.21100000E+01           0.16341574E+00
   0.21200000E+01           0.15483926E+00
   0.21300000E+01           0.14647148E+00
   0.21400000E+01           0.13851130E+00
   0.21500000E+01           0.13108074E+00
   0.21600000E+01           0.12385574E+00
   0.21700000E+01           0.11694556E+00
   0.21800000E+01           0.11053889E+00
   0.21900000E+01           0.10444167E+00
   0.22000000E+01           0.98668333E-01
   0.22100000E+01           0.93202037E-01
   0.22200000E+01           0.87634074E-01
   0.22300000E+01           0.82866111E-01
   0.22400000E+01           0.77854444E-01
   0.22500000E+01           0.73328333E-01
   0.22600000E+01           0.69299815E-01
   0.22700000E+01           0.64919074E-01
   0.22800000E+01           0.61245370E-01
   0.22900000E+01           0.57728889E-01
   0.23000000E+01           0.54264259E-01
   0.23100000E+01           0.51035000E-01
   0.23200000E+01           0.47601481E-01
   0.23300000E+01           0.45039259E-01
   0.23400000E+01           0.42151111E-01
   0.23500000E+01           0.39755000E-01
   0.23600000E+01           0.37262963E-01
   0.23700000E+01           0.34822593E-01
   0.23800000E+01           0.32754630E-01
   0.23900000E+01           0.30661852E-01
   0.24000000E+01           0.28555370E-01
   0.24100000E+01           0.26832407E-01
   0.24200000E+01           0.25169815E-01
   0.24300000E+01           0.23566111E-01
   0.24400000E+01           0.21940000E-01
   0.24500000E+01           0.20502593E-01
   0.24600000E+01           0.19277778E-01
   0.24700000E+01           0.17928333E-01
   0.24800000E+01           0.16910185E-01
   0.24900000E+01           0.15731481E-01
   0.25000000E+01           0.14574074E-01
   0.25100000E+01           0.13619444E-01
   0.25200000E+01           0.12771667E-01
   0.25300000E+01           0.11904815E-01
   0.25400000E+01           0.11046111E-01
   0.25500000E+01           0.10305370E-01
   0.25600000E+01           0.96181481E-02
   0.25700000E+01           0.88368519E-02
   0.25800000E+01           0.82801852E-02
   0.25900000E+01           0.76218519E-02
   0.26000000E+01           0.71688889E-02
   0.26100000E+01           0.66509259E-02
   0.26200000E+01           0.62455556E-02
   0.26300000E+01           0.56938889E-02
   0.26400000E+01           0.52862963E-02
   0.26500000E+01           0.48481481E-02
   0.26600000E+01           0.45862963E-02
   0.26700000E+01           0.42081481E-02
   0.26800000E+01           0.39074074E-02
   0.26900000E+01           0.36570370E-02
   0.27000000E+01           0.33692593E-02
   0.27100000E+01           0.31194444E-02
   0.27200000E+01           0.29024074E-02
   0.27300000E+01           0.26618519E-02
   0.27400000E+01           0.24337037E-02
   0.27500000E+01           0.22800000E-02
   0.27600000E+01           0.20911111E-02
   0.27700000E+01           0.19309259E-02
   0.27800000E+01           0.18235185E-02
   0.27900000E+01           0.16277778E-02
   0.28000000E+01           0.15250000E-02
   0.28100000E+01           0.14151852E-02
   0.28200000E+01           0.12650000E-02
   0.28300000E+01           0.11887037E-02
   0.28400000E+01           0.10950000E-02
   0.28500000E+01           0.10140741E-02
   0.28600000E+01           0.93370370E-03
   0.28700000E+01           0.86500000E-03
   0.28800000E+01           0.79018519E-03
   0.28900000E+01           0.71388889E-03
   0.29000000E+01           0.66000000E-03
   0.29100000E+01           0.60703704E-03
   0.29200000E+01           0.56037037E-03
   0.29300000E+01           0.50240741E-03
   0.29400000E+01           0.45888889E-03
   0.29500000E+01           0.42777778E-03
   0.29600000E+01           0.38925926E-03
   0.29700000E+01           0.35351852E-03
   0.29800000E+01           0.32333333E-03
   0.29900000E+01           0.29796296E-03
   0.30000000E+01           0.27611111E-03
   0.30100000E+01           0.25592593E-03
   0.30200000E+01           0.22870370E-03
   0.30300000E+01           0.22296296E-03
   0.30400000E+01           0.19574074E-03
   0.30500000E+01           0.17129630E-03
   0.30600000E+01           0.16833333E-03
   0.30700000E+01           0.15555556E-03
   0.30800000E+01           0.13333333E-03
   0.30900000E+01           0.12018519E-03
   0.31000000E+01           0.12370370E-03
   0.31100000E+01           0.95740741E-04
   0.31200000E+01           0.94444444E-04
   0.31300000E+01           0.83703704E-04
   0.31400000E+01           0.80925926E-04
   0.31500000E+01           0.69074074E-04
   0.31600000E+01           0.66111111E-04
   0.31700000E+01           0.56666667E-04
   0.31800000E+01           0.48888889E-04
   0.31900000E+01           0.52592593E-04
   0.32000000E+01           0.42407407E-04
   0.32100000E+01           0.42777778E-04
   0.32200000E+01           0.35555556E-04
   0.32300000E+01           0.32407407E-04
   0.32400000E+01           0.30185185E-04
   0.32500000E+01           0.27222222E-04
   0.32600000E+01           0.22407407E-04
   0.32700000E+01           0.22592593E-04
   0.32800000E+01           0.20185185E-04
   0.32900000E+01           0.16296296E-04
   0.33000000E+01           0.16851852E-04
   0.33100000E+01           0.19814815E-04
   0.33200000E+01           0.12037037E-04
   0.33300000E+01           0.14629630E-04
   0.33400000E+01           0.11851852E-04
   0.33500000E+01           0.10925926E-04
   0.33600000E+01           0.87037037E-05
   0.33700000E+01           0.70370370E-05
   0.33800000E+01           0.66666667E-05
   0.33900000E+01           0.61111111E-05
   0.34000000E+01           0.66666667E-05
   0.34100000E+01           0.53703704E-05
   0.34200000E+01           0.64814815E-05
   0.34300000E+01           0.55555556E-05
   0.34400000E+01           0.42592593E-05
   0.34500000E+01           0.40740741E-05
   0.34600000E+01           0.37037037E-05
   0.34700000E+01           0.33333333E-05
   0.34800000E+01           0.24074074E-05
   0.34900000E+01           0.24074074E-05
   0.35000000E+01           0.20370370E-05
   0.35100000E+01           0.18518519E-05
   0.35200000E+01           0.18518519E-05
   0.35300000E+01           0.22222222E-05
   0.35400000E+01           0.12962963E-05
   0.35500000E+01           0.18518519E-05
   0.35600000E+01           0.74074074E-06
   0.35700000E+01           0.11111111E-05
   0.35800000E+01           0.55555556E-06
   0.35900000E+01           0.55555556E-06
   0.36000000E+01           0.55555556E-06
   0.36100000E+01           0.55555556E-06
   0.36200000E+01           0.00000000E+00
   0.36300000E+01           0.37037037E-06
   0.36400000E+01           0.37037037E-06
   0.36500000E+01           0.37037037E-06
   0.36600000E+01           0.37037037E-06
   0.36700000E+01           0.18518519E-06
   0.36800000E+01           0.37037037E-06
   0.36900000E+01           0.55555556E-06
   0.37000000E+01           0.55555556E-06
   0.37100000E+01           0.18518519E-06
   0.37200000E+01           0.18518519E-06
   0.37300000E+01           0.18518519E-06
   0.37400000E+01           0.37037037E-06
   0.37500000E+01           0.00000000E+00
   0.37600000E+01           0.74074074E-06
   0.37700000E+01           0.37037037E-06
   0.37800000E+01           0.00000000E+00
   0.37900000E+01           0.18518519E-06
   0.38000000E+01           0.18518519E-06
   0.38100000E+01           0.18518519E-06
   0.38200000E+01           0.18518519E-06
   0.38300000E+01           0.00000000E+00
   0.38400000E+01           0.00000000E+00
   0.38500000E+01           0.18518519E-06
   0.38600000E+01           0.00000000E+00
   0.38700000E+01           0.00000000E+00
   0.38800000E+01           0.00000000E+00
   0.38900000E+01           0.00000000E+00
   0.39000000E+01           0.00000000E+00
   0.39100000E+01           0.00000000E+00
   0.39200000E+01           0.00000000E+00
   0.39300000E+01           0.00000000E+00
   0.39400000E+01           0.00000000E+00
   0.39500000E+01           0.00000000E+00
   0.39600000E+01           0.00000000E+00
   0.39700000E+01           0.00000000E+00
   0.39800000E+01           0.00000000E+00
   0.39900000E+01           0.00000000E+00
   0.40000000E+01           0.00000000E+00
 #T=    42.0000
  -0.40000000E+01           0.00000000E+00
  -0.39900000E+01           0.00000000E+00
  -0.39800000E+01           0.00000000E+00
  -0.39700000E+01           0.00000000E+00
  -0.39600000E+01           0.00000000E+00
  -0.39500000E+01           0.00000000E+00
  -0.39400000E+01           0.00000000E+00
  -0.39300000E+01           0.00000000E+00
  -0.39200000E+01           0.00000000E+00
  -0.39100000E+01           0.00000000E+00
  -0.39000000E+01           0.00000000E+00
  -0.38900000E+01           0.00000000E+00
  -0.38800000E+01           0.00000000E+00
  -0.38700000E+01           0.00000000E+00
  -0.38600000E+01           0.00000000E+00
  -0.38500000E+01           0.00000000E+00
  -0.38400000E+01           0.00000000E+00
  -0.38300000E+01           0.00000000E+00
  -0.38200000E+01           0.00000000E+00
  -0.38100000E+01           0.00000000E+00
  -0.38000000E+01           0.00000000E+00
  -0.37900000E+01           0.00000000E+00
  -0.37800000E+01           0.00000000E+00
  -0.37700000E+01           0.00000000E+00
  -0.37600000E+01           0.00000000E+00
  -0.37500000E+01           0.00000000E+00
  -0.37400000E+01           0.00000000E+00
  -0.37300000E+01           0.00000000E+00
  -0.37200000E+01           0.00000000E+00
  -0.37100000E+01           0.00000000E+00
  -0.37000000E+01           0.00000000E+00
  -0.36900000E+01           0.00000000E+00
  -0.36800000E+01           0.00000000E+00
  -0.36700000E+01           0.00000000E+00
  -0.36600000E+01           0.00000000E+00
  -0.36500000E+01           0.00000000E+00
  -0.36400000E+01           0.00000000E+00
  -0.36300000E+01           0.00000000E+00
  -0.36200000E+01           0.00000000E+00
  -0.36100000E+01           0.00000000E+00
  -0.36000000E+01           0.00000000E+00
  -0.35900000E+01           0.00000000E+00
  -0.35800000E+01           0.00000000E+00
  -0.35700000E+01           0.00000000E+00
  -0.35600000E+01           0.00000000E+00
  -0.35500000E+01           0.00000000E+00
  -0.35400000E+01           0.00000000E+00
  -0.35300000E+01           0.00000000E+00
  -0.35200000E+01           0.00000000E+00
  -0.35100000E+01           0.00000000E+00
  -0.35000000E+01           0.00000000E+00
  -0.34900000E+01           0.00000000E+00
  -0.34800000E+01           0.00000000E+00
  -0.34700000E+01           0.00000000E+00
  -0.34600000E+01           0.00000000E+00
  -0.34500000E+01           0.00000000E+00
  -0.34400000E+01           0.00000000E+00
  -0.34300000E+01           0.00000000E+00
  -0.34200000E+01           0.00000000E+00
  -0.34100000E+01           0.00000000E+00
  -0.34000000E+01           0.00000000E+00
  -0.33900000E+01           0.00000000E+00
  -0.33800000E+01           0.00000000E+00
  -0.33700000E+01           0.00000000E+00
  -0.33600000E+01           0.00000000E+00
  -0.33500000E+01           0.00000000E+00
  -0.33400000E+01           0.00000000E+00
  -0.33300000E+01           0.00000000E+00
  -0.33200000E+01           0.00000000E+00
  -0.33100000E+01           0.00000000E+00
  -0.33000000E+01           0.00000000E+00
  -0.32900000E+01           0.00000000E+00
  -0.32800000E+01           0.00000000E+00
  -0.32700000E+01           0.00000000E+00
  -0.32600000E+01           0.00000000E+00
  -0.32500000E+01           0.00000000E+00
  -0.32400000E+01           0.00000000E+00
  -0.32300000E+01           0.00000000E+00
  -0.32200000E+01           0.00000000E+00
  -0.32100000E+01           0.00000000E+00
  -0.32000000E+01           0.00000000E+00
  -0.31900000E+01           0.00000000E+00
  -0.31800000E+01           0.00000000E+00
  -0.31700000E+01           0.00000000E+00
  -0.31600000E+01           0.00000000E+00
  -0.31500000E+01           0.00000000E+00
  -0.31400000E+01           0.00000000E+00
  -0.31300000E+01           0.00000000E+00
  -0.31200000E+01           0.00000000E+00
  -0.31100000E+01           0.00000000E+00
  -0.31000000E+01           0.00000000E+00
  -0.30900000E+01           0.00000000E+00
  -0.30800000E+01           0.00000000E+00
  -0.30700000E+01           0.00000000E+00
  -0.30600000E+01           0.00000000E+00
  -0.30500000E+01           0.00000000E+00
  -0.30400000E+01           0.00000000E+00
  -0.30300000E+01           0.00000000E+00
  -0.30200000E+01           0.00000000E+00
  -0.30100000E+01           0.00000000E+00
  -0.30000000E+01           0.00000000E+00
  -0.29900000E+01           0.00000000E+00
  -0.29800000E+01           0.00000000E+00
  -0.29700000E+01           0.00000000E+00
  -0.29600000E+01           0.00000000E+00
  -0.29500000E+01           0.00000000E+00
  -0.29400000E+01           0.00000000E+00
  -0.29300000E+01           0.00000000E+00
  -0.29200000E+01           0.00000000E+00
  -0.29100000E+01           0.00000000E+00
  -0.29000000E+01           0.00000000E+00
  -0.28900000E+01           0.00000000E+00
  -0.28800000E+01           0.00000000E+00
  -0.28700000E+01           0.00000000E+00
  -0.28600000E+01           0.00000000E+00
  -0.28500000E+01           0.00000000E+00
  -0.28400000E+01           0.00000000E+00
  -0.28300000E+01           0.00000000E+00
  -0.28200000E+01           0.00000000E+00
  -0.28100000E+01           0.00000000E+00
  -0.28000000E+01           0.00000000E+00
  -0.27900000E+01           0.00000000E+00
  -0.27800000E+01           0.00000000E+00
  -0.27700000E+01           0.00000000E+00
  -0.27600000E+01           0.00000000E+00
  -0.27500000E+01           0.00000000E+00
  -0.27400000E+01           0.00000000E+00
  -0.27300000E+01           0.00000000E+00
  -0.27200000E+01           0.00000000E+00
  -0.27100000E+01           0.00000000E+00
  -0.27000000E+01           0.00000000E+00
  -0.26900000E+01           0.00000000E+00
  -0.26800000E+01           0.00000000E+00
  -0.26700000E+01           0.00000000E+00
  -0.26600000E+01           0.00000000E+00
  -0.26500000E+01           0.00000000E+00
  -0.26400000E+01           0.00000000E+00
  -0.26300000E+01           0.00000000E+00
  -0.26200000E+01           0.00000000E+00
  -0.26100000E+01           0.00000000E+00
  -0.26000000E+01           0.00000000E+00
  -0.25900000E+01           0.00000000E+00
  -0.25800000E+01           0.00000000E+00
  -0.25700000E+01           0.00000000E+00
  -0.25600000E+01           0.00000000E+00
  -0.25500000E+01           0.00000000E+00
  -0.25400000E+01           0.00000000E+00
  -0.25300000E+01           0.00000000E+00
  -0.25200000E+01           0.00000000E+00
  -0.25100000E+01           0.00000000E+00
  -0.25000000E+01           0.00000000E+00
  -0.24900000E+01           0.00000000E+00
  -0.24800000E+01           0.00000000E+00
  -0.24700000E+01           0.00000000E+00
  -0.24600000E+01           0.00000000E+00
  -0.24500000E+01           0.00000000E+00
  -0.24400000E+01           0.00000000E+00
  -0.24300000E+01           0.00000000E+00
  -0.24200000E+01           0.00000000E+00
  -0.24100000E+01           0.00000000E+00
  -0.24000000E+01           0.00000000E+00
  -0.23900000E+01           0.00000000E+00
  -0.23800000E+01           0.00000000E+00
  -0.23700000E+01           0.00000000E+00
  -0.23600000E+01           0.00000000E+00
  -0.23500000E+01           0.00000000E+00
  -0.23400000E+01           0.00000000E+00
  -0.23300000E+01           0.00000000E+00
  -0.23200000E+01           0.00000000E+00
  -0.23100000E+01           0.00000000E+00
  -0.23000000E+01           0.00000000E+00
  -0.22900000E+01           0.00000000E+00
  -0.22800000E+01           0.00000000E+00
  -0.22700000E+01           0.00000000E+00
  -0.22600000E+01           0.00000000E+00
  -0.22500000E+01           0.00000000E+00
  -0.22400000E+01           0.00000000E+00
  -0.22300000E+01           0.00000000E+00
  -0.22200000E+01           0.00000000E+00
  -0.22100000E+01           0.00000000E+00
  -0.22000000E+01           0.00000000E+00
  -0.21900000E+01           0.00000000E+00
  -0.21800000E+01           0.00000000E+00
  -0.21700000E+01           0.00000000E+00
  -0.21600000E+01           0.00000000E+00
  -0.21500000E+01           0.00000000E+00
  -0.21400000E+01           0.00000000E+00
  -0.21300000E+01           0.00000000E+00
  -0.21200000E+01           0.00000000E+00
  -0.21100000E+01           0.00000000E+00
  -0.21000000E+01           0.00000000E+00
  -0.20900000E+01           0.00000000E+00
  -0.20800000E+01           0.00000000E+00
  -0.20700000E+01           0.00000000E+00
  -0.20600000E+01           0.00000000E+00
  -0.20500000E+01           0.00000000E+00
  -0.20400000E+01           0.00000000E+00
  -0.20300000E+01           0.00000000E+00
  -0.20200000E+01           0.00000000E+00
  -0.20100000E+01           0.00000000E+00
  -0.20000000E+01           0.00000000E+00
  -0.19900000E+01           0.00000000E+00
  -0.19800000E+01           0.00000000E+00
  -0.19700000E+01           0.00000000E+00
  -0.19600000E+01           0.00000000E+00
  -0.19500000E+01           0.00000000E+00
  -0.19400000E+01           0.00000000E+00
  -0.19300000E+01           0.00000000E+00
  -0.19200000E+01           0.00000000E+00
  -0.19100000E+01           0.00000000E+00
  -0.19000000E+01           0.00000000E+00
  -0.18900000E+01           0.00000000E+00
  -0.18800000E+01           0.00000000E+00
  -0.18700000E+01           0.00000000E+00
  -0.18600000E+01           0.00000000E+00
  -0.18500000E+01           0.00000000E+00
  -0.18400000E+01           0.00000000E+00
  -0.18300000E+01           0.00000000E+00
  -0.18200000E+01           0.00000000E+00
  -0.18100000E+01           0.00000000E+00
  -0.18000000E+01           0.00000000E+00
  -0.17900000E+01           0.00000000E+00
  -0.17800000E+01           0.00000000E+00
  -0.17700000E+01           0.00000000E+00
  -0.17600000E+01           0.00000000E+00
  -0.17500000E+01           0.00000000E+00
  -0.17400000E+01           0.00000000E+00
  -0.17300000E+01           0.00000000E+00
  -0.17200000E+01           0.00000000E+00
  -0.17100000E+01           0.00000000E+00
  -0.17000000E+01           0.00000000E+00
  -0.16900000E+01           0.00000000E+00
  -0.16800000E+01           0.00000000E+00
  -0.16700000E+01           0.00000000E+00
  -0.16600000E+01           0.00000000E+00
  -0.16500000E+01           0.00000000E+00
  -0.16400000E+01           0.00000000E+00
  -0.16300000E+01           0.00000000E+00
  -0.16200000E+01           0.00000000E+00
  -0.16100000E+01           0.00000000E+00
  -0.16000000E+01           0.00000000E+00
  -0.15900000E+01           0.00000000E+00
  -0.15800000E+01           0.00000000E+00
  -0.15700000E+01           0.00000000E+00
  -0.15600000E+01           0.00000000E+00
  -0.15500000E+01           0.00000000E+00
  -0.15400000E+01           0.00000000E+00
  -0.15300000E+01           0.00000000E+00
  -0.15200000E+01           0.00000000E+00
  -0.15100000E+01           0.00000000E+00
  -0.15000000E+01           0.00000000E+00
  -0.14900000E+01           0.00000000E+00
[...]
  -0.64000000E+00           0.00000000E+00
  -0.63000000E+00           0.00000000E+00
  -0.62000000E+00           0.00000000E+00
  -0.61000000E+00           0.00000000E+00
  -0.60000000E+00           0.00000000E+00
  -0.59000000E+00           0.00000000E+00
  -0.58000000E+00           0.00000000E+00
  -0.57000000E+00           0.00000000E+00
  -0.56000000E+00           0.00000000E+00
  -0.55000000E+00           0.00000000E+00
  -0.54000000E+00           0.00000000E+00
  -0.53000000E+00           0.00000000E+00
  -0.52000000E+00           0.00000000E+00
  -0.51000000E+00           0.00000000E+00
  -0.50000000E+00           0.00000000E+00
  -0.49000000E+00           0.00000000E+00
  -0.48000000E+00           0.00000000E+00
  -0.47000000E+00           0.00000000E+00
  -0.46000000E+00           0.00000000E+00
  -0.45000000E+00           0.00000000E+00
  -0.44000000E+00           0.00000000E+00
  -0.43000000E+00           0.00000000E+00
  -0.42000000E+00           0.00000000E+00
  -0.41000000E+00           0.00000000E+00
  -0.40000000E+00           0.00000000E+00
  -0.39000000E+00           0.00000000E+00
  -0.38000000E+00           0.00000000E+00
  -0.37000000E+00           0.00000000E+00
  -0.36000000E+00           0.00000000E+00
  -0.35000000E+00           0.00000000E+00
  -0.34000000E+00           0.00000000E+00
  -0.33000000E+00           0.00000000E+00
  -0.32000000E+00           0.00000000E+00
  -0.31000000E+00           0.00000000E+00
  -0.30000000E+00           0.00000000E+00
  -0.29000000E+00           0.00000000E+00
  -0.28000000E+00           0.00000000E+00
  -0.27000000E+00           0.00000000E+00
  -0.26000000E+00           0.00000000E+00
  -0.25000000E+00           0.00000000E+00
  -0.24000000E+00           0.00000000E+00
  -0.23000000E+00           0.00000000E+00
  -0.22000000E+00           0.00000000E+00
  -0.21000000E+00           0.00000000E+00
  -0.20000000E+00           0.00000000E+00
  -0.19000000E+00           0.00000000E+00
  -0.18000000E+00           0.00000000E+00
  -0.17000000E+00           0.00000000E+00
  -0.16000000E+00           0.00000000E+00
  -0.15000000E+00           0.00000000E+00
  -0.14000000E+00           0.00000000E+00
  -0.13000000E+00           0.00000000E+00
  -0.12000000E+00           0.00000000E+00
  -0.11000000E+00           0.00000000E+00
  -0.10000000E+00           0.00000000E+00
  -0.90000000E-01           0.00000000E+00
  -0.80000000E-01           0.00000000E+00
  -0.70000000E-01           0.00000000E+00
  -0.60000000E-01           0.00000000E+00
  -0.50000000E-01           0.00000000E+00
  -0.40000000E-01           0.00000000E+00
  -0.30000000E-01           0.00000000E+00
  -0.20000000E-01           0.00000000E+00
  -0.10000000E-01           0.00000000E+00
   0.00000000E+00           0.27777778E-05
   0.10000000E-01           0.49814815E-04
   0.20000000E-01           0.17740741E-03
   0.30000000E-01           0.39111111E-03
   0.40000000E-01           0.66925926E-03
   0.50000000E-01           0.10083333E-02
   0.60000000E-01           0.14024074E-02
   0.70000000E-01           0.19492593E-02
   0.80000000E-01           0.25083333E-02
   0.90000000E-01           0.31774074E-02
   0.10000000E+00           0.38633333E-02
   0.11000000E+00           0.46114815E-02
   0.12000000E+00           0.55125926E-02
   0.13000000E+00           0.63433333E-02
   0.14000000E+00           0.73220370E-02
   0.15000000E+00           0.83205556E-02
   0.16000000E+00           0.93561111E-02
   0.17000000E+00           0.10515556E-01
   0.18000000E+00           0.11632593E-01
   0.19000000E+00           0.12917037E-01
   0.20000000E+00           0.14142778E-01
   0.21000000E+00           0.15546296E-01
   0.22000000E+00           0.16851111E-01
   0.23000000E+00           0.18226111E-01
   0.24000000E+00           0.19798519E-01
   0.25000000E+00           0.21308704E-01
   0.26000000E+00           0.22755370E-01
   0.27000000E+00           0.24376296E-01
   0.28000000E+00           0.26093889E-01
   0.29000000E+00           0.27687037E-01
   0.30000000E+00           0.29418333E-01
   0.31000000E+00           0.31107778E-01
   0.32000000E+00           0.32939630E-01
   0.33000000E+00           0.34643519E-01
   0.34000000E+00           0.36421852E-01
   0.35000000E+00           0.38402222E-01
   0.36000000E+00           0.40260741E-01
   0.37000000E+00           0.42302407E-01
   0.38000000E+00           0.44154630E-01
   0.39000000E+00           0.46268148E-01
   0.40000000E+00           0.48485370E-01
   0.41000000E+00           0.50576296E-01
   0.42000000E+00           0.52660741E-01
   0.43000000E+00           0.54885000E-01
   0.44000000E+00           0.56988333E-01
   0.45000000E+00           0.59114259E-01
   0.46000000E+00           0.61374815E-01
   0.47000000E+00           0.63640370E-01
   0.48000000E+00           0.65998333E-01
   0.49000000E+00           0.67984259E-01
   0.50000000E+00           0.70588148E-01
   0.51000000E+00           0.73218148E-01
   0.52000000E+00           0.75283519E-01
   0.53000000E+00           0.77577407E-01
   0.54000000E+00           0.80199444E-01
   0.55000000E+00           0.82727963E-01
   0.56000000E+00           0.85195185E-01
   0.57000000E+00           0.87506296E-01
   0.58000000E+00           0.90059259E-01
   0.59000000E+00           0.92824074E-01
   0.60000000E+00           0.95242963E-01
   0.61000000E+00           0.97665370E-01
   0.62000000E+00           0.10077648E+00
   0.63000000E+00           0.10310852E+00
   0.64000000E+00           0.10576296E+00
   0.65000000E+00           0.10865463E+00
   0.66000000E+00           0.11117241E+00
   0.67000000E+00           0.11370444E+00
   0.68000000E+00           0.11670426E+00
   0.69000000E+00           0.11969481E+00
   0.70000000E+00           0.12237241E+00
   0.71000000E+00           0.12534537E+00
   0.72000000E+00           0.12819444E+00
   0.73000000E+00           0.13081907E+00
   0.74000000E+00           0.13392463E+00
   0.75000000E+00           0.13705370E+00
   0.76000000E+00           0.13954444E+00
   0.77000000E+00           0.14237463E+00
   0.78000000E+00           0.14549778E+00
   0.79000000E+00           0.14818815E+00
   0.80000000E+00           0.15155630E+00
   0.81000000E+00           0.15476019E+00
   0.82000000E+00           0.15738315E+00
   0.83000000E+00           0.16067611E+00
   0.84000000E+00           0.16353500E+00
   0.85000000E+00           0.16639093E+00
   0.86000000E+00           0.16958833E+00
   0.87000000E+00           0.17291889E+00
   0.88000000E+00           0.17609556E+00
   0.89000000E+00           0.17903315E+00
   0.90000000E+00           0.18248704E+00
   0.91000000E+00           0.18540185E+00
   0.92000000E+00           0.18856852E+00
   0.93000000E+00           0.19209407E+00
   0.94000000E+00           0.19525000E+00
   0.95000000E+00           0.19826759E+00
   0.96000000E+00           0.20165981E+00
   0.97000000E+00           0.20488944E+00
   0.98000000E+00           0.20827574E+00
   0.99000000E+00           0.21154204E+00
   0.10000000E+01           0.21457259E+00
   0.10100000E+01           0.21813537E+00
   0.10200000E+01           0.22157185E+00
   0.10300000E+01           0.22475352E+00
   0.10400000E+01           0.22844722E+00
   0.10500000E+01           0.23198426E+00
   0.10600000E+01           0.23564593E+00
   0.10700000E+01           0.23854000E+00
   0.10800000E+01           0.24207981E+00
   0.10900000E+01           0.24575537E+00
   0.11000000E+01           0.24940630E+00
   0.11100000E+01           0.25234222E+00
   0.11200000E+01           0.25623056E+00
   0.11300000E+01           0.25977315E+00
   0.11400000E+01           0.26298093E+00
   0.11500000E+01           0.26651852E+00
   0.11600000E+01           0.27037352E+00
   0.11700000E+01           0.27343056E+00
   0.11800000E+01           0.27741259E+00
   0.11900000E+01           0.28085278E+00
   0.12000000E+01           0.28452111E+00
   0.12100000E+01           0.28775815E+00
   0.12200000E+01           0.29234741E+00
   0.12300000E+01           0.29542889E+00
   0.12400000E+01           0.29906981E+00
   0.12500000E+01           0.30276241E+00
   0.12600000E+01           0.30640926E+00
   0.12700000E+01           0.31046167E+00
   0.12800000E+01           0.31408611E+00
   0.12900000E+01           0.31749241E+00
   0.13000000E+01           0.32125852E+00
   0.13100000E+01           0.32495648E+00
   0.13200000E+01           0.32864426E+00
   0.13300000E+01           0.33287778E+00
   0.13400000E+01           0.33614704E+00
   0.13500000E+01           0.34008741E+00
   0.13600000E+01           0.34377148E+00
   0.13700000E+01           0.34765574E+00
   0.13800000E+01           0.35092833E+00
   0.13900000E+01           0.35458167E+00
   0.14000000E+01           0.35840778E+00
   0.14100000E+01           0.36267556E+00
   0.14200000E+01           0.36591685E+00
   0.14300000E+01           0.36964667E+00
   0.14400000E+01           0.37382778E+00
   0.14500000E+01           0.37714556E+00
   0.14600000E+01           0.38158722E+00
   0.14700000E+01           0.38480648E+00
   0.14800000E+01           0.38835407E+00
   0.14900000E+01           0.39204296E+00
   0.15000000E+01           0.39582685E+00
   0.15100000E+01           0.39971963E+00
   0.15200000E+01           0.40358037E+00
   0.15300000E+01           0.40762519E+00
   0.15400000E+01           0.41091944E+00
   0.15500000E+01           0.41447759E+00
   0.15600000E+01           0.41817519E+00
   0.15700000E+01           0.42135741E+00
   0.15800000E+01           0.42544870E+00
   0.15900000E+01           0.42901111E+00
   0.16000000E+01           0.43215870E+00
   0.16100000E+01           0.43523667E+00
   0.16200000E+01           0.43925019E+00
   0.16300000E+01           0.44281722E+00
   0.16400000E+01           0.44653407E+00
   0.16500000E+01           0.44981370E+00
   0.16600000E+01           0.45303111E+00
   0.16700000E+01           0.45630574E+00
   0.16800000E+01           0.45931463E+00
   0.16900000E+01           0.46320741E+00
   0.17000000E+01           0.46583630E+00
   0.17100000E+01           0.46931259E+00
   0.17200000E+01           0.47217463E+00
   0.17300000E+01           0.47511611E+00
   0.17400000E+01           0.47738037E+00
   0.17500000E+01           0.48042111E+00
   0.17600000E+01           0.48346019E+00
   0.17700000E+01           0.48601685E+00
   0.17800000E+01           0.48941778E+00
   0.17900000E+01           0.49105852E+00
   0.18000000E+01           0.49335185E+00
   0.18100000E+01           0.49620056E+00
   0.18200000E+01           0.49775889E+00
   0.18300000E+01           0.50010685E+00
   0.18400000E+01           0.50258556E+00
   0.18500000E+01           0.50380333E+00
   0.18600000E+01           0.50580204E+00
   0.18700000E+01           0.50676296E+00
   0.18800000E+01           0.50844296E+00
   0.18900000E+01           0.50946778E+00
   0.19000000E+01           0.51063259E+00
   0.19100000E+01           0.51224333E+00
   0.19200000E+01           0.51185315E+00
   0.19300000E+01           0.51369870E+00
   0.19400000E+01           0.51323741E+00
   0.19500000E+01           0.51289130E+00
   0.19600000E+01           0.51303815E+00
   0.19700000E+01           0.51235556E+00
   0.19800000E+01           0.51207852E+00
   0.19900000E+01           0.51114741E+00
   0.20000000E+01           0.51001241E+00
   0.20100000E+01           0.50804944E+00
   0.20200000E+01           0.50650000E+00
   0.20300000E+01           0.50535444E+00
   0.20400000E+01           0.50397333E+00
   0.20500000E+01           0.50224833E+00
   0.20600000E+01           0.50062407E+00
   0.20700000E+01           0.49833352E+00
   0.20800000E+01           0.49669889E+00
   0.20900000E+01           0.49531870E+00
   0.21000000E+01           0.49350204E+00
   0.21100000E+01           0.49179111E+00
   0.21200000E+01           0.49090389E+00
   0.21300000E+01           0.48880037E+00
   0.21400000E+01           0.48619370E+00
   0.21500000E+01           0.48554093E+00
   0.21600000E+01           0.48330648E+00
   0.21700000E+01           0.48109815E+00
   0.21800000E+01           0.47943630E+00
   0.21900000E+01           0.47736537E+00
   0.22000000E+01           0.47561111E+00
   0.22100000E+01           0.47316519E+00
   0.22200000E+01           0.47110704E+00
   0.22300000E+01           0.46883167E+00
   0.22400000E+01           0.46703278E+00
   0.22500000E+01           0.46495185E+00
   0.22600000E+01           0.46305352E+00
   0.22700000E+01           0.46091056E+00
   0.22800000E+01           0.45928926E+00
   0.22900000E+01           0.45671815E+00
   0.23000000E+01           0.45512259E+00
   0.23100000E+01           0.45233204E+00
   0.23200000E+01           0.44985389E+00
   0.23300000E+01           0.44780296E+00
   0.23400000E+01           0.44598519E+00
   0.23500000E+01           0.44347722E+00
   0.23600000E+01           0.44124315E+00
   0.23700000E+01           0.43886259E+00
   0.23800000E+01           0.43673185E+00
   0.23900000E+01           0.43432352E+00
   0.24000000E+01           0.43230222E+00
   0.24100000E+01           0.43007685E+00
   0.24200000E+01           0.42719389E+00
   0.24300000E+01           0.42543111E+00
   0.24400000E+01           0.42288056E+00
   0.24500000E+01           0.42014315E+00
   0.24600000E+01           0.41823481E+00
   0.24700000E+01           0.41515944E+00
   0.24800000E+01           0.41300537E+00
   0.24900000E+01           0.41088630E+00
   0.25000000E+01           0.40852519E+00
   0.25100000E+01           0.40598648E+00
   0.25200000E+01           0.40286944E+00
   0.25300000E+01           0.40023130E+00
   0.25400000E+01           0.39845296E+00
   0.25500000E+01           0.39579407E+00
   0.25600000E+01           0.39319296E+00
   0.25700000E+01           0.39041926E+00
   0.25800000E+01           0.38800000E+00
   0.25900000E+01           0.38552796E+00
   0.26000000E+01           0.38290056E+00
   0.26100000E+01           0.38007963E+00
   0.26200000E+01           0.37754963E+00
   0.26300000E+01           0.37500296E+00
   0.26400000E+01           0.37259648E+00
   0.26500000E+01           0.37011315E+00
   0.26600000E+01           0.36732370E+00
   0.26700000E+01           0.36478463E+00
   0.26800000E+01           0.36201444E+00
   0.26900000E+01           0.35929944E+00
   0.27000000E+01           0.35688556E+00
   0.27100000E+01           0.35419389E+00
   0.27200000E+01           0.35098685E+00
   0.27300000E+01           0.34855019E+00
   0.27400000E+01           0.34582074E+00
   0.27500000E+01           0.34308889E+00
   0.27600000E+01           0.34011333E+00
   0.27700000E+01           0.33790630E+00
   0.27800000E+01           0.33538704E+00
   0.27900000E+01           0.33244463E+00
   0.28000000E+01           0.32959426E+00
   0.28100000E+01           0.32693648E+00
   0.28200000E+01           0.32413148E+00
   0.28300000E+01           0.32142426E+00
   0.28400000E+01           0.31870093E+00
   0.28500000E+01           0.31628148E+00
   0.28600000E+01           0.31337685E+00
   0.28700000E+01           0.31020500E+00
   0.28800000E+01           0.30785074E+00
   0.28900000E+01           0.30525444E+00
   0.29000000E+01           0.30262296E+00
   0.29100000E+01           0.29966370E+00
   0.29200000E+01           0.29662093E+00
   0.29300000E+01           0.29370593E+00
   0.29400000E+01           0.29093296E+00
   0.29500000E+01           0.28826204E+00
   0.29600000E+01           0.28546500E+00
   0.29700000E+01           0.28303963E+00
   0.29800000E+01           0.27987444E+00
   0.29900000E+01           0.27711537E+00
   0.30000000E+01           0.27420259E+00
   0.30100000E+01           0.27144481E+00
   0.30200000E+01           0.26860370E+00
   0.30300000E+01           0.26550185E+00
   0.30400000E+01           0.26283463E+00
   0.30500000E+01           0.25991019E+00
   0.30600000E+01           0.25722056E+00
   0.30700000E+01           0.25443537E+00
   0.30800000E+01           0.25148259E+00
   0.30900000E+01           0.24833889E+00
   0.31000000E+01           0.24590667E+00
   0.31100000E+01           0.24322241E+00
   0.31200000E+01           0.23991111E+00
   0.31300000E+01           0.23742593E+00
   0.31400000E+01           0.23416019E+00
   0.31500000E+01           0.23145130E+00
   0.31600000E+01           0.22816148E+00
   0.31700000E+01           0.22558870E+00
   0.31800000E+01           0.22257815E+00
   0.31900000E+01           0.21973852E+00
   0.32000000E+01           0.21661000E+00
   0.32100000E+01           0.21378593E+00
   0.32200000E+01           0.21128500E+00
   0.32300000E+01           0.20790519E+00
   0.32400000E+01           0.20505037E+00
   0.32500000E+01           0.20221519E+00
   0.32600000E+01           0.19947648E+00
   0.32700000E+01           0.19613241E+00
   0.32800000E+01           0.19344204E+00
   0.32900000E+01           0.19030093E+00
   0.33000000E+01           0.18745870E+00
   0.33100000E+01           0.18440352E+00
   0.33200000E+01           0.18164241E+00
   0.33300000E+01           0.17871389E+00
   0.33400000E+01           0.17551019E+00
   0.33500000E+01           0.17232259E+00
   0.33600000E+01           0.16976778E+00
   0.33700000E+01           0.16629833E+00
   0.33800000E+01           0.16320685E+00
   0.33900000E+01           0.16038630E+00
   0.34000000E+01           0.15732167E+00
   0.34100000E+01           0.15414037E+00
   0.34200000E+01           0.15100815E+00
   0.34300000E+01           0.14791389E+00
   0.34400000E+01           0.14468296E+00
   0.34500000E+01           0.14172037E+00
   0.34600000E+01           0.13838074E+00
   0.34700000E+01           0.13520870E+00
   0.34800000E+01           0.13256426E+00
   0.34900000E+01           0.12913148E+00
   0.35000000E+01           0.12625685E+00
   0.35100000E+01           0.12313815E+00
   0.35200000E+01           0.11999648E+00
   0.35300000E+01           0.11668333E+00
   0.35400000E+01           0.11338389E+00
   0.35500000E+01           0.11041444E+00
   0.35600000E+01           0.10725574E+00
   0.35700000E+01           0.10425148E+00
   0.35800000E+01           0.10076167E+00
   0.35900000E+01           0.97744444E-01
   0.36000000E+01           0.94624074E-01
   0.36100000E+01           0.91422963E-01
   0.36200000E+01           0.88266852E-01
   0.36300000E+01           0.85270556E-01
   0.36400000E+01           0.82009259E-01
   0.36500000E+01           0.78837963E-01
   0.36600000E+01           0.75659630E-01
   0.36700000E+01           0.72553519E-01
   0.36800000E+01           0.69199815E-01
   0.36900000E+01           0.66363519E-01
   0.37000000E+01           0.63323148E-01
   0.37100000E+01           0.60277963E-01
   0.37200000E+01           0.57158333E-01
   0.37300000E+01           0.54220000E-01
   0.37400000E+01           0.51024259E-01
   0.37500000E+01           0.48008333E-01
   0.37600000E+01           0.45311481E-01
   0.37700000E+01           0.42275741E-01
   0.37800000E+01           0.39653704E-01
   0.37900000E+01           0.36647407E-01
   0.38000000E+01           0.34013519E-01
   0.38100000E+01           0.31215000E-01
   0.38200000E+01           0.28735556E-01
   0.38300000E+01           0.26043519E-01
   0.38400000E+01           0.23407407E-01
   0.38500000E+01           0.21012407E-01
   0.38600000E+01           0.18728333E-01
   0.38700000E+01           0.16576852E-01
   0.38800000E+01           0.14374630E-01
   0.38900000E+01           0.12300926E-01
   0.39000000E+01           0.10358519E-01
   0.39100000E+01           0.86090741E-02
   0.39200000E+01           0.69437037E-02
   0.39300000E+01           0.55240741E-02
   0.39400000E+01           0.41127778E-02
   0.39500000E+01           0.29540741E-02
   0.39600000E+01           0.19294444E-02
   0.39700000E+01           0.11022222E-02
   0.39800000E+01           0.51055556E-03
   0.39900000E+01           0.14407407E-03
   0.40000000E+01           0.35185185E-05
