 #written on 22Nov2024 at 12:10:24 
 #----------------- MONTECARLO -------------------#
 #        M                      P(M)             #
 #------------------------------------------------#
 #T=     0.5000
  -0.20000000E+01           0.00000000E+00
  -0.19900000E+01           0.00000000E+00
  -0.19800000E+01           0.00000000E+00
  -0.19700000E+01           0.00000000E+00
  -0.19600000E+01           0.00000000E+00
  -0.19500000E+01           0.00000000E+00
  -0.19400000E+01           0.00000000E+00
  -0.19300000E+01           0.00000000E+00
  -0.19200000E+01           0.00000000E+00
  -0.19100000E+01           0.00000000E+00
  -0.19000000E+01           0.00000000E+00
  -0.18900000E+01           0.00000000E+00
  -0.18800000E+01           0.00000000E+00
  -0.18700000E+01           0.00000000E+00
  -0.18600000E+01           0.00000000E+00
  -0.18500000E+01           0.00000000E+00
  -0.18400000E+01           0.00000000E+00
  -0.18300000E+01           0.00000000E+00
  -0.18200000E+01           0.00000000E+00
  -0.18100000E+01           0.00000000E+00
  -0.18000000E+01           0.00000000E+00
  -0.17900000E+01           0.00000000E+00
  -0.17800000E+01           0.00000000E+00
  -0.17700000E+01           0.00000000E+00
  -0.17600000E+01           0.00000000E+00
  -0.17500000E+01           0.00000000E+00
  -0.17400000E+01           0.00000000E+00
  -0.17300000E+01           0.00000000E+00
  -0.17200000E+01           0.00000000E+00
  -0.17100000E+01           0.00000000E+00
  -0.17000000E+01           0.00000000E+00
  -0.16900000E+01           0.00000000E+00
  -0.16800000E+01           0.00000000E+00
  -0.16700000E+01           0.00000000E+00
  -0.16600000E+01           0.00000000E+00
  -0.16500000E+01           0.00000000E+00
  -0.16400000E+01           0.00000000E+00
  -0.16300000E+01           0.00000000E+00
  -0.16200000E+01           0.00000000E+00
  -0.16100000E+01           0.00000000E+00
  -0.16000000E+01           0.00000000E+00
  -0.15900000E+01           0.00000000E+00
  -0.15800000E+01           0.00000000E+00
  -0.15700000E+01           0.00000000E+00
  -0.15600000E+01           0.00000000E+00
  -0.15500000E+01           0.00000000E+00
  -0.15400000E+01           0.00000000E+00
  -0.15300000E+01           0.00000000E+00
  -0.15200000E+01           0.00000000E+00
  -0.15100000E+01           0.00000000E+00
  -0.15000000E+01           0.00000000E+00
  -0.14900000E+01           0.00000000E+00
  -0.14800000E+01           0.00000000E+00
  -0.14700000E+01           0.00000000E+00
  -0.14600000E+01           0.00000000E+00
  -0.14500000E+01           0.00000000E+00
  -0.14400000E+01           0.00000000E+00
  -0.14300000E+01           0.00000000E+00
  -0.14200000E+01           0.00000000E+00
  -0.14100000E+01           0.00000000E+00
  -0.14000000E+01           0.00000000E+00
  -0.13900000E+01           0.00000000E+00
  -0.13800000E+01           0.00000000E+00
  -0.13700000E+01           0.00000000E+00
  -0.13600000E+01           0.00000000E+00
  -0.13500000E+01           0.00000000E+00
  -0.13400000E+01           0.00000000E+00
  -0.13300000E+01           0.00000000E+00
  -0.13200000E+01           0.00000000E+00
  -0.13100000E+01           0.00000000E+00
  -0.13000000E+01           0.00000000E+00
  -0.12900000E+01           0.00000000E+00
  -0.12800000E+01           0.00000000E+00
  -0.12700000E+01           0.00000000E+00
  -0.12600000E+01           0.00000000E+00
  -0.12500000E+01           0.00000000E+00
  -0.12400000E+01           0.00000000E+00
  -0.12300000E+01           0.00000000E+00
  -0.12200000E+01           0.00000000E+00
  -0.12100000E+01           0.00000000E+00
  -0.12000000E+01           0.00000000E+00
  -0.11900000E+01           0.00000000E+00
  -0.11800000E+01           0.00000000E+00
  -0.11700000E+01           0.00000000E+00
  -0.11600000E+01           0.00000000E+00
  -0.11500000E+01           0.00000000E+00
  -0.11400000E+01           0.00000000E+00
  -0.11300000E+01           0.00000000E+00
  -0.11200000E+01           0.00000000E+00
  -0.11100000E+01           0.00000000E+00
  -0.11000000E+01           0.00000000E+00
  -0.10900000E+01           0.00000000E+00
  -0.10800000E+01           0.00000000E+00
  -0.10700000E+01           0.00000000E+00
  -0.10600000E+01           0.00000000E+00
  -0.10500000E+01           0.00000000E+00
  -0.10400000E+01           0.00000000E+00
  -0.10300000E+01           0.00000000E+00
  -0.10200000E+01           0.00000000E+00
  -0.10100000E+01           0.00000000E+00
  -0.10000000E+01           0.00000000E+00
  -0.99000000E+00           0.00000000E+00
  -0.98000000E+00           0.00000000E+00
  -0.97000000E+00           0.00000000E+00
  -0.96000000E+00           0.00000000E+00
  -0.95000000E+00           0.00000000E+00
  -0.94000000E+00           0.00000000E+00
  -0.93000000E+00           0.00000000E+00
  -0.92000000E+00           0.00000000E+00
  -0.91000000E+00           0.00000000E+00
  -0.90000000E+00           0.00000000E+00
  -0.89000000E+00           0.00000000E+00
  -0.88000000E+00           0.00000000E+00
  -0.87000000E+00           0.00000000E+00
  -0.86000000E+00           0.00000000E+00
  -0.85000000E+00           0.00000000E+00
  -0.84000000E+00           0.00000000E+00
  -0.83000000E+00           0.00000000E+00
  -0.82000000E+00           0.00000000E+00
  -0.81000000E+00           0.00000000E+00
  -0.80000000E+00           0.00000000E+00
  -0.79000000E+00           0.00000000E+00
  -0.78000000E+00           0.00000000E+00
  -0.77000000E+00           0.00000000E+00
  -0.76000000E+00           0.00000000E+00
  -0.75000000E+00           0.00000000E+00
  -0.74000000E+00           0.00000000E+00
  -0.73000000E+00           0.00000000E+00
  -0.72000000E+00           0.00000000E+00
  -0.71000000E+00           0.00000000E+00
  -0.70000000E+00           0.00000000E+00
  -0.69000000E+00           0.00000000E+00
  -0.68000000E+00           0.00000000E+00
  -0.67000000E+00           0.00000000E+00
  -0.66000000E+00           0.00000000E+00
  -0.65000000E+00           0.00000000E+00
  -0.64000000E+00           0.00000000E+00
  -0.63000000E+00           0.00000000E+00
  -0.62000000E+00           0.00000000E+00
  -0.61000000E+00           0.00000000E+00
  -0.60000000E+00           0.00000000E+00
  -0.59000000E+00           0.00000000E+00
  -0.58000000E+00           0.00000000E+00
  -0.57000000E+00           0.00000000E+00
  -0.56000000E+00           0.00000000E+00
  -0.55000000E+00           0.00000000E+00
  -0.54000000E+00           0.00000000E+00
  -0.53000000E+00           0.00000000E+00
  -0.52000000E+00           0.00000000E+00
  -0.51000000E+00           0.00000000E+00
  -0.50000000E+00           0.00000000E+00
  -0.49000000E+00           0.00000000E+00
  -0.48000000E+00           0.00000000E+00
  -0.47000000E+00           0.00000000E+00
  -0.46000000E+00           0.00000000E+00
  -0.45000000E+00           0.00000000E+00
  -0.44000000E+00           0.00000000E+00
  -0.43000000E+00           0.00000000E+00
  -0.42000000E+00           0.00000000E+00
  -0.41000000E+00           0.00000000E+00
  -0.40000000E+00           0.00000000E+00
  -0.39000000E+00           0.00000000E+00
  -0.38000000E+00           0.00000000E+00
  -0.37000000E+00           0.00000000E+00
  -0.36000000E+00           0.00000000E+00
  -0.35000000E+00           0.00000000E+00
  -0.34000000E+00           0.00000000E+00
  -0.33000000E+00           0.00000000E+00
  -0.32000000E+00           0.00000000E+00
  -0.31000000E+00           0.00000000E+00
  -0.30000000E+00           0.00000000E+00
  -0.29000000E+00           0.00000000E+00
  -0.28000000E+00           0.00000000E+00
  -0.27000000E+00           0.00000000E+00
  -0.26000000E+00           0.00000000E+00
  -0.25000000E+00           0.00000000E+00
  -0.24000000E+00           0.00000000E+00
  -0.23000000E+00           0.00000000E+00
  -0.22000000E+00           0.00000000E+00
  -0.21000000E+00           0.00000000E+00
  -0.20000000E+00           0.00000000E+00
  -0.19000000E+00           0.00000000E+00
  -0.18000000E+00           0.00000000E+00
  -0.17000000E+00           0.00000000E+00
  -0.16000000E+00           0.00000000E+00
  -0.15000000E+00           0.00000000E+00
  -0.14000000E+00           0.00000000E+00
  -0.13000000E+00           0.00000000E+00
  -0.12000000E+00           0.00000000E+00
  -0.11000000E+00           0.00000000E+00
  -0.10000000E+00           0.00000000E+00
  -0.90000000E-01           0.00000000E+00
  -0.80000000E-01           0.00000000E+00
  -0.70000000E-01           0.00000000E+00
  -0.60000000E-01           0.00000000E+00
  -0.50000000E-01           0.00000000E+00
  -0.40000000E-01           0.00000000E+00
  -0.30000000E-01           0.00000000E+00
  -0.20000000E-01           0.00000000E+00
  -0.10000000E-01           0.00000000E+00
   0.00000000E+00           0.12962963E-03
   0.10000000E-01           0.15185185E-02
   0.20000000E-01           0.40115741E-02
   0.30000000E-01           0.51898148E-02
   0.40000000E-01           0.73240741E-02
   0.50000000E-01           0.10810185E-01
   0.60000000E-01           0.14300926E-01
   0.70000000E-01           0.17798611E-01
   0.80000000E-01           0.21925926E-01
   0.90000000E-01           0.28912037E-01
   0.10000000E+00           0.33655093E-01
   0.11000000E+00           0.41465278E-01
   0.12000000E+00           0.52847222E-01
   0.13000000E+00           0.61328704E-01
   0.14000000E+00           0.75215278E-01
   0.15000000E+00           0.86902778E-01
   0.16000000E+00           0.11111343E+00
   0.17000000E+00           0.12959259E+00
   0.18000000E+00           0.15013194E+00
   0.19000000E+00           0.17666667E+00
   0.20000000E+00           0.20814583E+00
   0.21000000E+00           0.23659722E+00
   0.22000000E+00           0.28077778E+00
   0.23000000E+00           0.31451852E+00
   0.24000000E+00           0.36101389E+00
   0.25000000E+00           0.41445833E+00
   0.26000000E+00           0.46852315E+00
   0.27000000E+00           0.52885185E+00
   0.28000000E+00           0.60870833E+00
   0.29000000E+00           0.66275231E+00
   0.30000000E+00           0.75315509E+00
   0.31000000E+00           0.82323611E+00
   0.32000000E+00           0.91828472E+00
   0.33000000E+00           0.10036574E+01
   0.34000000E+00           0.11011250E+01
   0.35000000E+00           0.11964745E+01
   0.36000000E+00           0.12981134E+01
   0.37000000E+00           0.13968009E+01
   0.38000000E+00           0.15089630E+01
   0.39000000E+00           0.16071319E+01
   0.40000000E+00           0.16969190E+01
   0.41000000E+00           0.18230394E+01
   0.42000000E+00           0.19059468E+01
   0.43000000E+00           0.20230046E+01
   0.44000000E+00           0.21013495E+01
   0.45000000E+00           0.21788056E+01
   0.46000000E+00           0.22738611E+01
   0.47000000E+00           0.23371250E+01
   0.48000000E+00           0.24173866E+01
   0.49000000E+00           0.24997245E+01
   0.50000000E+00           0.25316620E+01
   0.51000000E+00           0.25704213E+01
   0.52000000E+00           0.25952523E+01
   0.53000000E+00           0.26140602E+01
   0.54000000E+00           0.26236088E+01
   0.55000000E+00           0.26160301E+01
   0.56000000E+00           0.25996319E+01
   0.57000000E+00           0.25820255E+01
   0.58000000E+00           0.25548056E+01
   0.59000000E+00           0.25083588E+01
   0.60000000E+00           0.24559306E+01
   0.61000000E+00           0.23876597E+01
   0.62000000E+00           0.23179352E+01
   0.63000000E+00           0.22097454E+01
   0.64000000E+00           0.21380093E+01
   0.65000000E+00           0.20376042E+01
   0.66000000E+00           0.19265764E+01
   0.67000000E+00           0.18465579E+01
   0.68000000E+00           0.17363727E+01
   0.69000000E+00           0.16347569E+01
   0.70000000E+00           0.15211620E+01
   0.71000000E+00           0.14141343E+01
   0.72000000E+00           0.13270995E+01
   0.73000000E+00           0.12170278E+01
   0.74000000E+00           0.11203125E+01
   0.75000000E+00           0.10299468E+01
   0.76000000E+00           0.94062500E+00
   0.77000000E+00           0.84251620E+00
   0.78000000E+00           0.77011343E+00
   0.79000000E+00           0.68293056E+00
   0.80000000E+00           0.61303009E+00
   0.81000000E+00           0.54975926E+00
   0.82000000E+00           0.48651620E+00
   0.83000000E+00           0.43490972E+00
   0.84000000E+00           0.37515972E+00
   0.85000000E+00           0.32946296E+00
   0.86000000E+00           0.29037963E+00
   0.87000000E+00           0.24828935E+00
   0.88000000E+00           0.21601620E+00
   0.89000000E+00           0.18351157E+00
   0.90000000E+00           0.15817130E+00
   0.91000000E+00           0.13306713E+00
   0.92000000E+00           0.11215972E+00
   0.93000000E+00           0.91162037E-01
   0.94000000E+00           0.79101852E-01
   0.95000000E+00           0.68215278E-01
   0.96000000E+00           0.55650463E-01
   0.97000000E+00           0.46916667E-01
   0.98000000E+00           0.37615741E-01
   0.99000000E+00           0.32858796E-01
   0.10000000E+01           0.25037037E-01
   0.10100000E+01           0.21002315E-01
   0.10200000E+01           0.16287037E-01
   0.10300000E+01           0.13386574E-01
   0.10400000E+01           0.10724537E-01
   0.10500000E+01           0.89837963E-02
   0.10600000E+01           0.69305556E-02
   0.10700000E+01           0.54027778E-02
   0.10800000E+01           0.42037037E-02
   0.10900000E+01           0.34583333E-02
   0.11000000E+01           0.26064815E-02
   0.11100000E+01           0.21944444E-02
   0.11200000E+01           0.14444444E-02
   0.11300000E+01           0.10648148E-02
   0.11400000E+01           0.64814815E-03
   0.11500000E+01           0.75000000E-03
   0.11600000E+01           0.52314815E-03
   0.11700000E+01           0.29861111E-03
   0.11800000E+01           0.27083333E-03
   0.11900000E+01           0.13194444E-03
   0.12000000E+01           0.22453704E-03
   0.12100000E+01           0.94907407E-04
   0.12200000E+01           0.67129630E-04
   0.12300000E+01           0.69444444E-04
   0.12400000E+01           0.25462963E-04
   0.12500000E+01           0.25462963E-04
   0.12600000E+01           0.00000000E+00
   0.12700000E+01           0.69444444E-05
   0.12800000E+01           0.00000000E+00
   0.12900000E+01           0.00000000E+00
   0.13000000E+01           0.13888889E-04
   0.13100000E+01           0.23148148E-05
   0.13200000E+01           0.00000000E+00
   0.13300000E+01           0.00000000E+00
   0.13400000E+01           0.23148148E-05
   0.13500000E+01           0.00000000E+00
   0.13600000E+01           0.00000000E+00
   0.13700000E+01           0.00000000E+00
   0.13800000E+01           0.00000000E+00
   0.13900000E+01           0.00000000E+00
   0.14000000E+01           0.00000000E+00
   0.14100000E+01           0.00000000E+00
   0.14200000E+01           0.00000000E+00
   0.14300000E+01           0.00000000E+00
   0.14400000E+01           0.00000000E+00
   0.14500000E+01           0.00000000E+00
   0.14600000E+01           0.00000000E+00
   0.14700000E+01           0.00000000E+00
   0.14800000E+01           0.00000000E+00
   0.14900000E+01           0.00000000E+00
   0.15000000E+01           0.00000000E+00
   0.15100000E+01           0.00000000E+00
   0.15200000E+01           0.00000000E+00
   0.15300000E+01           0.00000000E+00
   0.15400000E+01           0.00000000E+00
   0.15500000E+01           0.00000000E+00
   0.15600000E+01           0.00000000E+00
   0.15700000E+01           0.00000000E+00
   0.15800000E+01           0.00000000E+00
   0.15900000E+01           0.00000000E+00
   0.16000000E+01           0.00000000E+00
   0.16100000E+01           0.00000000E+00
   0.16200000E+01           0.00000000E+00
   0.16300000E+01           0.00000000E+00
   0.16400000E+01           0.00000000E+00
   0.16500000E+01           0.00000000E+00
   0.16600000E+01           0.00000000E+00
   0.16700000E+01           0.00000000E+00
   0.16800000E+01           0.00000000E+00
   0.16900000E+01           0.00000000E+00
   0.17000000E+01           0.00000000E+00
   0.17100000E+01           0.00000000E+00
   0.17200000E+01           0.00000000E+00
   0.17300000E+01           0.00000000E+00
   0.17400000E+01           0.00000000E+00
   0.17500000E+01           0.00000000E+00
   0.17600000E+01           0.00000000E+00
   0.17700000E+01           0.00000000E+00
   0.17800000E+01           0.00000000E+00
   0.17900000E+01           0.00000000E+00
   0.18000000E+01           0.00000000E+00
   0.18100000E+01           0.00000000E+00
   0.18200000E+01           0.00000000E+00
   0.18300000E+01           0.00000000E+00
   0.18400000E+01           0.00000000E+00
   0.18500000E+01           0.00000000E+00
   0.18600000E+01           0.00000000E+00
   0.18700000E+01           0.00000000E+00
   0.18800000E+01           0.00000000E+00
   0.18900000E+01           0.00000000E+00
   0.19000000E+01           0.00000000E+00
   0.19100000E+01           0.00000000E+00
   0.19200000E+01           0.00000000E+00
   0.19300000E+01           0.00000000E+00
   0.19400000E+01           0.00000000E+00
   0.19500000E+01           0.00000000E+00
   0.19600000E+01           0.00000000E+00
   0.19700000E+01           0.00000000E+00
   0.19800000E+01           0.00000000E+00
   0.19900000E+01           0.00000000E+00
   0.20000000E+01           0.00000000E+00
 #T=     1.0000
  -0.20000000E+01           0.00000000E+00
  -0.19900000E+01           0.00000000E+00
  -0.19800000E+01           0.00000000E+00
  -0.19700000E+01           0.00000000E+00
  -0.19600000E+01           0.00000000E+00
  -0.19500000E+01           0.00000000E+00
  -0.19400000E+01           0.00000000E+00
  -0.19300000E+01           0.00000000E+00
  -0.19200000E+01           0.00000000E+00
  -0.19100000E+01           0.00000000E+00
  -0.19000000E+01           0.00000000E+00
  -0.18900000E+01           0.00000000E+00
  -0.18800000E+01           0.00000000E+00
  -0.18700000E+01           0.00000000E+00
  -0.18600000E+01           0.00000000E+00
  -0.18500000E+01           0.00000000E+00
  -0.18400000E+01           0.00000000E+00
  -0.18300000E+01           0.00000000E+00
  -0.18200000E+01           0.00000000E+00
  -0.18100000E+01           0.00000000E+00
  -0.18000000E+01           0.00000000E+00
  -0.17900000E+01           0.00000000E+00
  -0.17800000E+01           0.00000000E+00
  -0.17700000E+01           0.00000000E+00
  -0.17600000E+01           0.00000000E+00
  -0.17500000E+01           0.00000000E+00
  -0.17400000E+01           0.00000000E+00
  -0.17300000E+01           0.00000000E+00
  -0.17200000E+01           0.00000000E+00
  -0.17100000E+01           0.00000000E+00
  -0.17000000E+01           0.00000000E+00
  -0.16900000E+01           0.00000000E+00
  -0.16800000E+01           0.00000000E+00
  -0.16700000E+01           0.00000000E+00
  -0.16600000E+01           0.00000000E+00
  -0.16500000E+01           0.00000000E+00
  -0.16400000E+01           0.00000000E+00
  -0.16300000E+01           0.00000000E+00
  -0.16200000E+01           0.00000000E+00
  -0.16100000E+01           0.00000000E+00
  -0.16000000E+01           0.00000000E+00
  -0.15900000E+01           0.00000000E+00
  -0.15800000E+01           0.00000000E+00
  -0.15700000E+01           0.00000000E+00
  -0.15600000E+01           0.00000000E+00
  -0.15500000E+01           0.00000000E+00
  -0.15400000E+01           0.00000000E+00
  -0.15300000E+01           0.00000000E+00
  -0.15200000E+01           0.00000000E+00
  -0.15100000E+01           0.00000000E+00
  -0.15000000E+01           0.00000000E+00
  -0.14900000E+01           0.00000000E+00
  -0.14800000E+01           0.00000000E+00
  -0.14700000E+01           0.00000000E+00
  -0.14600000E+01           0.00000000E+00
  -0.14500000E+01           0.00000000E+00
  -0.14400000E+01           0.00000000E+00
  -0.14300000E+01           0.00000000E+00
  -0.14200000E+01           0.00000000E+00
  -0.14100000E+01           0.00000000E+00
  -0.14000000E+01           0.00000000E+00
  -0.13900000E+01           0.00000000E+00
  -0.13800000E+01           0.00000000E+00
  -0.13700000E+01           0.00000000E+00
  -0.13600000E+01           0.00000000E+00
  -0.13500000E+01           0.00000000E+00
  -0.13400000E+01           0.00000000E+00
  -0.13300000E+01           0.00000000E+00
  -0.13200000E+01           0.00000000E+00
  -0.13100000E+01           0.00000000E+00
  -0.13000000E+01           0.00000000E+00
  -0.12900000E+01           0.00000000E+00
  -0.12800000E+01           0.00000000E+00
  -0.12700000E+01           0.00000000E+00
  -0.12600000E+01           0.00000000E+00
  -0.12500000E+01           0.00000000E+00
  -0.12400000E+01           0.00000000E+00
  -0.12300000E+01           0.00000000E+00
  -0.12200000E+01           0.00000000E+00
  -0.12100000E+01           0.00000000E+00
  -0.12000000E+01           0.00000000E+00
  -0.11900000E+01           0.00000000E+00
  -0.11800000E+01           0.00000000E+00
  -0.11700000E+01           0.00000000E+00
  -0.11600000E+01           0.00000000E+00
  -0.11500000E+01           0.00000000E+00
  -0.11400000E+01           0.00000000E+00
  -0.11300000E+01           0.00000000E+00
  -0.11200000E+01           0.00000000E+00
  -0.11100000E+01           0.00000000E+00
  -0.11000000E+01           0.00000000E+00
  -0.10900000E+01           0.00000000E+00
  -0.10800000E+01           0.00000000E+00
  -0.10700000E+01           0.00000000E+00
  -0.10600000E+01           0.00000000E+00
  -0.10500000E+01           0.00000000E+00
  -0.10400000E+01           0.00000000E+00
  -0.10300000E+01           0.00000000E+00
  -0.10200000E+01           0.00000000E+00
  -0.10100000E+01           0.00000000E+00
  -0.10000000E+01           0.00000000E+00
  -0.99000000E+00           0.00000000E+00
  -0.98000000E+00           0.00000000E+00
  -0.97000000E+00           0.00000000E+00
  -0.96000000E+00           0.00000000E+00
  -0.95000000E+00           0.00000000E+00
  -0.94000000E+00           0.00000000E+00
  -0.93000000E+00           0.00000000E+00
  -0.92000000E+00           0.00000000E+00
  -0.91000000E+00           0.00000000E+00
  -0.90000000E+00           0.00000000E+00
  -0.89000000E+00           0.00000000E+00
  -0.88000000E+00           0.00000000E+00
  -0.87000000E+00           0.00000000E+00
  -0.86000000E+00           0.00000000E+00
  -0.85000000E+00           0.00000000E+00
  -0.84000000E+00           0.00000000E+00
  -0.83000000E+00           0.00000000E+00
  -0.82000000E+00           0.00000000E+00
  -0.81000000E+00           0.00000000E+00
  -0.80000000E+00           0.00000000E+00
  -0.79000000E+00           0.00000000E+00
  -0.78000000E+00           0.00000000E+00
  -0.77000000E+00           0.00000000E+00
  -0.76000000E+00           0.00000000E+00
  -0.75000000E+00           0.00000000E+00
  -0.74000000E+00           0.00000000E+00
  -0.73000000E+00           0.00000000E+00
  -0.72000000E+00           0.00000000E+00
  -0.71000000E+00           0.00000000E+00
  -0.70000000E+00           0.00000000E+00
  -0.69000000E+00           0.00000000E+00
  -0.68000000E+00           0.00000000E+00
  -0.67000000E+00           0.00000000E+00
  -0.66000000E+00           0.00000000E+00
  -0.65000000E+00           0.00000000E+00
  -0.64000000E+00           0.00000000E+00
  -0.63000000E+00           0.00000000E+00
  -0.62000000E+00           0.00000000E+00
  -0.61000000E+00           0.00000000E+00
  -0.60000000E+00           0.00000000E+00
  -0.59000000E+00           0.00000000E+00
  -0.58000000E+00           0.00000000E+00
  -0.57000000E+00           0.00000000E+00
  -0.56000000E+00           0.00000000E+00
  -0.55000000E+00           0.00000000E+00
  -0.54000000E+00           0.00000000E+00
  -0.53000000E+00           0.00000000E+00
  -0.52000000E+00           0.00000000E+00
  -0.51000000E+00           0.00000000E+00
  -0.50000000E+00           0.00000000E+00
  -0.49000000E+00           0.00000000E+00
  -0.48000000E+00           0.00000000E+00
  -0.47000000E+00           0.00000000E+00
  -0.46000000E+00           0.00000000E+00
  -0.45000000E+00           0.00000000E+00
  -0.44000000E+00           0.00000000E+00
  -0.43000000E+00           0.00000000E+00
  -0.42000000E+00           0.00000000E+00
  -0.41000000E+00           0.00000000E+00
  -0.40000000E+00           0.00000000E+00
  -0.39000000E+00           0.00000000E+00
  -0.38000000E+00           0.00000000E+00
  -0.37000000E+00           0.00000000E+00
  -0.36000000E+00           0.00000000E+00
  -0.35000000E+00           0.00000000E+00
  -0.34000000E+00           0.00000000E+00
  -0.33000000E+00           0.00000000E+00
  -0.32000000E+00           0.00000000E+00
  -0.31000000E+00           0.00000000E+00
  -0.30000000E+00           0.00000000E+00
  -0.29000000E+00           0.00000000E+00
  -0.28000000E+00           0.00000000E+00
  -0.27000000E+00           0.00000000E+00
  -0.26000000E+00           0.00000000E+00
  -0.25000000E+00           0.00000000E+00
  -0.24000000E+00           0.00000000E+00
  -0.23000000E+00           0.00000000E+00
  -0.22000000E+00           0.00000000E+00
  -0.21000000E+00           0.00000000E+00
  -0.20000000E+00           0.00000000E+00
  -0.19000000E+00           0.00000000E+00
  -0.18000000E+00           0.00000000E+00
  -0.17000000E+00           0.00000000E+00
  -0.16000000E+00           0.00000000E+00
  -0.15000000E+00           0.00000000E+00
  -0.14000000E+00           0.00000000E+00
  -0.13000000E+00           0.00000000E+00
  -0.12000000E+00           0.00000000E+00
  -0.11000000E+00           0.00000000E+00
  -0.10000000E+00           0.00000000E+00
  -0.90000000E-01           0.00000000E+00
  -0.80000000E-01           0.00000000E+00
  -0.70000000E-01           0.00000000E+00
  -0.60000000E-01           0.00000000E+00
  -0.50000000E-01           0.00000000E+00
  -0.40000000E-01           0.00000000E+00
  -0.30000000E-01           0.00000000E+00
  -0.20000000E-01           0.00000000E+00
  -0.10000000E-01           0.00000000E+00
   0.00000000E+00           0.15254630E-02
   0.10000000E-01           0.13516204E-01
   0.20000000E-01           0.26083333E-01
   0.30000000E-01           0.37715278E-01
   0.40000000E-01           0.52377315E-01
   0.50000000E-01           0.67858796E-01
   0.60000000E-01           0.82541667E-01
   0.70000000E-01           0.99678241E-01
   0.80000000E-01           0.11420139E+00
   0.90000000E-01           0.13311343E+00
   0.10000000E+00           0.15007639E+00
   0.11000000E+00           0.17077315E+00
   0.12000000E+00           0.19797222E+00
   0.13000000E+00           0.21451852E+00
   0.14000000E+00           0.24109259E+00
   0.15000000E+00           0.26829630E+00
   0.16000000E+00           0.29328009E+00
   0.17000000E+00           0.32542824E+00
   0.18000000E+00           0.35712963E+00
   0.19000000E+00           0.38685417E+00
   0.20000000E+00           0.42324769E+00
   0.21000000E+00           0.46228935E+00
   0.22000000E+00           0.50205787E+00
   0.23000000E+00           0.54025231E+00
   0.24000000E+00           0.58957176E+00
   0.25000000E+00           0.62459259E+00
   0.26000000E+00           0.68110417E+00
   0.27000000E+00           0.72508796E+00
   0.28000000E+00           0.76802315E+00
   0.29000000E+00           0.81590741E+00
   0.30000000E+00           0.87571065E+00
   0.31000000E+00           0.92447685E+00
   0.32000000E+00           0.98280324E+00
   0.33000000E+00           0.10302616E+01
   0.34000000E+00           0.10992407E+01
   0.35000000E+00           0.11510093E+01
   0.36000000E+00           0.12056389E+01
   0.37000000E+00           0.12578889E+01
   0.38000000E+00           0.13128657E+01
   0.39000000E+00           0.13740556E+01
   0.40000000E+00           0.14201597E+01
   0.41000000E+00           0.14770671E+01
   0.42000000E+00           0.15128009E+01
   0.43000000E+00           0.15716343E+01
   0.44000000E+00           0.16209306E+01
   0.45000000E+00           0.16671597E+01
   0.46000000E+00           0.16939931E+01
   0.47000000E+00           0.17329630E+01
   0.48000000E+00           0.17701088E+01
   0.49000000E+00           0.17978148E+01
   0.50000000E+00           0.18274977E+01
   0.51000000E+00           0.18538611E+01
   0.52000000E+00           0.18741412E+01
   0.53000000E+00           0.18819861E+01
   0.54000000E+00           0.18766319E+01
   0.55000000E+00           0.19213356E+01
   0.56000000E+00           0.19116806E+01
   0.57000000E+00           0.19095972E+01
   0.58000000E+00           0.18961181E+01
   0.59000000E+00           0.18949375E+01
   0.60000000E+00           0.18871551E+01
   0.61000000E+00           0.18637731E+01
   0.62000000E+00           0.18383773E+01
   0.63000000E+00           0.18159745E+01
   0.64000000E+00           0.17963796E+01
   0.65000000E+00           0.17660116E+01
   0.66000000E+00           0.17306412E+01
   0.67000000E+00           0.16883750E+01
   0.68000000E+00           0.16443866E+01
   0.69000000E+00           0.15938981E+01
   0.70000000E+00           0.15559815E+01
   0.71000000E+00           0.15126412E+01
   0.72000000E+00           0.14525463E+01
   0.73000000E+00           0.14047523E+01
   0.74000000E+00           0.13460509E+01
   0.75000000E+00           0.12910069E+01
   0.76000000E+00           0.12385509E+01
   0.77000000E+00           0.11769167E+01
   0.78000000E+00           0.11239120E+01
   0.79000000E+00           0.10566343E+01
   0.80000000E+00           0.10242755E+01
   0.81000000E+00           0.97029398E+00
   0.82000000E+00           0.91162963E+00
   0.83000000E+00           0.84978241E+00
   0.84000000E+00           0.80454630E+00
   0.85000000E+00           0.75661574E+00
   0.86000000E+00           0.70774074E+00
   0.87000000E+00           0.65822917E+00
   0.88000000E+00           0.61450694E+00
   0.89000000E+00           0.56998148E+00
   0.90000000E+00           0.53525694E+00
   0.91000000E+00           0.49129861E+00
   0.92000000E+00           0.44952778E+00
   0.93000000E+00           0.41536574E+00
   0.94000000E+00           0.38469907E+00
   0.95000000E+00           0.35244676E+00
   0.96000000E+00           0.32120370E+00
   0.97000000E+00           0.29345139E+00
   0.98000000E+00           0.26092361E+00
   0.99000000E+00           0.23778704E+00
   0.10000000E+01           0.21911806E+00
   0.10100000E+01           0.19669444E+00
   0.10200000E+01           0.17753472E+00
   0.10300000E+01           0.15776620E+00
   0.10400000E+01           0.14292130E+00
   0.10500000E+01           0.12773148E+00
   0.10600000E+01           0.11233333E+00
   0.10700000E+01           0.10150694E+00
   0.10800000E+01           0.88358796E-01
   0.10900000E+01           0.77912037E-01
   0.11000000E+01           0.68085648E-01
   0.11100000E+01           0.60532407E-01
   0.11200000E+01           0.54451389E-01
   0.11300000E+01           0.45057870E-01
   0.11400000E+01           0.39685185E-01
   0.11500000E+01           0.35618056E-01
   0.11600000E+01           0.30636574E-01
   0.11700000E+01           0.26694444E-01
   0.11800000E+01           0.23689815E-01
   0.11900000E+01           0.20212963E-01
   0.12000000E+01           0.17219907E-01
   0.12100000E+01           0.14548611E-01
   0.12200000E+01           0.11921296E-01
   0.12300000E+01           0.10159722E-01
   0.12400000E+01           0.89236111E-02
   0.12500000E+01           0.78055556E-02
   0.12600000E+01           0.61250000E-02
   0.12700000E+01           0.52569444E-02
   0.12800000E+01           0.43796296E-02
   0.12900000E+01           0.37986111E-02
   0.13000000E+01           0.30439815E-02
   0.13100000E+01           0.27731481E-02
   0.13200000E+01           0.21759259E-02
   0.13300000E+01           0.20023148E-02
   0.13400000E+01           0.14166667E-02
   0.13500000E+01           0.10995370E-02
   0.13600000E+01           0.98611111E-03
   0.13700000E+01           0.76620370E-03
   0.13800000E+01           0.60185185E-03
   0.13900000E+01           0.49768519E-03
   0.14000000E+01           0.35185185E-03
   0.14100000E+01           0.36111111E-03
   0.14200000E+01           0.28009259E-03
   0.14300000E+01           0.19907407E-03
   0.14400000E+01           0.16203704E-03
   0.14500000E+01           0.12962963E-03
   0.14600000E+01           0.10879630E-03
   0.14700000E+01           0.64814815E-04
   0.14800000E+01           0.43981481E-04
   0.14900000E+01           0.48611111E-04
   0.15000000E+01           0.32407407E-04
   0.15100000E+01           0.32407407E-04
   0.15200000E+01           0.92592593E-05
   0.15300000E+01           0.69444444E-05
   0.15400000E+01           0.16203704E-04
   0.15500000E+01           0.11574074E-04
   0.15600000E+01           0.11574074E-04
   0.15700000E+01           0.69444444E-05
   0.15800000E+01           0.23148148E-05
   0.15900000E+01           0.00000000E+00
   0.16000000E+01           0.00000000E+00
   0.16100000E+01           0.46296296E-05
   0.16200000E+01           0.46296296E-05
   0.16300000E+01           0.23148148E-05
   0.16400000E+01           0.00000000E+00
   0.16500000E+01           0.00000000E+00
   0.16600000E+01           0.00000000E+00
   0.16700000E+01           0.00000000E+00
   0.16800000E+01           0.00000000E+00
   0.16900000E+01           0.00000000E+00
   0.17000000E+01           0.00000000E+00
   0.17100000E+01           0.00000000E+00
   0.17200000E+01           0.00000000E+00
   0.17300000E+01           0.00000000E+00
   0.17400000E+01           0.00000000E+00
   0.17500000E+01           0.00000000E+00
   0.17600000E+01           0.00000000E+00
   0.17700000E+01           0.00000000E+00
   0.17800000E+01           0.00000000E+00
   0.17900000E+01           0.00000000E+00
   0.18000000E+01           0.00000000E+00
   0.18100000E+01           0.00000000E+00
   0.18200000E+01           0.00000000E+00
   0.18300000E+01           0.00000000E+00
   0.18400000E+01           0.00000000E+00
   0.18500000E+01           0.00000000E+00
   0.18600000E+01           0.00000000E+00
   0.18700000E+01           0.00000000E+00
   0.18800000E+01           0.00000000E+00
   0.18900000E+01           0.00000000E+00
   0.19000000E+01           0.00000000E+00
   0.19100000E+01           0.00000000E+00
   0.19200000E+01           0.00000000E+00
   0.19300000E+01           0.00000000E+00
   0.19400000E+01           0.00000000E+00
   0.19500000E+01           0.00000000E+00
   0.19600000E+01           0.00000000E+00
   0.19700000E+01           0.00000000E+00
   0.19800000E+01           0.00000000E+00
   0.19900000E+01           0.00000000E+00
   0.20000000E+01           0.00000000E+00
 #T=     1.5000
  -0.20000000E+01           0.00000000E+00
  -0.19900000E+01           0.00000000E+00
  -0.19800000E+01           0.00000000E+00
  -0.19700000E+01           0.00000000E+00
  -0.19600000E+01           0.00000000E+00
  -0.19500000E+01           0.00000000E+00
  -0.19400000E+01           0.00000000E+00
  -0.19300000E+01           0.00000000E+00
  -0.19200000E+01           0.00000000E+00
  -0.19100000E+01           0.00000000E+00
  -0.19000000E+01           0.00000000E+00
  -0.18900000E+01           0.00000000E+00
  -0.18800000E+01           0.00000000E+00
  -0.18700000E+01           0.00000000E+00
  -0.18600000E+01           0.00000000E+00
  -0.18500000E+01           0.00000000E+00
  -0.18400000E+01           0.00000000E+00
  -0.18300000E+01           0.00000000E+00
  -0.18200000E+01           0.00000000E+00
  -0.18100000E+01           0.00000000E+00
  -0.18000000E+01           0.00000000E+00
  -0.17900000E+01           0.00000000E+00
  -0.17800000E+01           0.00000000E+00
  -0.17700000E+01           0.00000000E+00
  -0.17600000E+01           0.00000000E+00
  -0.17500000E+01           0.00000000E+00
  -0.17400000E+01           0.00000000E+00
  -0.17300000E+01           0.00000000E+00
  -0.17200000E+01           0.00000000E+00
  -0.17100000E+01           0.00000000E+00
  -0.17000000E+01           0.00000000E+00
  -0.16900000E+01           0.00000000E+00
  -0.16800000E+01           0.00000000E+00
  -0.16700000E+01           0.00000000E+00
  -0.16600000E+01           0.00000000E+00
  -0.16500000E+01           0.00000000E+00
  -0.16400000E+01           0.00000000E+00
  -0.16300000E+01           0.00000000E+00
  -0.16200000E+01           0.00000000E+00
  -0.16100000E+01           0.00000000E+00
  -0.16000000E+01           0.00000000E+00
  -0.15900000E+01           0.00000000E+00
  -0.15800000E+01           0.00000000E+00
  -0.15700000E+01           0.00000000E+00
  -0.15600000E+01           0.00000000E+00
  -0.15500000E+01           0.00000000E+00
  -0.15400000E+01           0.00000000E+00
  -0.15300000E+01           0.00000000E+00
  -0.15200000E+01           0.00000000E+00
  -0.15100000E+01           0.00000000E+00
  -0.15000000E+01           0.00000000E+00
  -0.14900000E+01           0.00000000E+00
  -0.14800000E+01           0.00000000E+00
  -0.14700000E+01           0.00000000E+00
  -0.14600000E+01           0.00000000E+00
  -0.14500000E+01           0.00000000E+00
  -0.14400000E+01           0.00000000E+00
  -0.14300000E+01           0.00000000E+00
  -0.14200000E+01           0.00000000E+00
  -0.14100000E+01           0.00000000E+00
  -0.14000000E+01           0.00000000E+00
  -0.13900000E+01           0.00000000E+00
  -0.13800000E+01           0.00000000E+00
  -0.13700000E+01           0.00000000E+00
  -0.13600000E+01           0.00000000E+00
  -0.13500000E+01           0.00000000E+00
  -0.13400000E+01           0.00000000E+00
  -0.13300000E+01           0.00000000E+00
  -0.13200000E+01           0.00000000E+00
  -0.13100000E+01           0.00000000E+00
  -0.13000000E+01           0.00000000E+00
  -0.12900000E+01           0.00000000E+00
  -0.12800000E+01           0.00000000E+00
  -0.12700000E+01           0.00000000E+00
  -0.12600000E+01           0.00000000E+00
  -0.12500000E+01           0.00000000E+00
  -0.12400000E+01           0.00000000E+00
  -0.12300000E+01           0.00000000E+00
  -0.12200000E+01           0.00000000E+00
  -0.12100000E+01           0.00000000E+00
  -0.12000000E+01           0.00000000E+00
  -0.11900000E+01           0.00000000E+00
  -0.11800000E+01           0.00000000E+00
  -0.11700000E+01           0.00000000E+00
  -0.11600000E+01           0.00000000E+00
  -0.11500000E+01           0.00000000E+00
  -0.11400000E+01           0.00000000E+00
  -0.11300000E+01           0.00000000E+00
  -0.11200000E+01           0.00000000E+00
  -0.11100000E+01           0.00000000E+00
  -0.11000000E+01           0.00000000E+00
  -0.10900000E+01           0.00000000E+00
  -0.10800000E+01           0.00000000E+00
  -0.10700000E+01           0.00000000E+00
  -0.10600000E+01           0.00000000E+00
  -0.10500000E+01           0.00000000E+00
  -0.10400000E+01           0.00000000E+00
  -0.10300000E+01           0.00000000E+00
  -0.10200000E+01           0.00000000E+00
  -0.10100000E+01           0.00000000E+00
  -0.10000000E+01           0.00000000E+00
  -0.99000000E+00           0.00000000E+00
  -0.98000000E+00           0.00000000E+00
  -0.97000000E+00           0.00000000E+00
  -0.96000000E+00           0.00000000E+00
  -0.95000000E+00           0.00000000E+00
  -0.94000000E+00           0.00000000E+00
  -0.93000000E+00           0.00000000E+00
  -0.92000000E+00           0.00000000E+00
  -0.91000000E+00           0.00000000E+00
  -0.90000000E+00           0.00000000E+00
  -0.89000000E+00           0.00000000E+00
  -0.88000000E+00           0.00000000E+00
  -0.87000000E+00           0.00000000E+00
  -0.86000000E+00           0.00000000E+00
  -0.85000000E+00           0.00000000E+00
  -0.84000000E+00           0.00000000E+00
  -0.83000000E+00           0.00000000E+00
  -0.82000000E+00           0.00000000E+00
  -0.81000000E+00           0.00000000E+00
  -0.80000000E+00           0.00000000E+00
  -0.79000000E+00           0.00000000E+00
  -0.78000000E+00           0.00000000E+00
  -0.77000000E+00           0.00000000E+00
  -0.76000000E+00           0.00000000E+00
  -0.75000000E+00           0.00000000E+00
  -0.74000000E+00           0.00000000E+00
  -0.73000000E+00           0.00000000E+00
  -0.72000000E+00           0.00000000E+00
  -0.71000000E+00           0.00000000E+00
  -0.70000000E+00           0.00000000E+00
  -0.69000000E+00           0.00000000E+00
  -0.68000000E+00           0.00000000E+00
  -0.67000000E+00           0.00000000E+00
  -0.66000000E+00           0.00000000E+00
  -0.65000000E+00           0.00000000E+00
  -0.64000000E+00           0.00000000E+00
  -0.63000000E+00           0.00000000E+00
  -0.62000000E+00           0.00000000E+00
  -0.61000000E+00           0.00000000E+00
  -0.60000000E+00           0.00000000E+00
  -0.59000000E+00           0.00000000E+00
  -0.58000000E+00           0.00000000E+00
  -0.57000000E+00           0.00000000E+00
  -0.56000000E+00           0.00000000E+00
  -0.55000000E+00           0.00000000E+00
  -0.54000000E+00           0.00000000E+00
  -0.53000000E+00           0.00000000E+00
  -0.52000000E+00           0.00000000E+00
  -0.51000000E+00           0.00000000E+00
  -0.50000000E+00           0.00000000E+00
  -0.49000000E+00           0.00000000E+00
  -0.48000000E+00           0.00000000E+00
  -0.47000000E+00           0.00000000E+00
  -0.46000000E+00           0.00000000E+00
  -0.45000000E+00           0.00000000E+00
  -0.44000000E+00           0.00000000E+00
  -0.43000000E+00           0.00000000E+00
  -0.42000000E+00           0.00000000E+00
  -0.41000000E+00           0.00000000E+00
  -0.40000000E+00           0.00000000E+00
  -0.39000000E+00           0.00000000E+00
  -0.38000000E+00           0.00000000E+00
  -0.37000000E+00           0.00000000E+00
  -0.36000000E+00           0.00000000E+00
  -0.35000000E+00           0.00000000E+00
  -0.34000000E+00           0.00000000E+00
  -0.33000000E+00           0.00000000E+00
  -0.32000000E+00           0.00000000E+00
  -0.31000000E+00           0.00000000E+00
  -0.30000000E+00           0.00000000E+00
  -0.29000000E+00           0.00000000E+00
  -0.28000000E+00           0.00000000E+00
  -0.27000000E+00           0.00000000E+00
  -0.26000000E+00           0.00000000E+00
  -0.25000000E+00           0.00000000E+00
  -0.24000000E+00           0.00000000E+00
  -0.23000000E+00           0.00000000E+00
  -0.22000000E+00           0.00000000E+00
  -0.21000000E+00           0.00000000E+00
  -0.20000000E+00           0.00000000E+00
  -0.19000000E+00           0.00000000E+00
  -0.18000000E+00           0.00000000E+00
  -0.17000000E+00           0.00000000E+00
  -0.16000000E+00           0.00000000E+00
  -0.15000000E+00           0.00000000E+00
  -0.14000000E+00           0.00000000E+00
  -0.13000000E+00           0.00000000E+00
  -0.12000000E+00           0.00000000E+00
  -0.11000000E+00           0.00000000E+00
  -0.10000000E+00           0.00000000E+00
  -0.90000000E-01           0.00000000E+00
  -0.80000000E-01           0.00000000E+00
  -0.70000000E-01           0.00000000E+00
  -0.60000000E-01           0.00000000E+00
  -0.50000000E-01           0.00000000E+00
  -0.40000000E-01           0.00000000E+00
  -0.30000000E-01           0.00000000E+00
  -0.20000000E-01           0.00000000E+00
  -0.10000000E-01           0.00000000E+00
   0.00000000E+00           0.26574074E-02
   0.10000000E-01           0.21858796E-01
   0.20000000E-01           0.42740741E-01
   0.30000000E-01           0.67756944E-01
   0.40000000E-01           0.87479167E-01
   0.50000000E-01           0.10833102E+00
   0.60000000E-01           0.13073843E+00
   0.70000000E-01           0.15428009E+00
   0.80000000E-01           0.17940046E+00
   0.90000000E-01           0.19981250E+00
   0.10000000E+00           0.22529398E+00
   0.11000000E+00           0.25215509E+00
   0.12000000E+00           0.27807639E+00
   0.13000000E+00           0.30548380E+00
   0.14000000E+00           0.33534259E+00
   0.15000000E+00           0.35963426E+00
   0.16000000E+00           0.39091667E+00
   0.17000000E+00           0.42016435E+00
   0.18000000E+00           0.44858102E+00
   0.19000000E+00           0.48033796E+00
   0.20000000E+00           0.50869676E+00
   0.21000000E+00           0.54596528E+00
   0.22000000E+00           0.57962731E+00
   0.23000000E+00           0.61657176E+00
   0.24000000E+00           0.64747917E+00
   0.25000000E+00           0.68564815E+00
   0.26000000E+00           0.71581019E+00
   0.27000000E+00           0.76097222E+00
   0.28000000E+00           0.79569676E+00
   0.29000000E+00           0.82696991E+00
   0.30000000E+00           0.86768287E+00
   0.31000000E+00           0.91327315E+00
   0.32000000E+00           0.94912963E+00
   0.33000000E+00           0.98700463E+00
   0.34000000E+00           0.10194190E+01
   0.35000000E+00           0.10623125E+01
   0.36000000E+00           0.10916667E+01
   0.37000000E+00           0.11391875E+01
   0.38000000E+00           0.11725023E+01
   0.39000000E+00           0.12044838E+01
   0.40000000E+00           0.12403819E+01
   0.41000000E+00           0.12722269E+01
   0.42000000E+00           0.13088495E+01
   0.43000000E+00           0.13435995E+01
   0.44000000E+00           0.13628218E+01
   0.45000000E+00           0.13948218E+01
   0.46000000E+00           0.14263079E+01
   0.47000000E+00           0.14499190E+01
   0.48000000E+00           0.14787060E+01
   0.49000000E+00           0.14982407E+01
   0.50000000E+00           0.15169468E+01
   0.51000000E+00           0.15262176E+01
   0.52000000E+00           0.15502361E+01
   0.53000000E+00           0.15590023E+01
   0.54000000E+00           0.15773426E+01
   0.55000000E+00           0.15857292E+01
   0.56000000E+00           0.15844421E+01
   0.57000000E+00           0.15912176E+01
   0.58000000E+00           0.15954769E+01
   0.59000000E+00           0.15951111E+01
   0.60000000E+00           0.15891111E+01
   0.61000000E+00           0.15878958E+01
   0.62000000E+00           0.15659815E+01
   0.63000000E+00           0.15711968E+01
   0.64000000E+00           0.15616042E+01
   0.65000000E+00           0.15469005E+01
   0.66000000E+00           0.15158519E+01
   0.67000000E+00           0.15009259E+01
   0.68000000E+00           0.14791921E+01
   0.69000000E+00           0.14589653E+01
   0.70000000E+00           0.14312245E+01
   0.71000000E+00           0.14104375E+01
   0.72000000E+00           0.13862986E+01
   0.73000000E+00           0.13590093E+01
   0.74000000E+00           0.13199699E+01
   0.75000000E+00           0.12917731E+01
   0.76000000E+00           0.12594838E+01
   0.77000000E+00           0.12187060E+01
   0.78000000E+00           0.11801111E+01
   0.79000000E+00           0.11500185E+01
   0.80000000E+00           0.11128218E+01
   0.81000000E+00           0.10736806E+01
   0.82000000E+00           0.10421250E+01
   0.83000000E+00           0.10044491E+01
   0.84000000E+00           0.96779167E+00
   0.85000000E+00           0.93061806E+00
   0.86000000E+00           0.89182176E+00
   0.87000000E+00           0.84661111E+00
   0.88000000E+00           0.80802778E+00
   0.89000000E+00           0.77338889E+00
   0.90000000E+00           0.73917593E+00
   0.91000000E+00           0.70512037E+00
   0.92000000E+00           0.66707176E+00
   0.93000000E+00           0.63363657E+00
   0.94000000E+00           0.59750000E+00
   0.95000000E+00           0.56897222E+00
   0.96000000E+00           0.53007639E+00
   0.97000000E+00           0.51039583E+00
   0.98000000E+00           0.47467361E+00
   0.99000000E+00           0.45182870E+00
   0.10000000E+01           0.42183333E+00
   0.10100000E+01           0.39402083E+00
   0.10200000E+01           0.36293981E+00
   0.10300000E+01           0.33925694E+00
   0.10400000E+01           0.31889120E+00
   0.10500000E+01           0.29743287E+00
   0.10600000E+01           0.27339815E+00
   0.10700000E+01           0.25459954E+00
   0.10800000E+01           0.23326389E+00
   0.10900000E+01           0.22024074E+00
   0.11000000E+01           0.20070370E+00
   0.11100000E+01           0.18443519E+00
   0.11200000E+01           0.17046759E+00
   0.11300000E+01           0.15653472E+00
   0.11400000E+01           0.14166204E+00
   0.11500000E+01           0.12984028E+00
   0.11600000E+01           0.11854630E+00
   0.11700000E+01           0.10861111E+00
   0.11800000E+01           0.96967593E-01
   0.11900000E+01           0.88638889E-01
   0.12000000E+01           0.79550926E-01
   0.12100000E+01           0.73895833E-01
   0.12200000E+01           0.65210648E-01
   0.12300000E+01           0.59372685E-01
   0.12400000E+01           0.53023148E-01
   0.12500000E+01           0.47868056E-01
   0.12600000E+01           0.42902778E-01
   0.12700000E+01           0.37817130E-01
   0.12800000E+01           0.34025463E-01
   0.12900000E+01           0.30085648E-01
   0.13000000E+01           0.26567130E-01
   0.13100000E+01           0.23391204E-01
   0.13200000E+01           0.20506944E-01
   0.13300000E+01           0.18303241E-01
   0.13400000E+01           0.15752315E-01
   0.13500000E+01           0.14219907E-01
   0.13600000E+01           0.12344907E-01
   0.13700000E+01           0.11421296E-01
   0.13800000E+01           0.98750000E-02
   0.13900000E+01           0.79328704E-02
   0.14000000E+01           0.70671296E-02
   0.14100000E+01           0.65601852E-02
   0.14200000E+01           0.57268519E-02
   0.14300000E+01           0.46388889E-02
   0.14400000E+01           0.39282407E-02
   0.14500000E+01           0.34953704E-02
   0.14600000E+01           0.28611111E-02
   0.14700000E+01           0.24814815E-02
   0.14800000E+01           0.22199074E-02
   0.14900000E+01           0.20138889E-02
   0.15000000E+01           0.15555556E-02
   0.15100000E+01           0.13217593E-02
   0.15200000E+01           0.11250000E-02
   0.15300000E+01           0.85648148E-03
   0.15400000E+01           0.77546296E-03
   0.15500000E+01           0.75000000E-03
   0.15600000E+01           0.56944444E-03
   0.15700000E+01           0.50462963E-03
   0.15800000E+01           0.35879630E-03
   0.15900000E+01           0.36805556E-03
   0.16000000E+01           0.27314815E-03
   0.16100000E+01           0.20138889E-03
   0.16200000E+01           0.18981481E-03
   0.16300000E+01           0.12731481E-03
   0.16400000E+01           0.83333333E-04
   0.16500000E+01           0.90277778E-04
   0.16600000E+01           0.55555556E-04
   0.16700000E+01           0.50925926E-04
   0.16800000E+01           0.43981481E-04
   0.16900000E+01           0.46296296E-04
   0.17000000E+01           0.37037037E-04
   0.17100000E+01           0.13888889E-04
   0.17200000E+01           0.13888889E-04
   0.17300000E+01           0.23148148E-04
   0.17400000E+01           0.20833333E-04
   0.17500000E+01           0.23148148E-05
   0.17600000E+01           0.92592593E-05
   0.17700000E+01           0.23148148E-05
   0.17800000E+01           0.00000000E+00
   0.17900000E+01           0.00000000E+00
   0.18000000E+01           0.00000000E+00
   0.18100000E+01           0.00000000E+00
   0.18200000E+01           0.00000000E+00
   0.18300000E+01           0.00000000E+00
   0.18400000E+01           0.23148148E-05
   0.18500000E+01           0.00000000E+00
   0.18600000E+01           0.00000000E+00
   0.18700000E+01           0.00000000E+00
   0.18800000E+01           0.00000000E+00
   0.18900000E+01           0.00000000E+00
   0.19000000E+01           0.00000000E+00
   0.19100000E+01           0.00000000E+00
   0.19200000E+01           0.00000000E+00
   0.19300000E+01           0.00000000E+00
   0.19400000E+01           0.00000000E+00
   0.19500000E+01           0.00000000E+00
   0.19600000E+01           0.00000000E+00
   0.19700000E+01           0.00000000E+00
   0.19800000E+01           0.00000000E+00
   0.19900000E+01           0.00000000E+00
   0.20000000E+01           0.00000000E+00
 #T=     2.0000
  -0.20000000E+01           0.00000000E+00
  -0.19900000E+01           0.00000000E+00
  -0.19800000E+01           0.00000000E+00
  -0.19700000E+01           0.00000000E+00
  -0.19600000E+01           0.00000000E+00
  -0.19500000E+01           0.00000000E+00
  -0.19400000E+01           0.00000000E+00
  -0.19300000E+01           0.00000000E+00
  -0.19200000E+01           0.00000000E+00
  -0.19100000E+01           0.00000000E+00
  -0.19000000E+01           0.00000000E+00
  -0.18900000E+01           0.00000000E+00
  -0.18800000E+01           0.00000000E+00
  -0.18700000E+01           0.00000000E+00
  -0.18600000E+01           0.00000000E+00
  -0.18500000E+01           0.00000000E+00
  -0.18400000E+01           0.00000000E+00
  -0.18300000E+01           0.00000000E+00
  -0.18200000E+01           0.00000000E+00
  -0.18100000E+01           0.00000000E+00
  -0.18000000E+01           0.00000000E+00
  -0.17900000E+01           0.00000000E+00
  -0.17800000E+01           0.00000000E+00
  -0.17700000E+01           0.00000000E+00
  -0.17600000E+01           0.00000000E+00
  -0.17500000E+01           0.00000000E+00
  -0.17400000E+01           0.00000000E+00
  -0.17300000E+01           0.00000000E+00
  -0.17200000E+01           0.00000000E+00
  -0.17100000E+01           0.00000000E+00
  -0.17000000E+01           0.00000000E+00
  -0.16900000E+01           0.00000000E+00
  -0.16800000E+01           0.00000000E+00
  -0.16700000E+01           0.00000000E+00
  -0.16600000E+01           0.00000000E+00
  -0.16500000E+01           0.00000000E+00
  -0.16400000E+01           0.00000000E+00
  -0.16300000E+01           0.00000000E+00
  -0.16200000E+01           0.00000000E+00
  -0.16100000E+01           0.00000000E+00
  -0.16000000E+01           0.00000000E+00
  -0.15900000E+01           0.00000000E+00
  -0.15800000E+01           0.00000000E+00
  -0.15700000E+01           0.00000000E+00
  -0.15600000E+01           0.00000000E+00
  -0.15500000E+01           0.00000000E+00
  -0.15400000E+01           0.00000000E+00
  -0.15300000E+01           0.00000000E+00
  -0.15200000E+01           0.00000000E+00
  -0.15100000E+01           0.00000000E+00
  -0.15000000E+01           0.00000000E+00
  -0.14900000E+01           0.00000000E+00
  -0.14800000E+01           0.00000000E+00
  -0.14700000E+01           0.00000000E+00
  -0.14600000E+01           0.00000000E+00
  -0.14500000E+01           0.00000000E+00
  -0.14400000E+01           0.00000000E+00
  -0.14300000E+01           0.00000000E+00
  -0.14200000E+01           0.00000000E+00
  -0.14100000E+01           0.00000000E+00
  -0.14000000E+01           0.00000000E+00
  -0.13900000E+01           0.00000000E+00
  -0.13800000E+01           0.00000000E+00
  -0.13700000E+01           0.00000000E+00
  -0.13600000E+01           0.00000000E+00
  -0.13500000E+01           0.00000000E+00
  -0.13400000E+01           0.00000000E+00
  -0.13300000E+01           0.00000000E+00
  -0.13200000E+01           0.00000000E+00
  -0.13100000E+01           0.00000000E+00
  -0.13000000E+01           0.00000000E+00
  -0.12900000E+01           0.00000000E+00
  -0.12800000E+01           0.00000000E+00
  -0.12700000E+01           0.00000000E+00
  -0.12600000E+01           0.00000000E+00
  -0.12500000E+01           0.00000000E+00
  -0.12400000E+01           0.00000000E+00
  -0.12300000E+01           0.00000000E+00
  -0.12200000E+01           0.00000000E+00
  -0.12100000E+01           0.00000000E+00
  -0.12000000E+01           0.00000000E+00
  -0.11900000E+01           0.00000000E+00
  -0.11800000E+01           0.00000000E+00
  -0.11700000E+01           0.00000000E+00
  -0.11600000E+01           0.00000000E+00
  -0.11500000E+01           0.00000000E+00
  -0.11400000E+01           0.00000000E+00
  -0.11300000E+01           0.00000000E+00
  -0.11200000E+01           0.00000000E+00
  -0.11100000E+01           0.00000000E+00
  -0.11000000E+01           0.00000000E+00
  -0.10900000E+01           0.00000000E+00
  -0.10800000E+01           0.00000000E+00
  -0.10700000E+01           0.00000000E+00
  -0.10600000E+01           0.00000000E+00
  -0.10500000E+01           0.00000000E+00
  -0.10400000E+01           0.00000000E+00
  -0.10300000E+01           0.00000000E+00
  -0.10200000E+01           0.00000000E+00
  -0.10100000E+01           0.00000000E+00
  -0.10000000E+01           0.00000000E+00
  -0.99000000E+00           0.00000000E+00
  -0.98000000E+00           0.00000000E+00
  -0.97000000E+00           0.00000000E+00
  -0.96000000E+00           0.00000000E+00
  -0.95000000E+00           0.00000000E+00
  -0.94000000E+00           0.00000000E+00
  -0.93000000E+00           0.00000000E+00
  -0.92000000E+00           0.00000000E+00
  -0.91000000E+00           0.00000000E+00
  -0.90000000E+00           0.00000000E+00
  -0.89000000E+00           0.00000000E+00
  -0.88000000E+00           0.00000000E+00
  -0.87000000E+00           0.00000000E+00
  -0.86000000E+00           0.00000000E+00
  -0.85000000E+00           0.00000000E+00
  -0.84000000E+00           0.00000000E+00
  -0.83000000E+00           0.00000000E+00
  -0.82000000E+00           0.00000000E+00
  -0.81000000E+00           0.00000000E+00
  -0.80000000E+00           0.00000000E+00
  -0.79000000E+00           0.00000000E+00
  -0.78000000E+00           0.00000000E+00
  -0.77000000E+00           0.00000000E+00
  -0.76000000E+00           0.00000000E+00
  -0.75000000E+00           0.00000000E+00
  -0.74000000E+00           0.00000000E+00
  -0.73000000E+00           0.00000000E+00
  -0.72000000E+00           0.00000000E+00
  -0.71000000E+00           0.00000000E+00
  -0.70000000E+00           0.00000000E+00
  -0.69000000E+00           0.00000000E+00
  -0.68000000E+00           0.00000000E+00
  -0.67000000E+00           0.00000000E+00
  -0.66000000E+00           0.00000000E+00
  -0.65000000E+00           0.00000000E+00
  -0.64000000E+00           0.00000000E+00
  -0.63000000E+00           0.00000000E+00
  -0.62000000E+00           0.00000000E+00
  -0.61000000E+00           0.00000000E+00
  -0.60000000E+00           0.00000000E+00
  -0.59000000E+00           0.00000000E+00
  -0.58000000E+00           0.00000000E+00
  -0.57000000E+00           0.00000000E+00
  -0.56000000E+00           0.00000000E+00
  -0.55000000E+00           0.00000000E+00
  -0.54000000E+00           0.00000000E+00
  -0.53000000E+00           0.00000000E+00
  -0.52000000E+00           0.00000000E+00
  -0.51000000E+00           0.00000000E+00
  -0.50000000E+00           0.00000000E+00
  -0.49000000E+00           0.00000000E+00
  -0.48000000E+00           0.00000000E+00
  -0.47000000E+00           0.00000000E+00
  -0.46000000E+00           0.00000000E+00
  -0.45000000E+00           0.00000000E+00
  -0.44000000E+00           0.00000000E+00
  -0.43000000E+00           0.00000000E+00
  -0.42000000E+00           0.00000000E+00
  -0.41000000E+00           0.00000000E+00
  -0.40000000E+00           0.00000000E+00
  -0.39000000E+00           0.00000000E+00
  -0.38000000E+00           0.00000000E+00
  -0.37000000E+00           0.00000000E+00
  -0.36000000E+00           0.00000000E+00
  -0.35000000E+00           0.00000000E+00
  -0.34000000E+00           0.00000000E+00
  -0.33000000E+00           0.00000000E+00
  -0.32000000E+00           0.00000000E+00
  -0.31000000E+00           0.00000000E+00
  -0.30000000E+00           0.00000000E+00
  -0.29000000E+00           0.00000000E+00
  -0.28000000E+00           0.00000000E+00
  -0.27000000E+00           0.00000000E+00
  -0.26000000E+00           0.00000000E+00
  -0.25000000E+00           0.00000000E+00
  -0.24000000E+00           0.00000000E+00
  -0.23000000E+00           0.00000000E+00
  -0.22000000E+00           0.00000000E+00
  -0.21000000E+00           0.00000000E+00
  -0.20000000E+00           0.00000000E+00
  -0.19000000E+00           0.00000000E+00
  -0.18000000E+00           0.00000000E+00
  -0.17000000E+00           0.00000000E+00
  -0.16000000E+00           0.00000000E+00
  -0.15000000E+00           0.00000000E+00
  -0.14000000E+00           0.00000000E+00
  -0.13000000E+00           0.00000000E+00
  -0.12000000E+00           0.00000000E+00
  -0.11000000E+00           0.00000000E+00
  -0.10000000E+00           0.00000000E+00
  -0.90000000E-01           0.00000000E+00
  -0.80000000E-01           0.00000000E+00
  -0.70000000E-01           0.00000000E+00
  -0.60000000E-01           0.00000000E+00
  -0.50000000E-01           0.00000000E+00
  -0.40000000E-01           0.00000000E+00
  -0.30000000E-01           0.00000000E+00
  -0.20000000E-01           0.00000000E+00
  -0.10000000E-01           0.00000000E+00
   0.00000000E+00           0.28750000E-02
   0.10000000E-01           0.25460648E-01
   0.20000000E-01           0.52685185E-01
   0.30000000E-01           0.76060185E-01
   0.40000000E-01           0.10267361E+00
   0.50000000E-01           0.12867824E+00
   0.60000000E-01           0.15442593E+00
   0.70000000E-01           0.17950926E+00
   0.80000000E-01           0.20855787E+00
   0.90000000E-01           0.23270833E+00
   0.10000000E+00           0.26018750E+00
   0.11000000E+00           0.28774537E+00
   0.12000000E+00           0.31546065E+00
   0.13000000E+00           0.34361111E+00
   0.14000000E+00           0.36787500E+00
   0.15000000E+00           0.39849306E+00
   0.16000000E+00           0.42518981E+00
   0.17000000E+00           0.45450694E+00
   0.18000000E+00           0.48153241E+00
   0.19000000E+00           0.51284028E+00
   0.20000000E+00           0.54443750E+00
   0.21000000E+00           0.57118287E+00
   0.22000000E+00           0.60709491E+00
   0.23000000E+00           0.63342593E+00
   0.24000000E+00           0.66232176E+00
   0.25000000E+00           0.68705556E+00
   0.26000000E+00           0.72070602E+00
   0.27000000E+00           0.75381250E+00
   0.28000000E+00           0.78075231E+00
   0.29000000E+00           0.80803472E+00
   0.30000000E+00           0.84300231E+00
   0.31000000E+00           0.87653935E+00
   0.32000000E+00           0.90280093E+00
   0.33000000E+00           0.93202778E+00
   0.34000000E+00           0.96270833E+00
   0.35000000E+00           0.98606944E+00
   0.36000000E+00           0.10209606E+01
   0.37000000E+00           0.10471898E+01
   0.38000000E+00           0.10735324E+01
   0.39000000E+00           0.11055926E+01
   0.40000000E+00           0.11177824E+01
   0.41000000E+00           0.11491620E+01
   0.42000000E+00           0.11829491E+01
   0.43000000E+00           0.11965810E+01
   0.44000000E+00           0.12170347E+01
   0.45000000E+00           0.12345532E+01
   0.46000000E+00           0.12640347E+01
   0.47000000E+00           0.12791829E+01
   0.48000000E+00           0.12954653E+01
   0.49000000E+00           0.13148796E+01
   0.50000000E+00           0.13354282E+01
   0.51000000E+00           0.13522245E+01
   0.52000000E+00           0.13561065E+01
   0.53000000E+00           0.13692384E+01
   0.54000000E+00           0.13856505E+01
   0.55000000E+00           0.13927940E+01
   0.56000000E+00           0.13886389E+01
   0.57000000E+00           0.14027361E+01
   0.58000000E+00           0.14027731E+01
   0.59000000E+00           0.14066042E+01
   0.60000000E+00           0.14033333E+01
   0.61000000E+00           0.14053750E+01
   0.62000000E+00           0.14073634E+01
   0.63000000E+00           0.13942477E+01
   0.64000000E+00           0.13860579E+01
   0.65000000E+00           0.13867546E+01
   0.66000000E+00           0.13843102E+01
   0.67000000E+00           0.13714977E+01
   0.68000000E+00           0.13518981E+01
   0.69000000E+00           0.13423681E+01
   0.70000000E+00           0.13350856E+01
   0.71000000E+00           0.13157083E+01
   0.72000000E+00           0.12942731E+01
   0.73000000E+00           0.12743218E+01
   0.74000000E+00           0.12537153E+01
   0.75000000E+00           0.12392986E+01
   0.76000000E+00           0.12134838E+01
   0.77000000E+00           0.11872176E+01
   0.78000000E+00           0.11634468E+01
   0.79000000E+00           0.11445764E+01
   0.80000000E+00           0.11268449E+01
   0.81000000E+00           0.10913981E+01
   0.82000000E+00           0.10585417E+01
   0.83000000E+00           0.10408148E+01
   0.84000000E+00           0.10147060E+01
   0.85000000E+00           0.98587037E+00
   0.86000000E+00           0.95315509E+00
   0.87000000E+00           0.92797454E+00
   0.88000000E+00           0.89629630E+00
   0.89000000E+00           0.87030324E+00
   0.90000000E+00           0.83677315E+00
   0.91000000E+00           0.81153472E+00
   0.92000000E+00           0.78184954E+00
   0.93000000E+00           0.75350694E+00
   0.94000000E+00           0.73015509E+00
   0.95000000E+00           0.69380556E+00
   0.96000000E+00           0.67250694E+00
   0.97000000E+00           0.64536111E+00
   0.98000000E+00           0.61396991E+00
   0.99000000E+00           0.58729167E+00
   0.10000000E+01           0.56262269E+00
   0.10100000E+01           0.53636111E+00
   0.10200000E+01           0.50817130E+00
   0.10300000E+01           0.48492361E+00
   0.10400000E+01           0.46002546E+00
   0.10500000E+01           0.43950231E+00
   0.10600000E+01           0.41282176E+00
   0.10700000E+01           0.39142361E+00
   0.10800000E+01           0.37215046E+00
   0.10900000E+01           0.34717824E+00
   0.11000000E+01           0.33023611E+00
   0.11100000E+01           0.31061574E+00
   0.11200000E+01           0.29430324E+00
   0.11300000E+01           0.27425926E+00
   0.11400000E+01           0.25760185E+00
   0.11500000E+01           0.24003704E+00
   0.11600000E+01           0.22708565E+00
   0.11700000E+01           0.21282639E+00
   0.11800000E+01           0.19587037E+00
   0.11900000E+01           0.18406481E+00
   0.12000000E+01           0.17127083E+00
   0.12100000E+01           0.15834028E+00
   0.12200000E+01           0.14836574E+00
   0.12300000E+01           0.13701620E+00
   0.12400000E+01           0.12594907E+00
   0.12500000E+01           0.11711806E+00
   0.12600000E+01           0.10760880E+00
   0.12700000E+01           0.99030093E-01
   0.12800000E+01           0.92326389E-01
   0.12900000E+01           0.83807870E-01
   0.13000000E+01           0.77451389E-01
   0.13100000E+01           0.70326389E-01
   0.13200000E+01           0.64872685E-01
   0.13300000E+01           0.58416667E-01
   0.13400000E+01           0.53284722E-01
   0.13500000E+01           0.49016204E-01
   0.13600000E+01           0.45180556E-01
   0.13700000E+01           0.39057870E-01
   0.13800000E+01           0.36456019E-01
   0.13900000E+01           0.32752315E-01
   0.14000000E+01           0.29844907E-01
   0.14100000E+01           0.26699074E-01
   0.14200000E+01           0.24759259E-01
   0.14300000E+01           0.22185185E-01
   0.14400000E+01           0.19483796E-01
   0.14500000E+01           0.17548611E-01
   0.14600000E+01           0.15888889E-01
   0.14700000E+01           0.13891204E-01
   0.14800000E+01           0.12523148E-01
   0.14900000E+01           0.10847222E-01
   0.15000000E+01           0.94722222E-02
   0.15100000E+01           0.87939815E-02
   0.15200000E+01           0.78055556E-02
   0.15300000E+01           0.66921296E-02
   0.15400000E+01           0.55532407E-02
   0.15500000E+01           0.51666667E-02
   0.15600000E+01           0.44583333E-02
   0.15700000E+01           0.38148148E-02
   0.15800000E+01           0.32731481E-02
   0.15900000E+01           0.30115741E-02
   0.16000000E+01           0.23379630E-02
   0.16100000E+01           0.22476852E-02
   0.16200000E+01           0.18217593E-02
   0.16300000E+01           0.16712963E-02
   0.16400000E+01           0.15231481E-02
   0.16500000E+01           0.11481481E-02
   0.16600000E+01           0.10509259E-02
   0.16700000E+01           0.10115741E-02
   0.16800000E+01           0.77314815E-03
   0.16900000E+01           0.68287037E-03
   0.17000000E+01           0.51851852E-03
   0.17100000E+01           0.44675926E-03
   0.17200000E+01           0.41435185E-03
   0.17300000E+01           0.32870370E-03
   0.17400000E+01           0.27083333E-03
   0.17500000E+01           0.24537037E-03
   0.17600000E+01           0.19907407E-03
   0.17700000E+01           0.12731481E-03
   0.17800000E+01           0.11574074E-03
   0.17900000E+01           0.12037037E-03
   0.18000000E+01           0.90277778E-04
   0.18100000E+01           0.67129630E-04
   0.18200000E+01           0.34722222E-04
   0.18300000E+01           0.39351852E-04
   0.18400000E+01           0.32407407E-04
   0.18500000E+01           0.25462963E-04
   0.18600000E+01           0.16203704E-04
   0.18700000E+01           0.20833333E-04
   0.18800000E+01           0.11574074E-04
   0.18900000E+01           0.46296296E-05
   0.19000000E+01           0.13888889E-04
   0.19100000E+01           0.00000000E+00
   0.19200000E+01           0.46296296E-05
   0.19300000E+01           0.23148148E-05
   0.19400000E+01           0.00000000E+00
   0.19500000E+01           0.00000000E+00
   0.19600000E+01           0.00000000E+00
   0.19700000E+01           0.00000000E+00
   0.19800000E+01           0.00000000E+00
   0.19900000E+01           0.23148148E-05
   0.20000000E+01           0.00000000E+00
 #T=     2.5000
  -0.20000000E+01           0.00000000E+00
  -0.19900000E+01           0.00000000E+00
  -0.19800000E+01           0.00000000E+00
  -0.19700000E+01           0.00000000E+00
  -0.19600000E+01           0.00000000E+00
  -0.19500000E+01           0.00000000E+00
  -0.19400000E+01           0.00000000E+00
  -0.19300000E+01           0.00000000E+00
  -0.19200000E+01           0.00000000E+00
  -0.19100000E+01           0.00000000E+00
  -0.19000000E+01           0.00000000E+00
  -0.18900000E+01           0.00000000E+00
  -0.18800000E+01           0.00000000E+00
  -0.18700000E+01           0.00000000E+00
  -0.18600000E+01           0.00000000E+00
  -0.18500000E+01           0.00000000E+00
  -0.18400000E+01           0.00000000E+00
  -0.18300000E+01           0.00000000E+00
  -0.18200000E+01           0.00000000E+00
  -0.18100000E+01           0.00000000E+00
  -0.18000000E+01           0.00000000E+00
  -0.17900000E+01           0.00000000E+00
  -0.17800000E+01           0.00000000E+00
  -0.17700000E+01           0.00000000E+00
  -0.17600000E+01           0.00000000E+00
  -0.17500000E+01           0.00000000E+00
  -0.17400000E+01           0.00000000E+00
  -0.17300000E+01           0.00000000E+00
  -0.17200000E+01           0.00000000E+00
  -0.17100000E+01           0.00000000E+00
  -0.17000000E+01           0.00000000E+00
  -0.16900000E+01           0.00000000E+00
  -0.16800000E+01           0.00000000E+00
  -0.16700000E+01           0.00000000E+00
  -0.16600000E+01           0.00000000E+00
  -0.16500000E+01           0.00000000E+00
  -0.16400000E+01           0.00000000E+00
  -0.16300000E+01           0.00000000E+00
  -0.16200000E+01           0.00000000E+00
  -0.16100000E+01           0.00000000E+00
  -0.16000000E+01           0.00000000E+00
  -0.15900000E+01           0.00000000E+00
  -0.15800000E+01           0.00000000E+00
  -0.15700000E+01           0.00000000E+00
  -0.15600000E+01           0.00000000E+00
  -0.15500000E+01           0.00000000E+00
  -0.15400000E+01           0.00000000E+00
  -0.15300000E+01           0.00000000E+00
  -0.15200000E+01           0.00000000E+00
  -0.15100000E+01           0.00000000E+00
  -0.15000000E+01           0.00000000E+00
  -0.14900000E+01           0.00000000E+00
  -0.14800000E+01           0.00000000E+00
  -0.14700000E+01           0.00000000E+00
  -0.14600000E+01           0.00000000E+00
  -0.14500000E+01           0.00000000E+00
  -0.14400000E+01           0.00000000E+00
  -0.14300000E+01           0.00000000E+00
  -0.14200000E+01           0.00000000E+00
  -0.14100000E+01           0.00000000E+00
  -0.14000000E+01           0.00000000E+00
  -0.13900000E+01           0.00000000E+00
  -0.13800000E+01           0.00000000E+00
  -0.13700000E+01           0.00000000E+00
  -0.13600000E+01           0.00000000E+00
  -0.13500000E+01           0.00000000E+00
  -0.13400000E+01           0.00000000E+00
  -0.13300000E+01           0.00000000E+00
  -0.13200000E+01           0.00000000E+00
  -0.13100000E+01           0.00000000E+00
  -0.13000000E+01           0.00000000E+00
  -0.12900000E+01           0.00000000E+00
  -0.12800000E+01           0.00000000E+00
  -0.12700000E+01           0.00000000E+00
  -0.12600000E+01           0.00000000E+00
  -0.12500000E+01           0.00000000E+00
  -0.12400000E+01           0.00000000E+00
  -0.12300000E+01           0.00000000E+00
  -0.12200000E+01           0.00000000E+00
  -0.12100000E+01           0.00000000E+00
  -0.12000000E+01           0.00000000E+00
  -0.11900000E+01           0.00000000E+00
  -0.11800000E+01           0.00000000E+00
  -0.11700000E+01           0.00000000E+00
  -0.11600000E+01           0.00000000E+00
  -0.11500000E+01           0.00000000E+00
  -0.11400000E+01           0.00000000E+00
  -0.11300000E+01           0.00000000E+00
  -0.11200000E+01           0.00000000E+00
  -0.11100000E+01           0.00000000E+00
  -0.11000000E+01           0.00000000E+00
  -0.10900000E+01           0.00000000E+00
  -0.10800000E+01           0.00000000E+00
  -0.10700000E+01           0.00000000E+00
  -0.10600000E+01           0.00000000E+00
  -0.10500000E+01           0.00000000E+00
  -0.10400000E+01           0.00000000E+00
  -0.10300000E+01           0.00000000E+00
  -0.10200000E+01           0.00000000E+00
  -0.10100000E+01           0.00000000E+00
  -0.10000000E+01           0.00000000E+00
  -0.99000000E+00           0.00000000E+00
  -0.98000000E+00           0.00000000E+00
  -0.97000000E+00           0.00000000E+00
  -0.96000000E+00           0.00000000E+00
  -0.95000000E+00           0.00000000E+00
  -0.94000000E+00           0.00000000E+00
  -0.93000000E+00           0.00000000E+00
  -0.92000000E+00           0.00000000E+00
  -0.91000000E+00           0.00000000E+00
  -0.90000000E+00           0.00000000E+00
  -0.89000000E+00           0.00000000E+00
  -0.88000000E+00           0.00000000E+00
  -0.87000000E+00           0.00000000E+00
  -0.86000000E+00           0.00000000E+00
  -0.85000000E+00           0.00000000E+00
  -0.84000000E+00           0.00000000E+00
  -0.83000000E+00           0.00000000E+00
  -0.82000000E+00           0.00000000E+00
  -0.81000000E+00           0.00000000E+00
  -0.80000000E+00           0.00000000E+00
  -0.79000000E+00           0.00000000E+00
  -0.78000000E+00           0.00000000E+00
  -0.77000000E+00           0.00000000E+00
  -0.76000000E+00           0.00000000E+00
  -0.75000000E+00           0.00000000E+00
  -0.74000000E+00           0.00000000E+00
  -0.73000000E+00           0.00000000E+00
  -0.72000000E+00           0.00000000E+00
  -0.71000000E+00           0.00000000E+00
  -0.70000000E+00           0.00000000E+00
  -0.69000000E+00           0.00000000E+00
  -0.68000000E+00           0.00000000E+00
  -0.67000000E+00           0.00000000E+00
  -0.66000000E+00           0.00000000E+00
  -0.65000000E+00           0.00000000E+00
  -0.64000000E+00           0.00000000E+00
  -0.63000000E+00           0.00000000E+00
  -0.62000000E+00           0.00000000E+00
  -0.61000000E+00           0.00000000E+00
  -0.60000000E+00           0.00000000E+00
  -0.59000000E+00           0.00000000E+00
  -0.58000000E+00           0.00000000E+00
  -0.57000000E+00           0.00000000E+00
  -0.56000000E+00           0.00000000E+00
  -0.55000000E+00           0.00000000E+00
  -0.54000000E+00           0.00000000E+00
  -0.53000000E+00           0.00000000E+00
  -0.52000000E+00           0.00000000E+00
  -0.51000000E+00           0.00000000E+00
  -0.50000000E+00           0.00000000E+00
  -0.49000000E+00           0.00000000E+00
  -0.48000000E+00           0.00000000E+00
  -0.47000000E+00           0.00000000E+00
  -0.46000000E+00           0.00000000E+00
  -0.45000000E+00           0.00000000E+00
  -0.44000000E+00           0.00000000E+00
  -0.43000000E+00           0.00000000E+00
  -0.42000000E+00           0.00000000E+00
  -0.41000000E+00           0.00000000E+00
  -0.40000000E+00           0.00000000E+00
  -0.39000000E+00           0.00000000E+00
  -0.38000000E+00           0.00000000E+00
  -0.37000000E+00           0.00000000E+00
  -0.36000000E+00           0.00000000E+00
  -0.35000000E+00           0.00000000E+00
  -0.34000000E+00           0.00000000E+00
  -0.33000000E+00           0.00000000E+00
  -0.32000000E+00           0.00000000E+00
  -0.31000000E+00           0.00000000E+00
  -0.30000000E+00           0.00000000E+00
  -0.29000000E+00           0.00000000E+00
  -0.28000000E+00           0.00000000E+00
  -0.27000000E+00           0.00000000E+00
  -0.26000000E+00           0.00000000E+00
  -0.25000000E+00           0.00000000E+00
  -0.24000000E+00           0.00000000E+00
  -0.23000000E+00           0.00000000E+00
  -0.22000000E+00           0.00000000E+00
  -0.21000000E+00           0.00000000E+00
  -0.20000000E+00           0.00000000E+00
  -0.19000000E+00           0.00000000E+00
  -0.18000000E+00           0.00000000E+00
  -0.17000000E+00           0.00000000E+00
  -0.16000000E+00           0.00000000E+00
  -0.15000000E+00           0.00000000E+00
  -0.14000000E+00           0.00000000E+00
  -0.13000000E+00           0.00000000E+00
  -0.12000000E+00           0.00000000E+00
  -0.11000000E+00           0.00000000E+00
  -0.10000000E+00           0.00000000E+00
  -0.90000000E-01           0.00000000E+00
  -0.80000000E-01           0.00000000E+00
  -0.70000000E-01           0.00000000E+00
  -0.60000000E-01           0.00000000E+00
  -0.50000000E-01           0.00000000E+00
  -0.40000000E-01           0.00000000E+00
  -0.30000000E-01           0.00000000E+00
  -0.20000000E-01           0.00000000E+00
  -0.10000000E-01           0.00000000E+00
   0.00000000E+00           0.32013889E-02
   0.10000000E-01           0.26673611E-01
   0.20000000E-01           0.53553241E-01
   0.30000000E-01           0.80863426E-01
   0.40000000E-01           0.10678241E+00
   0.50000000E-01           0.13366204E+00
   0.60000000E-01           0.16304398E+00
   0.70000000E-01           0.18876852E+00
   0.80000000E-01           0.21483102E+00
   0.90000000E-01           0.24334954E+00
   0.10000000E+00           0.26808333E+00
   0.11000000E+00           0.29548380E+00
   0.12000000E+00           0.32311574E+00
   0.13000000E+00           0.35123611E+00
   0.14000000E+00           0.37686574E+00
   0.15000000E+00           0.40559028E+00
   0.16000000E+00           0.43488889E+00
   0.17000000E+00           0.45887500E+00
   0.18000000E+00           0.48587037E+00
   0.19000000E+00           0.51302083E+00
   0.20000000E+00           0.54112500E+00
   0.21000000E+00           0.56668056E+00
   0.22000000E+00           0.59459954E+00
   0.23000000E+00           0.62410880E+00
   0.24000000E+00           0.64768519E+00
   0.25000000E+00           0.67441667E+00
   0.26000000E+00           0.70430787E+00
   0.27000000E+00           0.72924306E+00
   0.28000000E+00           0.75762963E+00
   0.29000000E+00           0.77653009E+00
   0.30000000E+00           0.80380093E+00
   0.31000000E+00           0.83066667E+00
   0.32000000E+00           0.86015046E+00
   0.33000000E+00           0.87765972E+00
   0.34000000E+00           0.90070833E+00
   0.35000000E+00           0.92672917E+00
   0.36000000E+00           0.95244907E+00
   0.37000000E+00           0.97285880E+00
   0.38000000E+00           0.99891667E+00
   0.39000000E+00           0.10175255E+01
   0.40000000E+00           0.10447894E+01
   0.41000000E+00           0.10630162E+01
   0.42000000E+00           0.10838426E+01
   0.43000000E+00           0.10995972E+01
   0.44000000E+00           0.11245949E+01
   0.45000000E+00           0.11381319E+01
   0.46000000E+00           0.11536944E+01
   0.47000000E+00           0.11699792E+01
   0.48000000E+00           0.11849931E+01
   0.49000000E+00           0.11993866E+01
[...]
   0.13800000E+01           0.66659954E+00
   0.13900000E+01           0.66540278E+00
   0.14000000E+01           0.66319676E+00
   0.14100000E+01           0.66250694E+00
   0.14200000E+01           0.65815741E+00
   0.14300000E+01           0.65700694E+00
   0.14400000E+01           0.65406944E+00
   0.14500000E+01           0.65489815E+00
   0.14600000E+01           0.65217361E+00
   0.14700000E+01           0.65045602E+00
   0.14800000E+01           0.64913426E+00
   0.14900000E+01           0.64627083E+00
   0.15000000E+01           0.64585880E+00
   0.15100000E+01           0.64450231E+00
   0.15200000E+01           0.64203704E+00
   0.15300000E+01           0.64194213E+00
   0.15400000E+01           0.63531481E+00
   0.15500000E+01           0.63512963E+00
   0.15600000E+01           0.63386806E+00
   0.15700000E+01           0.62869213E+00
   0.15800000E+01           0.62848380E+00
   0.15900000E+01           0.62557176E+00
   0.16000000E+01           0.62482639E+00
   0.16100000E+01           0.62178241E+00
   0.16200000E+01           0.61792130E+00
   0.16300000E+01           0.61491898E+00
   0.16400000E+01           0.61251389E+00
   0.16500000E+01           0.60847917E+00
   0.16600000E+01           0.60874769E+00
   0.16700000E+01           0.60258565E+00
   0.16800000E+01           0.59851620E+00
   0.16900000E+01           0.59758333E+00
   0.17000000E+01           0.59239815E+00
   0.17100000E+01           0.59294444E+00
   0.17200000E+01           0.58814583E+00
   0.17300000E+01           0.58545370E+00
   0.17400000E+01           0.57949769E+00
   0.17500000E+01           0.57800231E+00
   0.17600000E+01           0.57393981E+00
   0.17700000E+01           0.57016898E+00
   0.17800000E+01           0.56495370E+00
   0.17900000E+01           0.56413194E+00
   0.18000000E+01           0.56089815E+00
   0.18100000E+01           0.55578009E+00
   0.18200000E+01           0.55350926E+00
   0.18300000E+01           0.54837731E+00
   0.18400000E+01           0.54528935E+00
   0.18500000E+01           0.54107176E+00
   0.18600000E+01           0.53937963E+00
   0.18700000E+01           0.53435880E+00
   0.18800000E+01           0.53100694E+00
   0.18900000E+01           0.52775463E+00
   0.19000000E+01           0.52347685E+00
   0.19100000E+01           0.51971528E+00
   0.19200000E+01           0.51598148E+00
   0.19300000E+01           0.51106944E+00
   0.19400000E+01           0.50776389E+00
   0.19500000E+01           0.50453241E+00
   0.19600000E+01           0.50050926E+00
   0.19700000E+01           0.49518287E+00
   0.19800000E+01           0.49267361E+00
   0.19900000E+01           0.48781019E+00
   0.20000000E+01           0.24300000E+00
 #T=    16.0000
  -0.20000000E+01           0.00000000E+00
  -0.19900000E+01           0.00000000E+00
  -0.19800000E+01           0.00000000E+00
  -0.19700000E+01           0.00000000E+00
  -0.19600000E+01           0.00000000E+00
  -0.19500000E+01           0.00000000E+00
  -0.19400000E+01           0.00000000E+00
  -0.19300000E+01           0.00000000E+00
  -0.19200000E+01           0.00000000E+00
  -0.19100000E+01           0.00000000E+00
  -0.19000000E+01           0.00000000E+00
  -0.18900000E+01           0.00000000E+00
  -0.18800000E+01           0.00000000E+00
  -0.18700000E+01           0.00000000E+00
  -0.18600000E+01           0.00000000E+00
  -0.18500000E+01           0.00000000E+00
  -0.18400000E+01           0.00000000E+00
  -0.18300000E+01           0.00000000E+00
  -0.18200000E+01           0.00000000E+00
  -0.18100000E+01           0.00000000E+00
  -0.18000000E+01           0.00000000E+00
  -0.17900000E+01           0.00000000E+00
  -0.17800000E+01           0.00000000E+00
  -0.17700000E+01           0.00000000E+00
  -0.17600000E+01           0.00000000E+00
  -0.17500000E+01           0.00000000E+00
  -0.17400000E+01           0.00000000E+00
  -0.17300000E+01           0.00000000E+00
  -0.17200000E+01           0.00000000E+00
  -0.17100000E+01           0.00000000E+00
  -0.17000000E+01           0.00000000E+00
  -0.16900000E+01           0.00000000E+00
  -0.16800000E+01           0.00000000E+00
  -0.16700000E+01           0.00000000E+00
  -0.16600000E+01           0.00000000E+00
  -0.16500000E+01           0.00000000E+00
  -0.16400000E+01           0.00000000E+00
  -0.16300000E+01           0.00000000E+00
  -0.16200000E+01           0.00000000E+00
  -0.16100000E+01           0.00000000E+00
  -0.16000000E+01           0.00000000E+00
  -0.15900000E+01           0.00000000E+00
  -0.15800000E+01           0.00000000E+00
  -0.15700000E+01           0.00000000E+00
  -0.15600000E+01           0.00000000E+00
  -0.15500000E+01           0.00000000E+00
  -0.15400000E+01           0.00000000E+00
  -0.15300000E+01           0.00000000E+00
  -0.15200000E+01           0.00000000E+00
  -0.15100000E+01           0.00000000E+00
  -0.15000000E+01           0.00000000E+00
  -0.14900000E+01           0.00000000E+00
  -0.14800000E+01           0.00000000E+00
  -0.14700000E+01           0.00000000E+00
  -0.14600000E+01           0.00000000E+00
  -0.14500000E+01           0.00000000E+00
  -0.14400000E+01           0.00000000E+00
  -0.14300000E+01           0.00000000E+00
  -0.14200000E+01           0.00000000E+00
  -0.14100000E+01           0.00000000E+00
  -0.14000000E+01           0.00000000E+00
  -0.13900000E+01           0.00000000E+00
  -0.13800000E+01           0.00000000E+00
  -0.13700000E+01           0.00000000E+00
  -0.13600000E+01           0.00000000E+00
  -0.13500000E+01           0.00000000E+00
  -0.13400000E+01           0.00000000E+00
  -0.13300000E+01           0.00000000E+00
  -0.13200000E+01           0.00000000E+00
  -0.13100000E+01           0.00000000E+00
  -0.13000000E+01           0.00000000E+00
  -0.12900000E+01           0.00000000E+00
  -0.12800000E+01           0.00000000E+00
  -0.12700000E+01           0.00000000E+00
  -0.12600000E+01           0.00000000E+00
  -0.12500000E+01           0.00000000E+00
  -0.12400000E+01           0.00000000E+00
  -0.12300000E+01           0.00000000E+00
  -0.12200000E+01           0.00000000E+00
  -0.12100000E+01           0.00000000E+00
  -0.12000000E+01           0.00000000E+00
  -0.11900000E+01           0.00000000E+00
  -0.11800000E+01           0.00000000E+00
  -0.11700000E+01           0.00000000E+00
  -0.11600000E+01           0.00000000E+00
  -0.11500000E+01           0.00000000E+00
  -0.11400000E+01           0.00000000E+00
  -0.11300000E+01           0.00000000E+00
  -0.11200000E+01           0.00000000E+00
  -0.11100000E+01           0.00000000E+00
  -0.11000000E+01           0.00000000E+00
  -0.10900000E+01           0.00000000E+00
  -0.10800000E+01           0.00000000E+00
  -0.10700000E+01           0.00000000E+00
  -0.10600000E+01           0.00000000E+00
  -0.10500000E+01           0.00000000E+00
  -0.10400000E+01           0.00000000E+00
  -0.10300000E+01           0.00000000E+00
  -0.10200000E+01           0.00000000E+00
  -0.10100000E+01           0.00000000E+00
  -0.10000000E+01           0.00000000E+00
  -0.99000000E+00           0.00000000E+00
  -0.98000000E+00           0.00000000E+00
  -0.97000000E+00           0.00000000E+00
  -0.96000000E+00           0.00000000E+00
  -0.95000000E+00           0.00000000E+00
  -0.94000000E+00           0.00000000E+00
  -0.93000000E+00           0.00000000E+00
  -0.92000000E+00           0.00000000E+00
  -0.91000000E+00           0.00000000E+00
  -0.90000000E+00           0.00000000E+00
  -0.89000000E+00           0.00000000E+00
  -0.88000000E+00           0.00000000E+00
  -0.87000000E+00           0.00000000E+00
  -0.86000000E+00           0.00000000E+00
  -0.85000000E+00           0.00000000E+00
  -0.84000000E+00           0.00000000E+00
  -0.83000000E+00           0.00000000E+00
  -0.82000000E+00           0.00000000E+00
  -0.81000000E+00           0.00000000E+00
  -0.80000000E+00           0.00000000E+00
  -0.79000000E+00           0.00000000E+00
  -0.78000000E+00           0.00000000E+00
  -0.77000000E+00           0.00000000E+00
  -0.76000000E+00           0.00000000E+00
  -0.75000000E+00           0.00000000E+00
  -0.74000000E+00           0.00000000E+00
  -0.73000000E+00           0.00000000E+00
  -0.72000000E+00           0.00000000E+00
  -0.71000000E+00           0.00000000E+00
  -0.70000000E+00           0.00000000E+00
  -0.69000000E+00           0.00000000E+00
  -0.68000000E+00           0.00000000E+00
  -0.67000000E+00           0.00000000E+00
  -0.66000000E+00           0.00000000E+00
  -0.65000000E+00           0.00000000E+00
  -0.64000000E+00           0.00000000E+00
  -0.63000000E+00           0.00000000E+00
  -0.62000000E+00           0.00000000E+00
  -0.61000000E+00           0.00000000E+00
  -0.60000000E+00           0.00000000E+00
  -0.59000000E+00           0.00000000E+00
  -0.58000000E+00           0.00000000E+00
  -0.57000000E+00           0.00000000E+00
  -0.56000000E+00           0.00000000E+00
  -0.55000000E+00           0.00000000E+00
  -0.54000000E+00           0.00000000E+00
  -0.53000000E+00           0.00000000E+00
  -0.52000000E+00           0.00000000E+00
  -0.51000000E+00           0.00000000E+00
  -0.50000000E+00           0.00000000E+00
  -0.49000000E+00           0.00000000E+00
  -0.48000000E+00           0.00000000E+00
  -0.47000000E+00           0.00000000E+00
  -0.46000000E+00           0.00000000E+00
  -0.45000000E+00           0.00000000E+00
  -0.44000000E+00           0.00000000E+00
  -0.43000000E+00           0.00000000E+00
  -0.42000000E+00           0.00000000E+00
  -0.41000000E+00           0.00000000E+00
  -0.40000000E+00           0.00000000E+00
  -0.39000000E+00           0.00000000E+00
  -0.38000000E+00           0.00000000E+00
  -0.37000000E+00           0.00000000E+00
  -0.36000000E+00           0.00000000E+00
  -0.35000000E+00           0.00000000E+00
  -0.34000000E+00           0.00000000E+00
  -0.33000000E+00           0.00000000E+00
  -0.32000000E+00           0.00000000E+00
  -0.31000000E+00           0.00000000E+00
  -0.30000000E+00           0.00000000E+00
  -0.29000000E+00           0.00000000E+00
  -0.28000000E+00           0.00000000E+00
  -0.27000000E+00           0.00000000E+00
  -0.26000000E+00           0.00000000E+00
  -0.25000000E+00           0.00000000E+00
  -0.24000000E+00           0.00000000E+00
  -0.23000000E+00           0.00000000E+00
  -0.22000000E+00           0.00000000E+00
  -0.21000000E+00           0.00000000E+00
  -0.20000000E+00           0.00000000E+00
  -0.19000000E+00           0.00000000E+00
  -0.18000000E+00           0.00000000E+00
  -0.17000000E+00           0.00000000E+00
  -0.16000000E+00           0.00000000E+00
  -0.15000000E+00           0.00000000E+00
  -0.14000000E+00           0.00000000E+00
  -0.13000000E+00           0.00000000E+00
  -0.12000000E+00           0.00000000E+00
  -0.11000000E+00           0.00000000E+00
  -0.10000000E+00           0.00000000E+00
  -0.90000000E-01           0.00000000E+00
  -0.80000000E-01           0.00000000E+00
  -0.70000000E-01           0.00000000E+00
  -0.60000000E-01           0.00000000E+00
  -0.50000000E-01           0.00000000E+00
  -0.40000000E-01           0.00000000E+00
  -0.30000000E-01           0.00000000E+00
  -0.20000000E-01           0.00000000E+00
  -0.10000000E-01           0.00000000E+00
   0.00000000E+00           0.10833333E-02
   0.10000000E-01           0.91504630E-02
   0.20000000E-01           0.17185185E-01
   0.30000000E-01           0.26416667E-01
   0.40000000E-01           0.35483796E-01
   0.50000000E-01           0.43884259E-01
   0.60000000E-01           0.52944444E-01
   0.70000000E-01           0.62009259E-01
   0.80000000E-01           0.70953704E-01
   0.90000000E-01           0.79530093E-01
   0.10000000E+00           0.87488426E-01
   0.11000000E+00           0.97159722E-01
   0.12000000E+00           0.10510185E+00
   0.13000000E+00           0.11443750E+00
   0.14000000E+00           0.12328472E+00
   0.15000000E+00           0.13135417E+00
   0.16000000E+00           0.14008565E+00
   0.17000000E+00           0.14896528E+00
   0.18000000E+00           0.15666204E+00
   0.19000000E+00           0.16668056E+00
   0.20000000E+00           0.17432870E+00
   0.21000000E+00           0.18392130E+00
   0.22000000E+00           0.19196991E+00
   0.23000000E+00           0.19927778E+00
   0.24000000E+00           0.20760185E+00
   0.25000000E+00           0.21542130E+00
   0.26000000E+00           0.22331944E+00
   0.27000000E+00           0.23263426E+00
   0.28000000E+00           0.24090046E+00
   0.29000000E+00           0.24979398E+00
   0.30000000E+00           0.25753704E+00
   0.31000000E+00           0.26594676E+00
   0.32000000E+00           0.27485880E+00
   0.33000000E+00           0.28126620E+00
   0.34000000E+00           0.29071759E+00
   0.35000000E+00           0.29713426E+00
   0.36000000E+00           0.30407176E+00
   0.37000000E+00           0.31459259E+00
   0.38000000E+00           0.31953472E+00
   0.39000000E+00           0.32767593E+00
   0.40000000E+00           0.33661806E+00
   0.41000000E+00           0.34213657E+00
   0.42000000E+00           0.35088657E+00
   0.43000000E+00           0.35792361E+00
   0.44000000E+00           0.36625463E+00
   0.45000000E+00           0.37223611E+00
   0.46000000E+00           0.37982176E+00
   0.47000000E+00           0.38763657E+00
   0.48000000E+00           0.39518981E+00
   0.49000000E+00           0.40163889E+00
   0.50000000E+00           0.40707176E+00
   0.51000000E+00           0.41437731E+00
   0.52000000E+00           0.41959491E+00
   0.53000000E+00           0.42780093E+00
   0.54000000E+00           0.43558565E+00
   0.55000000E+00           0.44169444E+00
   0.56000000E+00           0.44720602E+00
   0.57000000E+00           0.45374306E+00
   0.58000000E+00           0.46134954E+00
   0.59000000E+00           0.46784722E+00
   0.60000000E+00           0.47425694E+00
   0.61000000E+00           0.47826389E+00
   0.62000000E+00           0.48533102E+00
   0.63000000E+00           0.49062963E+00
   0.64000000E+00           0.49532639E+00
   0.65000000E+00           0.50133102E+00
   0.66000000E+00           0.50863426E+00
   0.67000000E+00           0.51313889E+00
   0.68000000E+00           0.51796296E+00
   0.69000000E+00           0.52481019E+00
   0.70000000E+00           0.52890972E+00
   0.71000000E+00           0.53373843E+00
   0.72000000E+00           0.54081481E+00
   0.73000000E+00           0.54481713E+00
   0.74000000E+00           0.55016898E+00
   0.75000000E+00           0.55380324E+00
   0.76000000E+00           0.55938657E+00
   0.77000000E+00           0.56298843E+00
   0.78000000E+00           0.56994907E+00
   0.79000000E+00           0.57214120E+00
   0.80000000E+00           0.57818750E+00
   0.81000000E+00           0.58099074E+00
   0.82000000E+00           0.58379167E+00
   0.83000000E+00           0.58755556E+00
   0.84000000E+00           0.59281250E+00
   0.85000000E+00           0.59812500E+00
   0.86000000E+00           0.60277546E+00
   0.87000000E+00           0.60520139E+00
   0.88000000E+00           0.60777778E+00
   0.89000000E+00           0.61200463E+00
   0.90000000E+00           0.61235185E+00
   0.91000000E+00           0.61921759E+00
   0.92000000E+00           0.62100231E+00
   0.93000000E+00           0.62451157E+00
   0.94000000E+00           0.62989583E+00
   0.95000000E+00           0.63369676E+00
   0.96000000E+00           0.63244907E+00
   0.97000000E+00           0.63646759E+00
   0.98000000E+00           0.63805556E+00
   0.99000000E+00           0.64170833E+00
   0.10000000E+01           0.64308565E+00
   0.10100000E+01           0.64343287E+00
   0.10200000E+01           0.65014352E+00
   0.10300000E+01           0.64848611E+00
   0.10400000E+01           0.65270602E+00
   0.10500000E+01           0.65396759E+00
   0.10600000E+01           0.65597685E+00
   0.10700000E+01           0.65599306E+00
   0.10800000E+01           0.65915046E+00
   0.10900000E+01           0.66297917E+00
   0.11000000E+01           0.66106250E+00
   0.11100000E+01           0.66158333E+00
   0.11200000E+01           0.66612037E+00
   0.11300000E+01           0.66445139E+00
   0.11400000E+01           0.66830787E+00
   0.11500000E+01           0.66935648E+00
   0.11600000E+01           0.66938889E+00
   0.11700000E+01           0.66831944E+00
   0.11800000E+01           0.67160648E+00
   0.11900000E+01           0.67344213E+00
   0.12000000E+01           0.67290741E+00
   0.12100000E+01           0.67278472E+00
   0.12200000E+01           0.67408102E+00
   0.12300000E+01           0.67230324E+00
   0.12400000E+01           0.67513426E+00
   0.12500000E+01           0.67249769E+00
   0.12600000E+01           0.67140278E+00
   0.12700000E+01           0.67401852E+00
   0.12800000E+01           0.67345602E+00
   0.12900000E+01           0.67281481E+00
   0.13000000E+01           0.66943519E+00
   0.13100000E+01           0.67279167E+00
   0.13200000E+01           0.67124537E+00
   0.13300000E+01           0.67093750E+00
   0.13400000E+01           0.66870833E+00
   0.13500000E+01           0.66915741E+00
   0.13600000E+01           0.67107407E+00
   0.13700000E+01           0.66771296E+00
   0.13800000E+01           0.66891204E+00
   0.13900000E+01           0.66370139E+00
   0.14000000E+01           0.66380093E+00
   0.14100000E+01           0.66281019E+00
   0.14200000E+01           0.66241667E+00
   0.14300000E+01           0.65847222E+00
   0.14400000E+01           0.65884491E+00
   0.14500000E+01           0.65689583E+00
   0.14600000E+01           0.65412963E+00
   0.14700000E+01           0.65393287E+00
   0.14800000E+01           0.65383565E+00
   0.14900000E+01           0.64906019E+00
   0.15000000E+01           0.64848843E+00
   0.15100000E+01           0.64508333E+00
   0.15200000E+01           0.64581019E+00
   0.15300000E+01           0.64093287E+00
   0.15400000E+01           0.64140509E+00
   0.15500000E+01           0.63818981E+00
   0.15600000E+01           0.63860185E+00
   0.15700000E+01           0.63221528E+00
   0.15800000E+01           0.62842130E+00
   0.15900000E+01           0.63130093E+00
   0.16000000E+01           0.62751157E+00
   0.16100000E+01           0.62349769E+00
   0.16200000E+01           0.62287269E+00
   0.16300000E+01           0.61928009E+00
   0.16400000E+01           0.61385417E+00
   0.16500000E+01           0.61232639E+00
   0.16600000E+01           0.60815741E+00
   0.16700000E+01           0.60878009E+00
   0.16800000E+01           0.60566435E+00
   0.16900000E+01           0.60243287E+00
   0.17000000E+01           0.59666667E+00
   0.17100000E+01           0.59374537E+00
   0.17200000E+01           0.59167361E+00
   0.17300000E+01           0.59120602E+00
   0.17400000E+01           0.58694444E+00
   0.17500000E+01           0.58299306E+00
   0.17600000E+01           0.57953935E+00
   0.17700000E+01           0.57692361E+00
   0.17800000E+01           0.57325926E+00
   0.17900000E+01           0.56981250E+00
   0.18000000E+01           0.56719907E+00
   0.18100000E+01           0.56166667E+00
   0.18200000E+01           0.56142593E+00
   0.18300000E+01           0.55644213E+00
   0.18400000E+01           0.55184491E+00
   0.18500000E+01           0.54886806E+00
   0.18600000E+01           0.54503704E+00
   0.18700000E+01           0.54372454E+00
   0.18800000E+01           0.53817593E+00
   0.18900000E+01           0.53412037E+00
   0.19000000E+01           0.52900694E+00
   0.19100000E+01           0.52721528E+00
   0.19200000E+01           0.52192130E+00
   0.19300000E+01           0.51997222E+00
   0.19400000E+01           0.51465741E+00
   0.19500000E+01           0.51132407E+00
   0.19600000E+01           0.50818287E+00
   0.19700000E+01           0.50412731E+00
   0.19800000E+01           0.50006713E+00
   0.19900000E+01           0.49713194E+00
   0.20000000E+01           0.24750231E+00
