 #written on 22Nov2024 at 11:56:13 
 #----------------- MONTECARLO -------------------#
 #        M                      P(M)             #
 #------------------------------------------------#
 #T=     0.5000
  -0.20000000E+01           0.00000000E+00
  -0.19900000E+01           0.00000000E+00
  -0.19800000E+01           0.00000000E+00
  -0.19700000E+01           0.00000000E+00
  -0.19600000E+01           0.00000000E+00
  -0.19500000E+01           0.00000000E+00
  -0.19400000E+01           0.00000000E+00
  -0.19300000E+01           0.00000000E+00
  -0.19200000E+01           0.00000000E+00
  -0.19100000E+01           0.00000000E+00
  -0.19000000E+01           0.00000000E+00
  -0.18900000E+01           0.00000000E+00
  -0.18800000E+01           0.00000000E+00
  -0.18700000E+01           0.00000000E+00
  -0.18600000E+01           0.00000000E+00
  -0.18500000E+01           0.00000000E+00
  -0.18400000E+01           0.00000000E+00
  -0.18300000E+01           0.00000000E+00
  -0.18200000E+01           0.00000000E+00
  -0.18100000E+01           0.00000000E+00
  -0.18000000E+01           0.00000000E+00
  -0.17900000E+01           0.00000000E+00
  -0.17800000E+01           0.00000000E+00
  -0.17700000E+01           0.00000000E+00
  -0.17600000E+01           0.00000000E+00
  -0.17500000E+01           0.00000000E+00
  -0.17400000E+01           0.00000000E+00
  -0.17300000E+01           0.00000000E+00
  -0.17200000E+01           0.00000000E+00
  -0.17100000E+01           0.00000000E+00
  -0.17000000E+01           0.00000000E+00
  -0.16900000E+01           0.00000000E+00
  -0.16800000E+01           0.00000000E+00
  -0.16700000E+01           0.00000000E+00
  -0.16600000E+01           0.00000000E+00
  -0.16500000E+01           0.00000000E+00
  -0.16400000E+01           0.00000000E+00
  -0.16300000E+01           0.00000000E+00
  -0.16200000E+01           0.00000000E+00
  -0.16100000E+01           0.00000000E+00
  -0.16000000E+01           0.00000000E+00
  -0.15900000E+01           0.00000000E+00
  -0.15800000E+01           0.00000000E+00
  -0.15700000E+01           0.00000000E+00
  -0.15600000E+01           0.00000000E+00
  -0.15500000E+01           0.00000000E+00
  -0.15400000E+01           0.00000000E+00
  -0.15300000E+01           0.00000000E+00
  -0.15200000E+01           0.00000000E+00
  -0.15100000E+01           0.00000000E+00
  -0.15000000E+01           0.00000000E+00
  -0.14900000E+01           0.00000000E+00
  -0.14800000E+01           0.00000000E+00
  -0.14700000E+01           0.00000000E+00
  -0.14600000E+01           0.00000000E+00
  -0.14500000E+01           0.00000000E+00
  -0.14400000E+01           0.00000000E+00
  -0.14300000E+01           0.00000000E+00
  -0.14200000E+01           0.00000000E+00
  -0.14100000E+01           0.00000000E+00
  -0.14000000E+01           0.00000000E+00
  -0.13900000E+01           0.00000000E+00
  -0.13800000E+01           0.00000000E+00
  -0.13700000E+01           0.00000000E+00
  -0.13600000E+01           0.00000000E+00
  -0.13500000E+01           0.00000000E+00
  -0.13400000E+01           0.00000000E+00
  -0.13300000E+01           0.00000000E+00
  -0.13200000E+01           0.00000000E+00
  -0.13100000E+01           0.00000000E+00
  -0.13000000E+01           0.00000000E+00
  -0.12900000E+01           0.00000000E+00
  -0.12800000E+01           0.00000000E+00
  -0.12700000E+01           0.00000000E+00
  -0.12600000E+01           0.00000000E+00
  -0.12500000E+01           0.00000000E+00
  -0.12400000E+01           0.00000000E+00
  -0.12300000E+01           0.00000000E+00
  -0.12200000E+01           0.00000000E+00
  -0.12100000E+01           0.00000000E+00
  -0.12000000E+01           0.00000000E+00
  -0.11900000E+01           0.00000000E+00
  -0.11800000E+01           0.00000000E+00
  -0.11700000E+01           0.00000000E+00
  -0.11600000E+01           0.00000000E+00
  -0.11500000E+01           0.00000000E+00
  -0.11400000E+01           0.00000000E+00
  -0.11300000E+01           0.00000000E+00
  -0.11200000E+01           0.00000000E+00
  -0.11100000E+01           0.00000000E+00
  -0.11000000E+01           0.00000000E+00
  -0.10900000E+01           0.00000000E+00
  -0.10800000E+01           0.00000000E+00
  -0.10700000E+01           0.00000000E+00
  -0.10600000E+01           0.00000000E+00
  -0.10500000E+01           0.00000000E+00
  -0.10400000E+01           0.00000000E+00
  -0.10300000E+01           0.00000000E+00
  -0.10200000E+01           0.00000000E+00
  -0.10100000E+01           0.00000000E+00
  -0.10000000E+01           0.00000000E+00
  -0.99000000E+00           0.00000000E+00
  -0.98000000E+00           0.00000000E+00
  -0.97000000E+00           0.00000000E+00
  -0.96000000E+00           0.00000000E+00
  -0.95000000E+00           0.00000000E+00
  -0.94000000E+00           0.00000000E+00
  -0.93000000E+00           0.00000000E+00
  -0.92000000E+00           0.00000000E+00
  -0.91000000E+00           0.00000000E+00
  -0.90000000E+00           0.00000000E+00
  -0.89000000E+00           0.00000000E+00
  -0.88000000E+00           0.00000000E+00
  -0.87000000E+00           0.00000000E+00
  -0.86000000E+00           0.00000000E+00
  -0.85000000E+00           0.00000000E+00
  -0.84000000E+00           0.00000000E+00
  -0.83000000E+00           0.00000000E+00
  -0.82000000E+00           0.00000000E+00
  -0.81000000E+00           0.00000000E+00
  -0.80000000E+00           0.00000000E+00
  -0.79000000E+00           0.00000000E+00
  -0.78000000E+00           0.00000000E+00
  -0.77000000E+00           0.00000000E+00
  -0.76000000E+00           0.00000000E+00
  -0.75000000E+00           0.00000000E+00
  -0.74000000E+00           0.00000000E+00
  -0.73000000E+00           0.00000000E+00
  -0.72000000E+00           0.00000000E+00
  -0.71000000E+00           0.00000000E+00
  -0.70000000E+00           0.00000000E+00
  -0.69000000E+00           0.00000000E+00
  -0.68000000E+00           0.00000000E+00
  -0.67000000E+00           0.00000000E+00
  -0.66000000E+00           0.00000000E+00
  -0.65000000E+00           0.00000000E+00
  -0.64000000E+00           0.00000000E+00
  -0.63000000E+00           0.00000000E+00
  -0.62000000E+00           0.00000000E+00
  -0.61000000E+00           0.00000000E+00
  -0.60000000E+00           0.00000000E+00
  -0.59000000E+00           0.00000000E+00
  -0.58000000E+00           0.00000000E+00
  -0.57000000E+00           0.00000000E+00
  -0.56000000E+00           0.00000000E+00
  -0.55000000E+00           0.00000000E+00
  -0.54000000E+00           0.00000000E+00
  -0.53000000E+00           0.00000000E+00
  -0.52000000E+00           0.00000000E+00
  -0.51000000E+00           0.00000000E+00
  -0.50000000E+00           0.00000000E+00
  -0.49000000E+00           0.00000000E+00
  -0.48000000E+00           0.00000000E+00
  -0.47000000E+00           0.00000000E+00
  -0.46000000E+00           0.00000000E+00
  -0.45000000E+00           0.00000000E+00
  -0.44000000E+00           0.00000000E+00
  -0.43000000E+00           0.00000000E+00
  -0.42000000E+00           0.00000000E+00
  -0.41000000E+00           0.00000000E+00
  -0.40000000E+00           0.00000000E+00
  -0.39000000E+00           0.00000000E+00
  -0.38000000E+00           0.00000000E+00
  -0.37000000E+00           0.00000000E+00
  -0.36000000E+00           0.00000000E+00
  -0.35000000E+00           0.00000000E+00
  -0.34000000E+00           0.00000000E+00
  -0.33000000E+00           0.00000000E+00
  -0.32000000E+00           0.00000000E+00
  -0.31000000E+00           0.00000000E+00
  -0.30000000E+00           0.00000000E+00
  -0.29000000E+00           0.00000000E+00
  -0.28000000E+00           0.00000000E+00
  -0.27000000E+00           0.00000000E+00
  -0.26000000E+00           0.00000000E+00
  -0.25000000E+00           0.00000000E+00
  -0.24000000E+00           0.00000000E+00
  -0.23000000E+00           0.00000000E+00
  -0.22000000E+00           0.00000000E+00
  -0.21000000E+00           0.00000000E+00
  -0.20000000E+00           0.00000000E+00
  -0.19000000E+00           0.00000000E+00
  -0.18000000E+00           0.00000000E+00
  -0.17000000E+00           0.00000000E+00
  -0.16000000E+00           0.00000000E+00
  -0.15000000E+00           0.00000000E+00
  -0.14000000E+00           0.00000000E+00
  -0.13000000E+00           0.00000000E+00
  -0.12000000E+00           0.00000000E+00
  -0.11000000E+00           0.00000000E+00
  -0.10000000E+00           0.00000000E+00
  -0.90000000E-01           0.00000000E+00
  -0.80000000E-01           0.00000000E+00
  -0.70000000E-01           0.00000000E+00
  -0.60000000E-01           0.00000000E+00
  -0.50000000E-01           0.00000000E+00
  -0.40000000E-01           0.00000000E+00
  -0.30000000E-01           0.00000000E+00
  -0.20000000E-01           0.00000000E+00
  -0.10000000E-01           0.00000000E+00
   0.00000000E+00           0.00000000E+00
   0.10000000E-01           0.00000000E+00
   0.20000000E-01           0.00000000E+00
   0.30000000E-01           0.00000000E+00
   0.40000000E-01           0.00000000E+00
   0.50000000E-01           0.00000000E+00
   0.60000000E-01           0.00000000E+00
   0.70000000E-01           0.00000000E+00
   0.80000000E-01           0.00000000E+00
   0.90000000E-01           0.00000000E+00
   0.10000000E+00           0.00000000E+00
   0.11000000E+00           0.00000000E+00
   0.12000000E+00           0.00000000E+00
   0.13000000E+00           0.00000000E+00
   0.14000000E+00           0.00000000E+00
   0.15000000E+00           0.00000000E+00
   0.16000000E+00           0.00000000E+00
   0.17000000E+00           0.00000000E+00
   0.18000000E+00           0.00000000E+00
   0.19000000E+00           0.00000000E+00
   0.20000000E+00           0.00000000E+00
   0.21000000E+00           0.00000000E+00
   0.22000000E+00           0.00000000E+00
   0.23000000E+00           0.00000000E+00
   0.24000000E+00           0.00000000E+00
   0.25000000E+00           0.00000000E+00
   0.26000000E+00           0.00000000E+00
   0.27000000E+00           0.00000000E+00
   0.28000000E+00           0.00000000E+00
   0.29000000E+00           0.00000000E+00
   0.30000000E+00           0.00000000E+00
   0.31000000E+00           0.00000000E+00
   0.32000000E+00           0.00000000E+00
   0.33000000E+00           0.00000000E+00
   0.34000000E+00           0.00000000E+00
   0.35000000E+00           0.00000000E+00
   0.36000000E+00           0.00000000E+00
   0.37000000E+00           0.00000000E+00
   0.38000000E+00           0.00000000E+00
   0.39000000E+00           0.00000000E+00
   0.40000000E+00           0.00000000E+00
   0.41000000E+00           0.00000000E+00
   0.42000000E+00           0.00000000E+00
   0.43000000E+00           0.00000000E+00
   0.44000000E+00           0.00000000E+00
   0.45000000E+00           0.00000000E+00
   0.46000000E+00           0.00000000E+00
   0.47000000E+00           0.00000000E+00
   0.48000000E+00           0.30092593E-04
   0.49000000E+00           0.62500000E-04
   0.50000000E+00           0.46296296E-05
   0.51000000E+00           0.30092593E-04
   0.52000000E+00           0.46296296E-05
   0.53000000E+00           0.27777778E-04
   0.54000000E+00           0.10416667E-03
   0.55000000E+00           0.10648148E-03
   0.56000000E+00           0.76388889E-04
   0.57000000E+00           0.17592593E-03
   0.58000000E+00           0.31481481E-03
   0.59000000E+00           0.28935185E-03
   0.60000000E+00           0.13657407E-03
   0.61000000E+00           0.46990741E-03
   0.62000000E+00           0.40509259E-03
   0.63000000E+00           0.48379630E-03
   0.64000000E+00           0.53935185E-03
   0.65000000E+00           0.84722222E-03
   0.66000000E+00           0.11504630E-02
   0.67000000E+00           0.12268519E-02
   0.68000000E+00           0.17430556E-02
   0.69000000E+00           0.20138889E-02
   0.70000000E+00           0.19560185E-02
   0.71000000E+00           0.27569444E-02
   0.72000000E+00           0.31828704E-02
   0.73000000E+00           0.43611111E-02
   0.74000000E+00           0.62893519E-02
   0.75000000E+00           0.70787037E-02
   0.76000000E+00           0.78680556E-02
   0.77000000E+00           0.99398148E-02
   0.78000000E+00           0.10275463E-01
   0.79000000E+00           0.13449074E-01
   0.80000000E+00           0.16407407E-01
   0.81000000E+00           0.17245370E-01
   0.82000000E+00           0.23895833E-01
   0.83000000E+00           0.24759259E-01
   0.84000000E+00           0.26937500E-01
   0.85000000E+00           0.35479167E-01
   0.86000000E+00           0.42351852E-01
   0.87000000E+00           0.53081019E-01
   0.88000000E+00           0.57622685E-01
   0.89000000E+00           0.66773148E-01
   0.90000000E+00           0.78921296E-01
   0.91000000E+00           0.90949074E-01
   0.92000000E+00           0.10153009E+00
   0.93000000E+00           0.11696528E+00
   0.94000000E+00           0.13612269E+00
   0.95000000E+00           0.14785880E+00
   0.96000000E+00           0.17355556E+00
   0.97000000E+00           0.18933565E+00
   0.98000000E+00           0.22040509E+00
   0.99000000E+00           0.24599537E+00
   0.10000000E+01           0.27493519E+00
   0.10100000E+01           0.30512037E+00
   0.10200000E+01           0.33950000E+00
   0.10300000E+01           0.36432639E+00
   0.10400000E+01           0.39593056E+00
   0.10500000E+01           0.43667361E+00
   0.10600000E+01           0.47273843E+00
   0.10700000E+01           0.51215046E+00
   0.10800000E+01           0.56839815E+00
   0.10900000E+01           0.61355324E+00
   0.11000000E+01           0.64741204E+00
   0.11100000E+01           0.71077083E+00
   0.11200000E+01           0.74282639E+00
   0.11300000E+01           0.81047454E+00
   0.11400000E+01           0.86540278E+00
   0.11500000E+01           0.90215278E+00
   0.11600000E+01           0.96958333E+00
   0.11700000E+01           0.10191088E+01
   0.11800000E+01           0.10703611E+01
   0.11900000E+01           0.11223889E+01
   0.12000000E+01           0.11867153E+01
   0.12100000E+01           0.12351829E+01
   0.12200000E+01           0.12754005E+01
   0.12300000E+01           0.13289931E+01
   0.12400000E+01           0.13807986E+01
   0.12500000E+01           0.14105671E+01
   0.12600000E+01           0.14513588E+01
   0.12700000E+01           0.15007153E+01
   0.12800000E+01           0.15454769E+01
   0.12900000E+01           0.15862523E+01
   0.13000000E+01           0.16397801E+01
   0.13100000E+01           0.16628704E+01
   0.13200000E+01           0.16985903E+01
   0.13300000E+01           0.17264282E+01
   0.13400000E+01           0.17659259E+01
   0.13500000E+01           0.17814375E+01
   0.13600000E+01           0.17959167E+01
   0.13700000E+01           0.18383912E+01
   0.13800000E+01           0.18663796E+01
   0.13900000E+01           0.19055069E+01
   0.14000000E+01           0.19098681E+01
   0.14100000E+01           0.19456551E+01
   0.14200000E+01           0.19451736E+01
   0.14300000E+01           0.19675162E+01
   0.14400000E+01           0.19621782E+01
   0.14500000E+01           0.19728171E+01
   0.14600000E+01           0.20067269E+01
   0.14700000E+01           0.20014074E+01
   0.14800000E+01           0.19791366E+01
   0.14900000E+01           0.19524167E+01
   0.15000000E+01           0.19506435E+01
   0.15100000E+01           0.19591921E+01
   0.15200000E+01           0.19201458E+01
   0.15300000E+01           0.18981736E+01
   0.15400000E+01           0.18464005E+01
   0.15500000E+01           0.18299167E+01
   0.15600000E+01           0.17723588E+01
   0.15700000E+01           0.16960463E+01
   0.15800000E+01           0.16794884E+01
   0.15900000E+01           0.15690417E+01
   0.16000000E+01           0.15375463E+01
   0.16100000E+01           0.14420301E+01
   0.16200000E+01           0.13695995E+01
   0.16300000E+01           0.12855926E+01
   0.16400000E+01           0.11788704E+01
   0.16500000E+01           0.10766204E+01
   0.16600000E+01           0.10016227E+01
   0.16700000E+01           0.90858565E+00
   0.16800000E+01           0.84440278E+00
   0.16900000E+01           0.73987731E+00
   0.17000000E+01           0.66462731E+00
   0.17100000E+01           0.59999306E+00
   0.17200000E+01           0.51877546E+00
   0.17300000E+01           0.44390278E+00
   0.17400000E+01           0.37663657E+00
   0.17500000E+01           0.32593056E+00
   0.17600000E+01           0.27181713E+00
   0.17700000E+01           0.22586806E+00
   0.17800000E+01           0.18022685E+00
   0.17900000E+01           0.13990741E+00
   0.18000000E+01           0.11363657E+00
   0.18100000E+01           0.88821759E-01
   0.18200000E+01           0.69986111E-01
   0.18300000E+01           0.47530093E-01
   0.18400000E+01           0.36460648E-01
   0.18500000E+01           0.28453704E-01
   0.18600000E+01           0.16090278E-01
   0.18700000E+01           0.12145833E-01
   0.18800000E+01           0.73194444E-02
   0.18900000E+01           0.52638889E-02
   0.19000000E+01           0.34675926E-02
   0.19100000E+01           0.22175926E-02
   0.19200000E+01           0.78009259E-03
   0.19300000E+01           0.52546296E-03
   0.19400000E+01           0.15972222E-03
   0.19500000E+01           0.71759259E-04
   0.19600000E+01           0.22685185E-03
   0.19700000E+01           0.00000000E+00
   0.19800000E+01           0.18518519E-04
   0.19900000E+01           0.00000000E+00
   0.20000000E+01           0.00000000E+00
 #T=     1.0000
  -0.20000000E+01           0.00000000E+00
  -0.19900000E+01           0.00000000E+00
  -0.19800000E+01           0.00000000E+00
  -0.19700000E+01           0.00000000E+00
  -0.19600000E+01           0.00000000E+00
  -0.19500000E+01           0.00000000E+00
  -0.19400000E+01           0.00000000E+00
  -0.19300000E+01           0.00000000E+00
  -0.19200000E+01           0.00000000E+00
  -0.19100000E+01           0.00000000E+00
  -0.19000000E+01           0.00000000E+00
  -0.18900000E+01           0.00000000E+00
  -0.18800000E+01           0.00000000E+00
  -0.18700000E+01           0.00000000E+00
  -0.18600000E+01           0.00000000E+00
  -0.18500000E+01           0.00000000E+00
  -0.18400000E+01           0.00000000E+00
  -0.18300000E+01           0.00000000E+00
  -0.18200000E+01           0.00000000E+00
  -0.18100000E+01           0.00000000E+00
  -0.18000000E+01           0.00000000E+00
  -0.17900000E+01           0.00000000E+00
  -0.17800000E+01           0.00000000E+00
  -0.17700000E+01           0.00000000E+00
  -0.17600000E+01           0.00000000E+00
  -0.17500000E+01           0.00000000E+00
  -0.17400000E+01           0.00000000E+00
  -0.17300000E+01           0.00000000E+00
  -0.17200000E+01           0.00000000E+00
  -0.17100000E+01           0.00000000E+00
  -0.17000000E+01           0.00000000E+00
  -0.16900000E+01           0.00000000E+00
  -0.16800000E+01           0.00000000E+00
  -0.16700000E+01           0.00000000E+00
  -0.16600000E+01           0.00000000E+00
  -0.16500000E+01           0.00000000E+00
  -0.16400000E+01           0.00000000E+00
  -0.16300000E+01           0.00000000E+00
  -0.16200000E+01           0.00000000E+00
  -0.16100000E+01           0.00000000E+00
  -0.16000000E+01           0.00000000E+00
  -0.15900000E+01           0.00000000E+00
  -0.15800000E+01           0.00000000E+00
  -0.15700000E+01           0.00000000E+00
  -0.15600000E+01           0.00000000E+00
  -0.15500000E+01           0.00000000E+00
  -0.15400000E+01           0.00000000E+00
  -0.15300000E+01           0.00000000E+00
  -0.15200000E+01           0.00000000E+00
  -0.15100000E+01           0.00000000E+00
  -0.15000000E+01           0.00000000E+00
  -0.14900000E+01           0.00000000E+00
  -0.14800000E+01           0.00000000E+00
  -0.14700000E+01           0.00000000E+00
  -0.14600000E+01           0.00000000E+00
  -0.14500000E+01           0.00000000E+00
  -0.14400000E+01           0.00000000E+00
  -0.14300000E+01           0.00000000E+00
  -0.14200000E+01           0.00000000E+00
  -0.14100000E+01           0.00000000E+00
  -0.14000000E+01           0.00000000E+00
  -0.13900000E+01           0.00000000E+00
  -0.13800000E+01           0.00000000E+00
  -0.13700000E+01           0.00000000E+00
  -0.13600000E+01           0.00000000E+00
  -0.13500000E+01           0.00000000E+00
  -0.13400000E+01           0.00000000E+00
  -0.13300000E+01           0.00000000E+00
  -0.13200000E+01           0.00000000E+00
  -0.13100000E+01           0.00000000E+00
  -0.13000000E+01           0.00000000E+00
  -0.12900000E+01           0.00000000E+00
  -0.12800000E+01           0.00000000E+00
  -0.12700000E+01           0.00000000E+00
  -0.12600000E+01           0.00000000E+00
  -0.12500000E+01           0.00000000E+00
  -0.12400000E+01           0.00000000E+00
  -0.12300000E+01           0.00000000E+00
  -0.12200000E+01           0.00000000E+00
  -0.12100000E+01           0.00000000E+00
  -0.12000000E+01           0.00000000E+00
  -0.11900000E+01           0.00000000E+00
  -0.11800000E+01           0.00000000E+00
  -0.11700000E+01           0.00000000E+00
  -0.11600000E+01           0.00000000E+00
  -0.11500000E+01           0.00000000E+00
  -0.11400000E+01           0.00000000E+00
  -0.11300000E+01           0.00000000E+00
  -0.11200000E+01           0.00000000E+00
  -0.11100000E+01           0.00000000E+00
  -0.11000000E+01           0.00000000E+00
  -0.10900000E+01           0.00000000E+00
  -0.10800000E+01           0.00000000E+00
  -0.10700000E+01           0.00000000E+00
  -0.10600000E+01           0.00000000E+00
  -0.10500000E+01           0.00000000E+00
  -0.10400000E+01           0.00000000E+00
  -0.10300000E+01           0.00000000E+00
  -0.10200000E+01           0.00000000E+00
  -0.10100000E+01           0.00000000E+00
  -0.10000000E+01           0.00000000E+00
  -0.99000000E+00           0.00000000E+00
  -0.98000000E+00           0.00000000E+00
  -0.97000000E+00           0.00000000E+00
  -0.96000000E+00           0.00000000E+00
  -0.95000000E+00           0.00000000E+00
  -0.94000000E+00           0.00000000E+00
  -0.93000000E+00           0.00000000E+00
  -0.92000000E+00           0.00000000E+00
  -0.91000000E+00           0.00000000E+00
  -0.90000000E+00           0.00000000E+00
  -0.89000000E+00           0.00000000E+00
  -0.88000000E+00           0.00000000E+00
  -0.87000000E+00           0.00000000E+00
  -0.86000000E+00           0.00000000E+00
  -0.85000000E+00           0.00000000E+00
  -0.84000000E+00           0.00000000E+00
  -0.83000000E+00           0.00000000E+00
  -0.82000000E+00           0.00000000E+00
  -0.81000000E+00           0.00000000E+00
  -0.80000000E+00           0.00000000E+00
  -0.79000000E+00           0.00000000E+00
  -0.78000000E+00           0.00000000E+00
  -0.77000000E+00           0.00000000E+00
  -0.76000000E+00           0.00000000E+00
  -0.75000000E+00           0.00000000E+00
  -0.74000000E+00           0.00000000E+00
  -0.73000000E+00           0.00000000E+00
  -0.72000000E+00           0.00000000E+00
  -0.71000000E+00           0.00000000E+00
  -0.70000000E+00           0.00000000E+00
  -0.69000000E+00           0.00000000E+00
  -0.68000000E+00           0.00000000E+00
  -0.67000000E+00           0.00000000E+00
  -0.66000000E+00           0.00000000E+00
  -0.65000000E+00           0.00000000E+00
  -0.64000000E+00           0.00000000E+00
  -0.63000000E+00           0.00000000E+00
  -0.62000000E+00           0.00000000E+00
  -0.61000000E+00           0.00000000E+00
  -0.60000000E+00           0.00000000E+00
  -0.59000000E+00           0.00000000E+00
  -0.58000000E+00           0.00000000E+00
  -0.57000000E+00           0.00000000E+00
  -0.56000000E+00           0.00000000E+00
  -0.55000000E+00           0.00000000E+00
  -0.54000000E+00           0.00000000E+00
  -0.53000000E+00           0.00000000E+00
  -0.52000000E+00           0.00000000E+00
  -0.51000000E+00           0.00000000E+00
  -0.50000000E+00           0.00000000E+00
  -0.49000000E+00           0.00000000E+00
  -0.48000000E+00           0.00000000E+00
  -0.47000000E+00           0.00000000E+00
  -0.46000000E+00           0.00000000E+00
  -0.45000000E+00           0.00000000E+00
  -0.44000000E+00           0.00000000E+00
  -0.43000000E+00           0.00000000E+00
  -0.42000000E+00           0.00000000E+00
  -0.41000000E+00           0.00000000E+00
  -0.40000000E+00           0.00000000E+00
  -0.39000000E+00           0.00000000E+00
  -0.38000000E+00           0.00000000E+00
  -0.37000000E+00           0.00000000E+00
  -0.36000000E+00           0.00000000E+00
  -0.35000000E+00           0.00000000E+00
  -0.34000000E+00           0.00000000E+00
  -0.33000000E+00           0.00000000E+00
  -0.32000000E+00           0.00000000E+00
  -0.31000000E+00           0.00000000E+00
  -0.30000000E+00           0.00000000E+00
  -0.29000000E+00           0.00000000E+00
  -0.28000000E+00           0.00000000E+00
  -0.27000000E+00           0.00000000E+00
  -0.26000000E+00           0.00000000E+00
  -0.25000000E+00           0.00000000E+00
  -0.24000000E+00           0.00000000E+00
  -0.23000000E+00           0.00000000E+00
  -0.22000000E+00           0.00000000E+00
  -0.21000000E+00           0.00000000E+00
  -0.20000000E+00           0.00000000E+00
  -0.19000000E+00           0.00000000E+00
  -0.18000000E+00           0.00000000E+00
  -0.17000000E+00           0.00000000E+00
  -0.16000000E+00           0.00000000E+00
  -0.15000000E+00           0.00000000E+00
  -0.14000000E+00           0.00000000E+00
  -0.13000000E+00           0.00000000E+00
  -0.12000000E+00           0.00000000E+00
  -0.11000000E+00           0.00000000E+00
  -0.10000000E+00           0.00000000E+00
  -0.90000000E-01           0.00000000E+00
  -0.80000000E-01           0.00000000E+00
  -0.70000000E-01           0.00000000E+00
  -0.60000000E-01           0.00000000E+00
  -0.50000000E-01           0.00000000E+00
  -0.40000000E-01           0.00000000E+00
  -0.30000000E-01           0.00000000E+00
  -0.20000000E-01           0.00000000E+00
  -0.10000000E-01           0.00000000E+00
   0.00000000E+00           0.00000000E+00
   0.10000000E-01           0.00000000E+00
   0.20000000E-01           0.00000000E+00
   0.30000000E-01           0.46296296E-05
   0.40000000E-01           0.00000000E+00
   0.50000000E-01           0.00000000E+00
   0.60000000E-01           0.00000000E+00
   0.70000000E-01           0.00000000E+00
   0.80000000E-01           0.92592593E-05
   0.90000000E-01           0.00000000E+00
   0.10000000E+00           0.00000000E+00
   0.11000000E+00           0.00000000E+00
   0.12000000E+00           0.46296296E-05
   0.13000000E+00           0.20833333E-04
   0.14000000E+00           0.46296296E-04
   0.15000000E+00           0.00000000E+00
   0.16000000E+00           0.16203704E-04
   0.17000000E+00           0.13888889E-04
   0.18000000E+00           0.23148148E-05
   0.19000000E+00           0.13888889E-04
   0.20000000E+00           0.85648148E-04
   0.21000000E+00           0.37037037E-04
   0.22000000E+00           0.69444444E-04
   0.23000000E+00           0.32407407E-04
   0.24000000E+00           0.92592593E-05
   0.25000000E+00           0.90277778E-04
   0.26000000E+00           0.94907407E-04
   0.27000000E+00           0.20833333E-04
   0.28000000E+00           0.13194444E-03
   0.29000000E+00           0.69444444E-04
   0.30000000E+00           0.74074074E-04
   0.31000000E+00           0.17361111E-03
   0.32000000E+00           0.14814815E-03
   0.33000000E+00           0.21064815E-03
   0.34000000E+00           0.24537037E-03
   0.35000000E+00           0.10879630E-03
   0.36000000E+00           0.28009259E-03
   0.37000000E+00           0.32870370E-03
   0.38000000E+00           0.46527778E-03
   0.39000000E+00           0.48842593E-03
   0.40000000E+00           0.69212963E-03
   0.41000000E+00           0.71064815E-03
   0.42000000E+00           0.86574074E-03
   0.43000000E+00           0.11296296E-02
   0.44000000E+00           0.13773148E-02
   0.45000000E+00           0.15902778E-02
   0.46000000E+00           0.17546296E-02
   0.47000000E+00           0.13101852E-02
   0.48000000E+00           0.18842593E-02
   0.49000000E+00           0.25648148E-02
   0.50000000E+00           0.26087963E-02
   0.51000000E+00           0.38518519E-02
   0.52000000E+00           0.40208333E-02
   0.53000000E+00           0.41319444E-02
   0.54000000E+00           0.41365741E-02
   0.55000000E+00           0.57175926E-02
   0.56000000E+00           0.64791667E-02
   0.57000000E+00           0.67037037E-02
   0.58000000E+00           0.91574074E-02
   0.59000000E+00           0.88009259E-02
   0.60000000E+00           0.90300926E-02
   0.61000000E+00           0.11601852E-01
   0.62000000E+00           0.13708333E-01
   0.63000000E+00           0.15956019E-01
   0.64000000E+00           0.16747685E-01
   0.65000000E+00           0.19453704E-01
   0.66000000E+00           0.23173611E-01
   0.67000000E+00           0.23395833E-01
   0.68000000E+00           0.26800926E-01
   0.69000000E+00           0.28157407E-01
   0.70000000E+00           0.32817130E-01
   0.71000000E+00           0.37562500E-01
   0.72000000E+00           0.39884259E-01
   0.73000000E+00           0.45631944E-01
   0.74000000E+00           0.50296296E-01
   0.75000000E+00           0.56275463E-01
   0.76000000E+00           0.61532407E-01
   0.77000000E+00           0.69879630E-01
   0.78000000E+00           0.76094907E-01
   0.79000000E+00           0.84122685E-01
   0.80000000E+00           0.94178241E-01
   0.81000000E+00           0.99418981E-01
   0.82000000E+00           0.10818519E+00
   0.83000000E+00           0.12249537E+00
   0.84000000E+00           0.13215046E+00
   0.85000000E+00           0.14371296E+00
   0.86000000E+00           0.15295370E+00
   0.87000000E+00           0.16693981E+00
   0.88000000E+00           0.18373380E+00
   0.89000000E+00           0.19687037E+00
   0.90000000E+00           0.21376852E+00
   0.91000000E+00           0.23455324E+00
   0.92000000E+00           0.25132407E+00
   0.93000000E+00           0.26506019E+00
   0.94000000E+00           0.29740972E+00
   0.95000000E+00           0.31474306E+00
   0.96000000E+00           0.33277315E+00
   0.97000000E+00           0.35791204E+00
   0.98000000E+00           0.37601852E+00
   0.99000000E+00           0.40638657E+00
   0.10000000E+01           0.42877315E+00
   0.10100000E+01           0.46682639E+00
   0.10200000E+01           0.49137963E+00
   0.10300000E+01           0.52500000E+00
   0.10400000E+01           0.55565509E+00
   0.10500000E+01           0.57880556E+00
   0.10600000E+01           0.61023611E+00
   0.10700000E+01           0.65521296E+00
   0.10800000E+01           0.68303704E+00
   0.10900000E+01           0.71178241E+00
   0.11000000E+01           0.74884722E+00
   0.11100000E+01           0.77337037E+00
   0.11200000E+01           0.82079167E+00
   0.11300000E+01           0.86948380E+00
   0.11400000E+01           0.89593519E+00
   0.11500000E+01           0.94005093E+00
   0.11600000E+01           0.96840046E+00
   0.11700000E+01           0.10091829E+01
   0.11800000E+01           0.10467940E+01
   0.11900000E+01           0.10848634E+01
   0.12000000E+01           0.11284259E+01
   0.12100000E+01           0.11682894E+01
   0.12200000E+01           0.11861343E+01
   0.12300000E+01           0.12109051E+01
   0.12400000E+01           0.12705602E+01
   0.12500000E+01           0.12988681E+01
   0.12600000E+01           0.13388449E+01
   0.12700000E+01           0.13625301E+01
   0.12800000E+01           0.14172315E+01
   0.12900000E+01           0.14117500E+01
   0.13000000E+01           0.14591250E+01
   0.13100000E+01           0.14877431E+01
   0.13200000E+01           0.15055347E+01
   0.13300000E+01           0.15237083E+01
   0.13400000E+01           0.15620833E+01
   0.13500000E+01           0.15664676E+01
   0.13600000E+01           0.15973333E+01
   0.13700000E+01           0.16168750E+01
   0.13800000E+01           0.16250856E+01
   0.13900000E+01           0.16455093E+01
   0.14000000E+01           0.16507894E+01
   0.14100000E+01           0.16680694E+01
   0.14200000E+01           0.16716458E+01
   0.14300000E+01           0.16645648E+01
   0.14400000E+01           0.16650278E+01
   0.14500000E+01           0.16677060E+01
   0.14600000E+01           0.16796250E+01
   0.14700000E+01           0.16529190E+01
   0.14800000E+01           0.16552662E+01
   0.14900000E+01           0.16511204E+01
   0.15000000E+01           0.16110231E+01
   0.15100000E+01           0.16010116E+01
   0.15200000E+01           0.15883356E+01
   0.15300000E+01           0.15681667E+01
   0.15400000E+01           0.15466250E+01
   0.15500000E+01           0.14930995E+01
   0.15600000E+01           0.14669306E+01
   0.15700000E+01           0.14639745E+01
   0.15800000E+01           0.14054144E+01
   0.15900000E+01           0.13800625E+01
   0.16000000E+01           0.13352037E+01
   0.16100000E+01           0.12837616E+01
   0.16200000E+01           0.12574236E+01
   0.16300000E+01           0.12107824E+01
   0.16400000E+01           0.11557338E+01
   0.16500000E+01           0.11030509E+01
   0.16600000E+01           0.10531134E+01
   0.16700000E+01           0.10071759E+01
   0.16800000E+01           0.95271759E+00
   0.16900000E+01           0.89955556E+00
   0.17000000E+01           0.84599769E+00
   0.17100000E+01           0.79644907E+00
   0.17200000E+01           0.73113889E+00
   0.17300000E+01           0.69388657E+00
   0.17400000E+01           0.64689352E+00
   0.17500000E+01           0.58763889E+00
   0.17600000E+01           0.54031019E+00
   0.17700000E+01           0.48440972E+00
   0.17800000E+01           0.43909028E+00
   0.17900000E+01           0.39770370E+00
   0.18000000E+01           0.35705324E+00
   0.18100000E+01           0.31366667E+00
   0.18200000E+01           0.28176620E+00
   0.18300000E+01           0.24337037E+00
   0.18400000E+01           0.20906250E+00
   0.18500000E+01           0.18061806E+00
   0.18600000E+01           0.15045602E+00
   0.18700000E+01           0.13082407E+00
   0.18800000E+01           0.10442361E+00
   0.18900000E+01           0.86504630E-01
   0.19000000E+01           0.68666667E-01
   0.19100000E+01           0.57391204E-01
   0.19200000E+01           0.41490741E-01
   0.19300000E+01           0.30050926E-01
   0.19400000E+01           0.22134259E-01
   0.19500000E+01           0.15215278E-01
   0.19600000E+01           0.10090278E-01
   0.19700000E+01           0.62824074E-02
   0.19800000E+01           0.30393519E-02
   0.19900000E+01           0.12939815E-02
   0.20000000E+01           0.25694444E-03
 #T=     1.5000
  -0.20000000E+01           0.00000000E+00
  -0.19900000E+01           0.00000000E+00
  -0.19800000E+01           0.00000000E+00
  -0.19700000E+01           0.00000000E+00
  -0.19600000E+01           0.00000000E+00
  -0.19500000E+01           0.00000000E+00
  -0.19400000E+01           0.00000000E+00
  -0.19300000E+01           0.00000000E+00
  -0.19200000E+01           0.00000000E+00
  -0.19100000E+01           0.00000000E+00
  -0.19000000E+01           0.00000000E+00
  -0.18900000E+01           0.00000000E+00
  -0.18800000E+01           0.00000000E+00
  -0.18700000E+01           0.00000000E+00
  -0.18600000E+01           0.00000000E+00
  -0.18500000E+01           0.00000000E+00
  -0.18400000E+01           0.00000000E+00
  -0.18300000E+01           0.00000000E+00
  -0.18200000E+01           0.00000000E+00
  -0.18100000E+01           0.00000000E+00
  -0.18000000E+01           0.00000000E+00
  -0.17900000E+01           0.00000000E+00
  -0.17800000E+01           0.00000000E+00
  -0.17700000E+01           0.00000000E+00
  -0.17600000E+01           0.00000000E+00
  -0.17500000E+01           0.00000000E+00
  -0.17400000E+01           0.00000000E+00
  -0.17300000E+01           0.00000000E+00
  -0.17200000E+01           0.00000000E+00
  -0.17100000E+01           0.00000000E+00
  -0.17000000E+01           0.00000000E+00
  -0.16900000E+01           0.00000000E+00
  -0.16800000E+01           0.00000000E+00
  -0.16700000E+01           0.00000000E+00
  -0.16600000E+01           0.00000000E+00
  -0.16500000E+01           0.00000000E+00
  -0.16400000E+01           0.00000000E+00
  -0.16300000E+01           0.00000000E+00
  -0.16200000E+01           0.00000000E+00
  -0.16100000E+01           0.00000000E+00
  -0.16000000E+01           0.00000000E+00
  -0.15900000E+01           0.00000000E+00
  -0.15800000E+01           0.00000000E+00
  -0.15700000E+01           0.00000000E+00
  -0.15600000E+01           0.00000000E+00
  -0.15500000E+01           0.00000000E+00
  -0.15400000E+01           0.00000000E+00
  -0.15300000E+01           0.00000000E+00
  -0.15200000E+01           0.00000000E+00
  -0.15100000E+01           0.00000000E+00
  -0.15000000E+01           0.00000000E+00
  -0.14900000E+01           0.00000000E+00
  -0.14800000E+01           0.00000000E+00
  -0.14700000E+01           0.00000000E+00
  -0.14600000E+01           0.00000000E+00
  -0.14500000E+01           0.00000000E+00
  -0.14400000E+01           0.00000000E+00
  -0.14300000E+01           0.00000000E+00
  -0.14200000E+01           0.00000000E+00
  -0.14100000E+01           0.00000000E+00
  -0.14000000E+01           0.00000000E+00
  -0.13900000E+01           0.00000000E+00
  -0.13800000E+01           0.00000000E+00
  -0.13700000E+01           0.00000000E+00
  -0.13600000E+01           0.00000000E+00
  -0.13500000E+01           0.00000000E+00
  -0.13400000E+01           0.00000000E+00
  -0.13300000E+01           0.00000000E+00
  -0.13200000E+01           0.00000000E+00
  -0.13100000E+01           0.00000000E+00
  -0.13000000E+01           0.00000000E+00
  -0.12900000E+01           0.00000000E+00
  -0.12800000E+01           0.00000000E+00
  -0.12700000E+01           0.00000000E+00
  -0.12600000E+01           0.00000000E+00
  -0.12500000E+01           0.00000000E+00
  -0.12400000E+01           0.00000000E+00
  -0.12300000E+01           0.00000000E+00
  -0.12200000E+01           0.00000000E+00
  -0.12100000E+01           0.00000000E+00
  -0.12000000E+01           0.00000000E+00
  -0.11900000E+01           0.00000000E+00
  -0.11800000E+01           0.00000000E+00
  -0.11700000E+01           0.00000000E+00
  -0.11600000E+01           0.00000000E+00
  -0.11500000E+01           0.00000000E+00
  -0.11400000E+01           0.00000000E+00
  -0.11300000E+01           0.00000000E+00
  -0.11200000E+01           0.00000000E+00
  -0.11100000E+01           0.00000000E+00
  -0.11000000E+01           0.00000000E+00
  -0.10900000E+01           0.00000000E+00
  -0.10800000E+01           0.00000000E+00
  -0.10700000E+01           0.00000000E+00
  -0.10600000E+01           0.00000000E+00
  -0.10500000E+01           0.00000000E+00
  -0.10400000E+01           0.00000000E+00
  -0.10300000E+01           0.00000000E+00
  -0.10200000E+01           0.00000000E+00
  -0.10100000E+01           0.00000000E+00
  -0.10000000E+01           0.00000000E+00
  -0.99000000E+00           0.00000000E+00
  -0.98000000E+00           0.00000000E+00
  -0.97000000E+00           0.00000000E+00
  -0.96000000E+00           0.00000000E+00
  -0.95000000E+00           0.00000000E+00
  -0.94000000E+00           0.00000000E+00
  -0.93000000E+00           0.00000000E+00
  -0.92000000E+00           0.00000000E+00
  -0.91000000E+00           0.00000000E+00
  -0.90000000E+00           0.00000000E+00
  -0.89000000E+00           0.00000000E+00
  -0.88000000E+00           0.00000000E+00
  -0.87000000E+00           0.00000000E+00
  -0.86000000E+00           0.00000000E+00
  -0.85000000E+00           0.00000000E+00
  -0.84000000E+00           0.00000000E+00
  -0.83000000E+00           0.00000000E+00
  -0.82000000E+00           0.00000000E+00
  -0.81000000E+00           0.00000000E+00
  -0.80000000E+00           0.00000000E+00
  -0.79000000E+00           0.00000000E+00
  -0.78000000E+00           0.00000000E+00
  -0.77000000E+00           0.00000000E+00
  -0.76000000E+00           0.00000000E+00
  -0.75000000E+00           0.00000000E+00
  -0.74000000E+00           0.00000000E+00
  -0.73000000E+00           0.00000000E+00
  -0.72000000E+00           0.00000000E+00
  -0.71000000E+00           0.00000000E+00
  -0.70000000E+00           0.00000000E+00
  -0.69000000E+00           0.00000000E+00
  -0.68000000E+00           0.00000000E+00
  -0.67000000E+00           0.00000000E+00
  -0.66000000E+00           0.00000000E+00
  -0.65000000E+00           0.00000000E+00
  -0.64000000E+00           0.00000000E+00
  -0.63000000E+00           0.00000000E+00
  -0.62000000E+00           0.00000000E+00
  -0.61000000E+00           0.00000000E+00
  -0.60000000E+00           0.00000000E+00
  -0.59000000E+00           0.00000000E+00
  -0.58000000E+00           0.00000000E+00
  -0.57000000E+00           0.00000000E+00
  -0.56000000E+00           0.00000000E+00
  -0.55000000E+00           0.00000000E+00
  -0.54000000E+00           0.00000000E+00
  -0.53000000E+00           0.00000000E+00
  -0.52000000E+00           0.00000000E+00
  -0.51000000E+00           0.00000000E+00
  -0.50000000E+00           0.00000000E+00
  -0.49000000E+00           0.00000000E+00
  -0.48000000E+00           0.00000000E+00
  -0.47000000E+00           0.00000000E+00
  -0.46000000E+00           0.00000000E+00
  -0.45000000E+00           0.00000000E+00
  -0.44000000E+00           0.00000000E+00
  -0.43000000E+00           0.00000000E+00
  -0.42000000E+00           0.00000000E+00
  -0.41000000E+00           0.00000000E+00
  -0.40000000E+00           0.00000000E+00
  -0.39000000E+00           0.00000000E+00
  -0.38000000E+00           0.00000000E+00
  -0.37000000E+00           0.00000000E+00
  -0.36000000E+00           0.00000000E+00
  -0.35000000E+00           0.00000000E+00
  -0.34000000E+00           0.00000000E+00
  -0.33000000E+00           0.00000000E+00
  -0.32000000E+00           0.00000000E+00
  -0.31000000E+00           0.00000000E+00
  -0.30000000E+00           0.00000000E+00
  -0.29000000E+00           0.00000000E+00
  -0.28000000E+00           0.00000000E+00
  -0.27000000E+00           0.00000000E+00
  -0.26000000E+00           0.00000000E+00
  -0.25000000E+00           0.00000000E+00
  -0.24000000E+00           0.00000000E+00
  -0.23000000E+00           0.00000000E+00
  -0.22000000E+00           0.00000000E+00
  -0.21000000E+00           0.00000000E+00
  -0.20000000E+00           0.00000000E+00
  -0.19000000E+00           0.00000000E+00
  -0.18000000E+00           0.00000000E+00
  -0.17000000E+00           0.00000000E+00
  -0.16000000E+00           0.00000000E+00
  -0.15000000E+00           0.00000000E+00
  -0.14000000E+00           0.00000000E+00
  -0.13000000E+00           0.00000000E+00
  -0.12000000E+00           0.00000000E+00
  -0.11000000E+00           0.00000000E+00
  -0.10000000E+00           0.00000000E+00
  -0.90000000E-01           0.00000000E+00
  -0.80000000E-01           0.00000000E+00
  -0.70000000E-01           0.00000000E+00
  -0.60000000E-01           0.00000000E+00
  -0.50000000E-01           0.00000000E+00
  -0.40000000E-01           0.00000000E+00
  -0.30000000E-01           0.00000000E+00
  -0.20000000E-01           0.00000000E+00
  -0.10000000E-01           0.00000000E+00
   0.00000000E+00           0.00000000E+00
   0.10000000E-01           0.46296296E-05
   0.20000000E-01           0.30092593E-04
   0.30000000E-01           0.92592593E-05
   0.40000000E-01           0.37037037E-04
   0.50000000E-01           0.37037037E-04
   0.60000000E-01           0.37037037E-04
   0.70000000E-01           0.62500000E-04
   0.80000000E-01           0.10648148E-03
   0.90000000E-01           0.15740741E-03
   0.10000000E+00           0.17361111E-03
   0.11000000E+00           0.15509259E-03
   0.12000000E+00           0.18518519E-03
   0.13000000E+00           0.20833333E-03
   0.14000000E+00           0.30324074E-03
   0.15000000E+00           0.16203704E-03
   0.16000000E+00           0.40972222E-03
   0.17000000E+00           0.32407407E-03
   0.18000000E+00           0.55787037E-03
   0.19000000E+00           0.65740741E-03
   0.20000000E+00           0.65740741E-03
   0.21000000E+00           0.53935185E-03
   0.22000000E+00           0.63657407E-03
   0.23000000E+00           0.65277778E-03
   0.24000000E+00           0.82175926E-03
   0.25000000E+00           0.10300926E-02
   0.26000000E+00           0.11018519E-02
   0.27000000E+00           0.12222222E-02
   0.28000000E+00           0.17037037E-02
   0.29000000E+00           0.16157407E-02
   0.30000000E+00           0.22430556E-02
   0.31000000E+00           0.21712963E-02
   0.32000000E+00           0.24791667E-02
   0.33000000E+00           0.27592593E-02
   0.34000000E+00           0.32175926E-02
   0.35000000E+00           0.36365741E-02
   0.36000000E+00           0.41550926E-02
   0.37000000E+00           0.45092593E-02
   0.38000000E+00           0.51504630E-02
   0.39000000E+00           0.53518519E-02
   0.40000000E+00           0.64189815E-02
   0.41000000E+00           0.73032407E-02
   0.42000000E+00           0.83379630E-02
   0.43000000E+00           0.89699074E-02
   0.44000000E+00           0.93449074E-02
   0.45000000E+00           0.10849537E-01
   0.46000000E+00           0.12155093E-01
   0.47000000E+00           0.12851852E-01
   0.48000000E+00           0.14076389E-01
   0.49000000E+00           0.16682870E-01
   0.50000000E+00           0.16560185E-01
   0.51000000E+00           0.19254630E-01
   0.52000000E+00           0.20331019E-01
   0.53000000E+00           0.24370370E-01
   0.54000000E+00           0.24627315E-01
   0.55000000E+00           0.26724537E-01
   0.56000000E+00           0.29604167E-01
   0.57000000E+00           0.32768519E-01
   0.58000000E+00           0.35909722E-01
   0.59000000E+00           0.38773148E-01
   0.60000000E+00           0.41611111E-01
   0.61000000E+00           0.44407407E-01
   0.62000000E+00           0.47483796E-01
   0.63000000E+00           0.53062500E-01
   0.64000000E+00           0.58766204E-01
   0.65000000E+00           0.62939815E-01
   0.66000000E+00           0.66798611E-01
   0.67000000E+00           0.73287037E-01
   0.68000000E+00           0.79606481E-01
   0.69000000E+00           0.82354167E-01
   0.70000000E+00           0.89805556E-01
   0.71000000E+00           0.98925926E-01
   0.72000000E+00           0.10590972E+00
   0.73000000E+00           0.11346296E+00
   0.74000000E+00           0.11991204E+00
   0.75000000E+00           0.13213194E+00
   0.76000000E+00           0.13925463E+00
   0.77000000E+00           0.14693287E+00
   0.78000000E+00           0.16338426E+00
   0.79000000E+00           0.17154398E+00
   0.80000000E+00           0.18379398E+00
   0.81000000E+00           0.18929167E+00
   0.82000000E+00           0.19943056E+00
   0.83000000E+00           0.21982176E+00
   0.84000000E+00           0.23453009E+00
   0.85000000E+00           0.24796991E+00
   0.86000000E+00           0.26109954E+00
   0.87000000E+00           0.27385417E+00
   0.88000000E+00           0.29556481E+00
   0.89000000E+00           0.30613194E+00
   0.90000000E+00           0.32282407E+00
   0.91000000E+00           0.33827315E+00
   0.92000000E+00           0.36620370E+00
   0.93000000E+00           0.38277315E+00
   0.94000000E+00           0.39933565E+00
   0.95000000E+00           0.41780324E+00
   0.96000000E+00           0.44087037E+00
   0.97000000E+00           0.45686111E+00
   0.98000000E+00           0.48932176E+00
   0.99000000E+00           0.50147917E+00
   0.10000000E+01           0.52643981E+00
   0.10100000E+01           0.55293287E+00
   0.10200000E+01           0.58117824E+00
   0.10300000E+01           0.60403241E+00
   0.10400000E+01           0.61978009E+00
   0.10500000E+01           0.65387037E+00
   0.10600000E+01           0.67245833E+00
   0.10700000E+01           0.70356250E+00
   0.10800000E+01           0.72700926E+00
   0.10900000E+01           0.75923611E+00
   0.11000000E+01           0.78422685E+00
   0.11100000E+01           0.80773148E+00
   0.11200000E+01           0.84968519E+00
   0.11300000E+01           0.87478241E+00
   0.11400000E+01           0.88817824E+00
   0.11500000E+01           0.91099306E+00
   0.11600000E+01           0.94903704E+00
   0.11700000E+01           0.97298611E+00
   0.11800000E+01           0.99884491E+00
   0.11900000E+01           0.10209861E+01
   0.12000000E+01           0.10606111E+01
   0.12100000E+01           0.10809074E+01
   0.12200000E+01           0.11007870E+01
   0.12300000E+01           0.11330394E+01
   0.12400000E+01           0.11539769E+01
   0.12500000E+01           0.11711065E+01
   0.12600000E+01           0.12001968E+01
   0.12700000E+01           0.12065532E+01
   0.12800000E+01           0.12417315E+01
   0.12900000E+01           0.12541435E+01
   0.13000000E+01           0.12721921E+01
   0.13100000E+01           0.13052963E+01
   0.13200000E+01           0.13193958E+01
   0.13300000E+01           0.13355509E+01
   0.13400000E+01           0.13467662E+01
   0.13500000E+01           0.13629838E+01
   0.13600000E+01           0.13852384E+01
   0.13700000E+01           0.13955417E+01
   0.13800000E+01           0.13965023E+01
   0.13900000E+01           0.14123241E+01
   0.14000000E+01           0.14175139E+01
   0.14100000E+01           0.14248935E+01
   0.14200000E+01           0.14338565E+01
   0.14300000E+01           0.14443449E+01
   0.14400000E+01           0.14340023E+01
   0.14500000E+01           0.14359282E+01
   0.14600000E+01           0.14388681E+01
   0.14700000E+01           0.14259097E+01
   0.14800000E+01           0.14158796E+01
   0.14900000E+01           0.14210324E+01
   0.15000000E+01           0.14134884E+01
   0.15100000E+01           0.14076042E+01
   0.15200000E+01           0.13877917E+01
   0.15300000E+01           0.13877222E+01
   0.15400000E+01           0.13513472E+01
   0.15500000E+01           0.13479190E+01
   0.15600000E+01           0.13192037E+01
   0.15700000E+01           0.13015301E+01
   0.15800000E+01           0.12762477E+01
   0.15900000E+01           0.12655046E+01
   0.16000000E+01           0.12417546E+01
   0.16100000E+01           0.12159722E+01
   0.16200000E+01           0.11862685E+01
   0.16300000E+01           0.11498542E+01
   0.16400000E+01           0.11107685E+01
   0.16500000E+01           0.10964537E+01
   0.16600000E+01           0.10519931E+01
   0.16700000E+01           0.10171667E+01
   0.16800000E+01           0.98297222E+00
   0.16900000E+01           0.93806944E+00
   0.17000000E+01           0.91580556E+00
   0.17100000E+01           0.87261343E+00
   0.17200000E+01           0.83873380E+00
   0.17300000E+01           0.79534259E+00
   0.17400000E+01           0.75077315E+00
   0.17500000E+01           0.72135185E+00
   0.17600000E+01           0.67315741E+00
   0.17700000E+01           0.64215972E+00
   0.17800000E+01           0.59265046E+00
   0.17900000E+01           0.55812037E+00
   0.18000000E+01           0.51740046E+00
   0.18100000E+01           0.48181019E+00
   0.18200000E+01           0.43894676E+00
   0.18300000E+01           0.40234954E+00
   0.18400000E+01           0.36681481E+00
   0.18500000E+01           0.33209028E+00
   0.18600000E+01           0.30190509E+00
   0.18700000E+01           0.26872917E+00
   0.18800000E+01           0.23398611E+00
   0.18900000E+01           0.21099537E+00
   0.19000000E+01           0.18106713E+00
   0.19100000E+01           0.15645602E+00
   0.19200000E+01           0.13130556E+00
   0.19300000E+01           0.11048611E+00
   0.19400000E+01           0.93134259E-01
   0.19500000E+01           0.71604167E-01
   0.19600000E+01           0.58951389E-01
   0.19700000E+01           0.44261574E-01
   0.19800000E+01           0.30921296E-01
   0.19900000E+01           0.20469907E-01
   0.20000000E+01           0.69467593E-02
 #T=     2.0000
  -0.20000000E+01           0.00000000E+00
  -0.19900000E+01           0.00000000E+00
  -0.19800000E+01           0.00000000E+00
  -0.19700000E+01           0.00000000E+00
  -0.19600000E+01           0.00000000E+00
  -0.19500000E+01           0.00000000E+00
  -0.19400000E+01           0.00000000E+00
  -0.19300000E+01           0.00000000E+00
  -0.19200000E+01           0.00000000E+00
  -0.19100000E+01           0.00000000E+00
  -0.19000000E+01           0.00000000E+00
  -0.18900000E+01           0.00000000E+00
  -0.18800000E+01           0.00000000E+00
  -0.18700000E+01           0.00000000E+00
  -0.18600000E+01           0.00000000E+00
  -0.18500000E+01           0.00000000E+00
  -0.18400000E+01           0.00000000E+00
  -0.18300000E+01           0.00000000E+00
  -0.18200000E+01           0.00000000E+00
  -0.18100000E+01           0.00000000E+00
  -0.18000000E+01           0.00000000E+00
  -0.17900000E+01           0.00000000E+00
  -0.17800000E+01           0.00000000E+00
  -0.17700000E+01           0.00000000E+00
  -0.17600000E+01           0.00000000E+00
  -0.17500000E+01           0.00000000E+00
  -0.17400000E+01           0.00000000E+00
  -0.17300000E+01           0.00000000E+00
  -0.17200000E+01           0.00000000E+00
  -0.17100000E+01           0.00000000E+00
  -0.17000000E+01           0.00000000E+00
  -0.16900000E+01           0.00000000E+00
  -0.16800000E+01           0.00000000E+00
  -0.16700000E+01           0.00000000E+00
  -0.16600000E+01           0.00000000E+00
  -0.16500000E+01           0.00000000E+00
  -0.16400000E+01           0.00000000E+00
  -0.16300000E+01           0.00000000E+00
  -0.16200000E+01           0.00000000E+00
  -0.16100000E+01           0.00000000E+00
  -0.16000000E+01           0.00000000E+00
  -0.15900000E+01           0.00000000E+00
  -0.15800000E+01           0.00000000E+00
  -0.15700000E+01           0.00000000E+00
  -0.15600000E+01           0.00000000E+00
  -0.15500000E+01           0.00000000E+00
  -0.15400000E+01           0.00000000E+00
  -0.15300000E+01           0.00000000E+00
  -0.15200000E+01           0.00000000E+00
  -0.15100000E+01           0.00000000E+00
  -0.15000000E+01           0.00000000E+00
  -0.14900000E+01           0.00000000E+00
  -0.14800000E+01           0.00000000E+00
  -0.14700000E+01           0.00000000E+00
  -0.14600000E+01           0.00000000E+00
  -0.14500000E+01           0.00000000E+00
  -0.14400000E+01           0.00000000E+00
  -0.14300000E+01           0.00000000E+00
  -0.14200000E+01           0.00000000E+00
  -0.14100000E+01           0.00000000E+00
  -0.14000000E+01           0.00000000E+00
  -0.13900000E+01           0.00000000E+00
  -0.13800000E+01           0.00000000E+00
  -0.13700000E+01           0.00000000E+00
  -0.13600000E+01           0.00000000E+00
  -0.13500000E+01           0.00000000E+00
  -0.13400000E+01           0.00000000E+00
  -0.13300000E+01           0.00000000E+00
  -0.13200000E+01           0.00000000E+00
  -0.13100000E+01           0.00000000E+00
  -0.13000000E+01           0.00000000E+00
  -0.12900000E+01           0.00000000E+00
  -0.12800000E+01           0.00000000E+00
  -0.12700000E+01           0.00000000E+00
  -0.12600000E+01           0.00000000E+00
  -0.12500000E+01           0.00000000E+00
  -0.12400000E+01           0.00000000E+00
  -0.12300000E+01           0.00000000E+00
  -0.12200000E+01           0.00000000E+00
  -0.12100000E+01           0.00000000E+00
  -0.12000000E+01           0.00000000E+00
  -0.11900000E+01           0.00000000E+00
  -0.11800000E+01           0.00000000E+00
  -0.11700000E+01           0.00000000E+00
  -0.11600000E+01           0.00000000E+00
  -0.11500000E+01           0.00000000E+00
  -0.11400000E+01           0.00000000E+00
  -0.11300000E+01           0.00000000E+00
  -0.11200000E+01           0.00000000E+00
  -0.11100000E+01           0.00000000E+00
  -0.11000000E+01           0.00000000E+00
  -0.10900000E+01           0.00000000E+00
  -0.10800000E+01           0.00000000E+00
  -0.10700000E+01           0.00000000E+00
  -0.10600000E+01           0.00000000E+00
  -0.10500000E+01           0.00000000E+00
  -0.10400000E+01           0.00000000E+00
  -0.10300000E+01           0.00000000E+00
  -0.10200000E+01           0.00000000E+00
  -0.10100000E+01           0.00000000E+00
  -0.10000000E+01           0.00000000E+00
  -0.99000000E+00           0.00000000E+00
  -0.98000000E+00           0.00000000E+00
  -0.97000000E+00           0.00000000E+00
  -0.96000000E+00           0.00000000E+00
  -0.95000000E+00           0.00000000E+00
  -0.94000000E+00           0.00000000E+00
  -0.93000000E+00           0.00000000E+00
  -0.92000000E+00           0.00000000E+00
  -0.91000000E+00           0.00000000E+00
  -0.90000000E+00           0.00000000E+00
  -0.89000000E+00           0.00000000E+00
  -0.88000000E+00           0.00000000E+00
  -0.87000000E+00           0.00000000E+00
  -0.86000000E+00           0.00000000E+00
  -0.85000000E+00           0.00000000E+00
  -0.84000000E+00           0.00000000E+00
  -0.83000000E+00           0.00000000E+00
  -0.82000000E+00           0.00000000E+00
  -0.81000000E+00           0.00000000E+00
  -0.80000000E+00           0.00000000E+00
  -0.79000000E+00           0.00000000E+00
  -0.78000000E+00           0.00000000E+00
  -0.77000000E+00           0.00000000E+00
  -0.76000000E+00           0.00000000E+00
  -0.75000000E+00           0.00000000E+00
  -0.74000000E+00           0.00000000E+00
  -0.73000000E+00           0.00000000E+00
  -0.72000000E+00           0.00000000E+00
  -0.71000000E+00           0.00000000E+00
  -0.70000000E+00           0.00000000E+00
  -0.69000000E+00           0.00000000E+00
  -0.68000000E+00           0.00000000E+00
  -0.67000000E+00           0.00000000E+00
  -0.66000000E+00           0.00000000E+00
  -0.65000000E+00           0.00000000E+00
  -0.64000000E+00           0.00000000E+00
  -0.63000000E+00           0.00000000E+00
  -0.62000000E+00           0.00000000E+00
  -0.61000000E+00           0.00000000E+00
  -0.60000000E+00           0.00000000E+00
  -0.59000000E+00           0.00000000E+00
  -0.58000000E+00           0.00000000E+00
  -0.57000000E+00           0.00000000E+00
  -0.56000000E+00           0.00000000E+00
  -0.55000000E+00           0.00000000E+00
  -0.54000000E+00           0.00000000E+00
  -0.53000000E+00           0.00000000E+00
  -0.52000000E+00           0.00000000E+00
  -0.51000000E+00           0.00000000E+00
  -0.50000000E+00           0.00000000E+00
  -0.49000000E+00           0.00000000E+00
  -0.48000000E+00           0.00000000E+00
  -0.47000000E+00           0.00000000E+00
  -0.46000000E+00           0.00000000E+00
  -0.45000000E+00           0.00000000E+00
  -0.44000000E+00           0.00000000E+00
  -0.43000000E+00           0.00000000E+00
  -0.42000000E+00           0.00000000E+00
  -0.41000000E+00           0.00000000E+00
  -0.40000000E+00           0.00000000E+00
  -0.39000000E+00           0.00000000E+00
  -0.38000000E+00           0.00000000E+00
  -0.37000000E+00           0.00000000E+00
  -0.36000000E+00           0.00000000E+00
  -0.35000000E+00           0.00000000E+00
  -0.34000000E+00           0.00000000E+00
  -0.33000000E+00           0.00000000E+00
  -0.32000000E+00           0.00000000E+00
  -0.31000000E+00           0.00000000E+00
  -0.30000000E+00           0.00000000E+00
  -0.29000000E+00           0.00000000E+00
  -0.28000000E+00           0.00000000E+00
  -0.27000000E+00           0.00000000E+00
  -0.26000000E+00           0.00000000E+00
  -0.25000000E+00           0.00000000E+00
  -0.24000000E+00           0.00000000E+00
  -0.23000000E+00           0.00000000E+00
  -0.22000000E+00           0.00000000E+00
  -0.21000000E+00           0.00000000E+00
  -0.20000000E+00           0.00000000E+00
  -0.19000000E+00           0.00000000E+00
  -0.18000000E+00           0.00000000E+00
  -0.17000000E+00           0.00000000E+00
  -0.16000000E+00           0.00000000E+00
  -0.15000000E+00           0.00000000E+00
  -0.14000000E+00           0.00000000E+00
  -0.13000000E+00           0.00000000E+00
  -0.12000000E+00           0.00000000E+00
  -0.11000000E+00           0.00000000E+00
  -0.10000000E+00           0.00000000E+00
  -0.90000000E-01           0.00000000E+00
  -0.80000000E-01           0.00000000E+00
  -0.70000000E-01           0.00000000E+00
  -0.60000000E-01           0.00000000E+00
  -0.50000000E-01           0.00000000E+00
  -0.40000000E-01           0.00000000E+00
  -0.30000000E-01           0.00000000E+00
  -0.20000000E-01           0.00000000E+00
  -0.10000000E-01           0.00000000E+00
   0.00000000E+00           0.69444444E-05
   0.10000000E-01           0.94907407E-04
   0.20000000E-01           0.15509259E-03
   0.30000000E-01           0.28703704E-03
   0.40000000E-01           0.31018519E-03
   0.50000000E-01           0.47222222E-03
   0.60000000E-01           0.57638889E-03
   0.70000000E-01           0.61111111E-03
   0.80000000E-01           0.70370370E-03
   0.90000000E-01           0.72685185E-03
   0.10000000E+00           0.11226852E-02
   0.11000000E+00           0.11273148E-02
   0.12000000E+00           0.11574074E-02
   0.13000000E+00           0.15254630E-02
   0.14000000E+00           0.18402778E-02
   0.15000000E+00           0.19722222E-02
   0.16000000E+00           0.23402778E-02
   0.17000000E+00           0.22407407E-02
   0.18000000E+00           0.25138889E-02
   0.19000000E+00           0.29166667E-02
   0.20000000E+00           0.29189815E-02
   0.21000000E+00           0.36134259E-02
   0.22000000E+00           0.35000000E-02
   0.23000000E+00           0.46504630E-02
   0.24000000E+00           0.45162037E-02
   0.25000000E+00           0.50717593E-02
   0.26000000E+00           0.53657407E-02
   0.27000000E+00           0.64629630E-02
   0.28000000E+00           0.73171296E-02
   0.29000000E+00           0.76296296E-02
   0.30000000E+00           0.77430556E-02
   0.31000000E+00           0.86157407E-02
   0.32000000E+00           0.96342593E-02
   0.33000000E+00           0.10543981E-01
   0.34000000E+00           0.12023148E-01
   0.35000000E+00           0.13141204E-01
   0.36000000E+00           0.14178241E-01
   0.37000000E+00           0.14777778E-01
   0.38000000E+00           0.15974537E-01
   0.39000000E+00           0.17724537E-01
   0.40000000E+00           0.19405093E-01
   0.41000000E+00           0.21004630E-01
   0.42000000E+00           0.22754630E-01
   0.43000000E+00           0.25166667E-01
   0.44000000E+00           0.26335648E-01
   0.45000000E+00           0.28134259E-01
   0.46000000E+00           0.31662037E-01
   0.47000000E+00           0.33481481E-01
   0.48000000E+00           0.36210648E-01
   0.49000000E+00           0.38034722E-01
   0.50000000E+00           0.41011574E-01
   0.51000000E+00           0.43893519E-01
   0.52000000E+00           0.47805556E-01
   0.53000000E+00           0.50916667E-01
   0.54000000E+00           0.55113426E-01
   0.55000000E+00           0.57307870E-01
   0.56000000E+00           0.61821759E-01
   0.57000000E+00           0.65750000E-01
   0.58000000E+00           0.72243056E-01
   0.59000000E+00           0.76152778E-01
   0.60000000E+00           0.79319444E-01
   0.61000000E+00           0.87358796E-01
   0.62000000E+00           0.93006944E-01
   0.63000000E+00           0.96444444E-01
   0.64000000E+00           0.10696759E+00
   0.65000000E+00           0.11101852E+00
   0.66000000E+00           0.11909259E+00
   0.67000000E+00           0.12366204E+00
   0.68000000E+00           0.13062500E+00
   0.69000000E+00           0.13764583E+00
   0.70000000E+00           0.14696991E+00
   0.71000000E+00           0.15654861E+00
   0.72000000E+00           0.16184954E+00
   0.73000000E+00           0.17220139E+00
   0.74000000E+00           0.18448843E+00
   0.75000000E+00           0.19264120E+00
   0.76000000E+00           0.20055787E+00
   0.77000000E+00           0.21874306E+00
   0.78000000E+00           0.22521759E+00
   0.79000000E+00           0.23831481E+00
   0.80000000E+00           0.24947454E+00
   0.81000000E+00           0.25841898E+00
   0.82000000E+00           0.27184491E+00
   0.83000000E+00           0.28961574E+00
   0.84000000E+00           0.30351852E+00
   0.85000000E+00           0.31221991E+00
   0.86000000E+00           0.32887269E+00
   0.87000000E+00           0.34515509E+00
   0.88000000E+00           0.35558796E+00
   0.89000000E+00           0.37627083E+00
   0.90000000E+00           0.39095602E+00
   0.91000000E+00           0.40534954E+00
   0.92000000E+00           0.42408565E+00
   0.93000000E+00           0.44093056E+00
   0.94000000E+00           0.46560880E+00
   0.95000000E+00           0.47536574E+00
   0.96000000E+00           0.49327083E+00
   0.97000000E+00           0.51616898E+00
   0.98000000E+00           0.53229630E+00
   0.99000000E+00           0.54809491E+00
   0.10000000E+01           0.57128241E+00
   0.10100000E+01           0.59097685E+00
   0.10200000E+01           0.62002315E+00
   0.10300000E+01           0.63565278E+00
   0.10400000E+01           0.65081250E+00
   0.10500000E+01           0.66506019E+00
   0.10600000E+01           0.69994676E+00
   0.10700000E+01           0.71494907E+00
   0.10800000E+01           0.74252546E+00
   0.10900000E+01           0.75401157E+00
   0.11000000E+01           0.77086111E+00
   0.11100000E+01           0.80355787E+00
   0.11200000E+01           0.82021065E+00
   0.11300000E+01           0.84930556E+00
   0.11400000E+01           0.85884028E+00
   0.11500000E+01           0.87876157E+00
   0.11600000E+01           0.91009028E+00
   0.11700000E+01           0.92506481E+00
   0.11800000E+01           0.94158796E+00
   0.11900000E+01           0.97181481E+00
   0.12000000E+01           0.97902546E+00
   0.12100000E+01           0.10111389E+01
   0.12200000E+01           0.10265162E+01
   0.12300000E+01           0.10406134E+01
   0.12400000E+01           0.10596690E+01
   0.12500000E+01           0.10845694E+01
   0.12600000E+01           0.10948681E+01
   0.12700000E+01           0.11056088E+01
   0.12800000E+01           0.11372523E+01
   0.12900000E+01           0.11463472E+01
   0.13000000E+01           0.11677037E+01
   0.13100000E+01           0.11758704E+01
   0.13200000E+01           0.12009491E+01
   0.13300000E+01           0.11935394E+01
   0.13400000E+01           0.12041296E+01
   0.13500000E+01           0.12373565E+01
   0.13600000E+01           0.12398727E+01
   0.13700000E+01           0.12471366E+01
   0.13800000E+01           0.12570139E+01
   0.13900000E+01           0.12686944E+01
   0.14000000E+01           0.12797569E+01
   0.14100000E+01           0.12788333E+01
   0.14200000E+01           0.12802824E+01
   0.14300000E+01           0.12882824E+01
   0.14400000E+01           0.12784861E+01
   0.14500000E+01           0.12931898E+01
   0.14600000E+01           0.12906736E+01
   0.14700000E+01           0.12868449E+01
   0.14800000E+01           0.12846481E+01
   0.14900000E+01           0.12712986E+01
   0.15000000E+01           0.12756088E+01
   0.15100000E+01           0.12725509E+01
   0.15200000E+01           0.12629954E+01
   0.15300000E+01           0.12484074E+01
   0.15400000E+01           0.12396620E+01
   0.15500000E+01           0.12426528E+01
   0.15600000E+01           0.12161944E+01
   0.15700000E+01           0.12039213E+01
   0.15800000E+01           0.11941782E+01
   0.15900000E+01           0.11830810E+01
   0.16000000E+01           0.11577894E+01
   0.16100000E+01           0.11290463E+01
   0.16200000E+01           0.11090764E+01
   0.16300000E+01           0.10859884E+01
   0.16400000E+01           0.10813588E+01
   0.16500000E+01           0.10431505E+01
   0.16600000E+01           0.10271782E+01
   0.16700000E+01           0.10092454E+01
   0.16800000E+01           0.97598611E+00
   0.16900000E+01           0.94867593E+00
   0.17000000E+01           0.92422917E+00
   0.17100000E+01           0.88694676E+00
   0.17200000E+01           0.86758333E+00
   0.17300000E+01           0.83235185E+00
   0.17400000E+01           0.80291667E+00
   0.17500000E+01           0.76653935E+00
   0.17600000E+01           0.73925463E+00
   0.17700000E+01           0.70821296E+00
   0.17800000E+01           0.66714352E+00
   0.17900000E+01           0.64280787E+00
   0.18000000E+01           0.60859028E+00
   0.18100000E+01           0.57446528E+00
   0.18200000E+01           0.53819444E+00
   0.18300000E+01           0.50320139E+00
   0.18400000E+01           0.48064120E+00
   0.18500000E+01           0.44381713E+00
   0.18600000E+01           0.41060880E+00
   0.18700000E+01           0.37868056E+00
   0.18800000E+01           0.34553009E+00
   0.18900000E+01           0.31579861E+00
   0.19000000E+01           0.29168287E+00
   0.19100000E+01           0.26453935E+00
   0.19200000E+01           0.23203472E+00
   0.19300000E+01           0.20723380E+00
   0.19400000E+01           0.17875000E+00
   0.19500000E+01           0.15865509E+00
   0.19600000E+01           0.12803704E+00
   0.19700000E+01           0.10640278E+00
   0.19800000E+01           0.88513889E-01
   0.19900000E+01           0.68407407E-01
   0.20000000E+01           0.27884259E-01
 #T=     2.5000
  -0.20000000E+01           0.00000000E+00
  -0.19900000E+01           0.00000000E+00
  -0.19800000E+01           0.00000000E+00
  -0.19700000E+01           0.00000000E+00
  -0.19600000E+01           0.00000000E+00
  -0.19500000E+01           0.00000000E+00
  -0.19400000E+01           0.00000000E+00
  -0.19300000E+01           0.00000000E+00
  -0.19200000E+01           0.00000000E+00
  -0.19100000E+01           0.00000000E+00
  -0.19000000E+01           0.00000000E+00
  -0.18900000E+01           0.00000000E+00
  -0.18800000E+01           0.00000000E+00
  -0.18700000E+01           0.00000000E+00
  -0.18600000E+01           0.00000000E+00
  -0.18500000E+01           0.00000000E+00
  -0.18400000E+01           0.00000000E+00
  -0.18300000E+01           0.00000000E+00
  -0.18200000E+01           0.00000000E+00
  -0.18100000E+01           0.00000000E+00
  -0.18000000E+01           0.00000000E+00
  -0.17900000E+01           0.00000000E+00
  -0.17800000E+01           0.00000000E+00
  -0.17700000E+01           0.00000000E+00
  -0.17600000E+01           0.00000000E+00
  -0.17500000E+01           0.00000000E+00
  -0.17400000E+01           0.00000000E+00
  -0.17300000E+01           0.00000000E+00
  -0.17200000E+01           0.00000000E+00
  -0.17100000E+01           0.00000000E+00
  -0.17000000E+01           0.00000000E+00
  -0.16900000E+01           0.00000000E+00
  -0.16800000E+01           0.00000000E+00
  -0.16700000E+01           0.00000000E+00
  -0.16600000E+01           0.00000000E+00
  -0.16500000E+01           0.00000000E+00
  -0.16400000E+01           0.00000000E+00
  -0.16300000E+01           0.00000000E+00
  -0.16200000E+01           0.00000000E+00
  -0.16100000E+01           0.00000000E+00
  -0.16000000E+01           0.00000000E+00
  -0.15900000E+01           0.00000000E+00
  -0.15800000E+01           0.00000000E+00
  -0.15700000E+01           0.00000000E+00
  -0.15600000E+01           0.00000000E+00
  -0.15500000E+01           0.00000000E+00
  -0.15400000E+01           0.00000000E+00
  -0.15300000E+01           0.00000000E+00
  -0.15200000E+01           0.00000000E+00
  -0.15100000E+01           0.00000000E+00
  -0.15000000E+01           0.00000000E+00
  -0.14900000E+01           0.00000000E+00
  -0.14800000E+01           0.00000000E+00
  -0.14700000E+01           0.00000000E+00
  -0.14600000E+01           0.00000000E+00
  -0.14500000E+01           0.00000000E+00
  -0.14400000E+01           0.00000000E+00
  -0.14300000E+01           0.00000000E+00
  -0.14200000E+01           0.00000000E+00
  -0.14100000E+01           0.00000000E+00
  -0.14000000E+01           0.00000000E+00
  -0.13900000E+01           0.00000000E+00
  -0.13800000E+01           0.00000000E+00
  -0.13700000E+01           0.00000000E+00
  -0.13600000E+01           0.00000000E+00
  -0.13500000E+01           0.00000000E+00
  -0.13400000E+01           0.00000000E+00
  -0.13300000E+01           0.00000000E+00
  -0.13200000E+01           0.00000000E+00
  -0.13100000E+01           0.00000000E+00
  -0.13000000E+01           0.00000000E+00
  -0.12900000E+01           0.00000000E+00
  -0.12800000E+01           0.00000000E+00
  -0.12700000E+01           0.00000000E+00
  -0.12600000E+01           0.00000000E+00
  -0.12500000E+01           0.00000000E+00
  -0.12400000E+01           0.00000000E+00
  -0.12300000E+01           0.00000000E+00
  -0.12200000E+01           0.00000000E+00
  -0.12100000E+01           0.00000000E+00
  -0.12000000E+01           0.00000000E+00
  -0.11900000E+01           0.00000000E+00
  -0.11800000E+01           0.00000000E+00
  -0.11700000E+01           0.00000000E+00
  -0.11600000E+01           0.00000000E+00
  -0.11500000E+01           0.00000000E+00
  -0.11400000E+01           0.00000000E+00
  -0.11300000E+01           0.00000000E+00
  -0.11200000E+01           0.00000000E+00
  -0.11100000E+01           0.00000000E+00
  -0.11000000E+01           0.00000000E+00
  -0.10900000E+01           0.00000000E+00
  -0.10800000E+01           0.00000000E+00
  -0.10700000E+01           0.00000000E+00
  -0.10600000E+01           0.00000000E+00
  -0.10500000E+01           0.00000000E+00
  -0.10400000E+01           0.00000000E+00
  -0.10300000E+01           0.00000000E+00
  -0.10200000E+01           0.00000000E+00
  -0.10100000E+01           0.00000000E+00
  -0.10000000E+01           0.00000000E+00
  -0.99000000E+00           0.00000000E+00
  -0.98000000E+00           0.00000000E+00
  -0.97000000E+00           0.00000000E+00
  -0.96000000E+00           0.00000000E+00
  -0.95000000E+00           0.00000000E+00
  -0.94000000E+00           0.00000000E+00
  -0.93000000E+00           0.00000000E+00
  -0.92000000E+00           0.00000000E+00
  -0.91000000E+00           0.00000000E+00
  -0.90000000E+00           0.00000000E+00
  -0.89000000E+00           0.00000000E+00
  -0.88000000E+00           0.00000000E+00
  -0.87000000E+00           0.00000000E+00
  -0.86000000E+00           0.00000000E+00
  -0.85000000E+00           0.00000000E+00
  -0.84000000E+00           0.00000000E+00
  -0.83000000E+00           0.00000000E+00
  -0.82000000E+00           0.00000000E+00
  -0.81000000E+00           0.00000000E+00
  -0.80000000E+00           0.00000000E+00
  -0.79000000E+00           0.00000000E+00
  -0.78000000E+00           0.00000000E+00
  -0.77000000E+00           0.00000000E+00
  -0.76000000E+00           0.00000000E+00
  -0.75000000E+00           0.00000000E+00
  -0.74000000E+00           0.00000000E+00
  -0.73000000E+00           0.00000000E+00
  -0.72000000E+00           0.00000000E+00
  -0.71000000E+00           0.00000000E+00
  -0.70000000E+00           0.00000000E+00
  -0.69000000E+00           0.00000000E+00
  -0.68000000E+00           0.00000000E+00
  -0.67000000E+00           0.00000000E+00
  -0.66000000E+00           0.00000000E+00
  -0.65000000E+00           0.00000000E+00
  -0.64000000E+00           0.00000000E+00
  -0.63000000E+00           0.00000000E+00
  -0.62000000E+00           0.00000000E+00
  -0.61000000E+00           0.00000000E+00
  -0.60000000E+00           0.00000000E+00
  -0.59000000E+00           0.00000000E+00
  -0.58000000E+00           0.00000000E+00
  -0.57000000E+00           0.00000000E+00
  -0.56000000E+00           0.00000000E+00
  -0.55000000E+00           0.00000000E+00
  -0.54000000E+00           0.00000000E+00
  -0.53000000E+00           0.00000000E+00
  -0.52000000E+00           0.00000000E+00
  -0.51000000E+00           0.00000000E+00
  -0.50000000E+00           0.00000000E+00
  -0.49000000E+00           0.00000000E+00
  -0.48000000E+00           0.00000000E+00
  -0.47000000E+00           0.00000000E+00
  -0.46000000E+00           0.00000000E+00
  -0.45000000E+00           0.00000000E+00
  -0.44000000E+00           0.00000000E+00
  -0.43000000E+00           0.00000000E+00
  -0.42000000E+00           0.00000000E+00
  -0.41000000E+00           0.00000000E+00
  -0.40000000E+00           0.00000000E+00
  -0.39000000E+00           0.00000000E+00
  -0.38000000E+00           0.00000000E+00
  -0.37000000E+00           0.00000000E+00
  -0.36000000E+00           0.00000000E+00
  -0.35000000E+00           0.00000000E+00
  -0.34000000E+00           0.00000000E+00
  -0.33000000E+00           0.00000000E+00
  -0.32000000E+00           0.00000000E+00
  -0.31000000E+00           0.00000000E+00
  -0.30000000E+00           0.00000000E+00
  -0.29000000E+00           0.00000000E+00
  -0.28000000E+00           0.00000000E+00
  -0.27000000E+00           0.00000000E+00
  -0.26000000E+00           0.00000000E+00
  -0.25000000E+00           0.00000000E+00
  -0.24000000E+00           0.00000000E+00
  -0.23000000E+00           0.00000000E+00
  -0.22000000E+00           0.00000000E+00
  -0.21000000E+00           0.00000000E+00
  -0.20000000E+00           0.00000000E+00
  -0.19000000E+00           0.00000000E+00
  -0.18000000E+00           0.00000000E+00
  -0.17000000E+00           0.00000000E+00
  -0.16000000E+00           0.00000000E+00
  -0.15000000E+00           0.00000000E+00
  -0.14000000E+00           0.00000000E+00
  -0.13000000E+00           0.00000000E+00
  -0.12000000E+00           0.00000000E+00
  -0.11000000E+00           0.00000000E+00
  -0.10000000E+00           0.00000000E+00
  -0.90000000E-01           0.00000000E+00
  -0.80000000E-01           0.00000000E+00
  -0.70000000E-01           0.00000000E+00
  -0.60000000E-01           0.00000000E+00
  -0.50000000E-01           0.00000000E+00
  -0.40000000E-01           0.00000000E+00
  -0.30000000E-01           0.00000000E+00
  -0.20000000E-01           0.00000000E+00
  -0.10000000E-01           0.00000000E+00
   0.00000000E+00           0.53240741E-04
   0.10000000E-01           0.31018519E-03
   0.20000000E-01           0.73379630E-03
   0.30000000E-01           0.10347222E-02
   0.40000000E-01           0.15138889E-02
   0.50000000E-01           0.17569444E-02
   0.60000000E-01           0.20208333E-02
   0.70000000E-01           0.25000000E-02
   0.80000000E-01           0.28796296E-02
   0.90000000E-01           0.33587963E-02
   0.10000000E+00           0.37824074E-02
   0.11000000E+00           0.40254630E-02
   0.12000000E+00           0.43750000E-02
   0.13000000E+00           0.50740741E-02
   0.14000000E+00           0.54513889E-02
   0.15000000E+00           0.61921296E-02
   0.16000000E+00           0.68148148E-02
   0.17000000E+00           0.71041667E-02
   0.18000000E+00           0.74768519E-02
   0.19000000E+00           0.84212963E-02
   0.20000000E+00           0.95000000E-02
   0.21000000E+00           0.10615741E-01
   0.22000000E+00           0.10854167E-01
   0.23000000E+00           0.11738426E-01
   0.24000000E+00           0.12962963E-01
   0.25000000E+00           0.14231481E-01
   0.26000000E+00           0.15277778E-01
   0.27000000E+00           0.16409722E-01
   0.28000000E+00           0.17706019E-01
   0.29000000E+00           0.19314815E-01
   0.30000000E+00           0.21092593E-01
   0.31000000E+00           0.21157407E-01
   0.32000000E+00           0.23155093E-01
   0.33000000E+00           0.25657407E-01
   0.34000000E+00           0.26731481E-01
   0.35000000E+00           0.29134259E-01
   0.36000000E+00           0.31263889E-01
   0.37000000E+00           0.31807870E-01
   0.38000000E+00           0.36300926E-01
   0.39000000E+00           0.38016204E-01
   0.40000000E+00           0.40342593E-01
   0.41000000E+00           0.43930556E-01
   0.42000000E+00           0.46136574E-01
   0.43000000E+00           0.48872685E-01
   0.44000000E+00           0.50858796E-01
   0.45000000E+00           0.55375000E-01
   0.46000000E+00           0.59675926E-01
   0.47000000E+00           0.63129630E-01
   0.48000000E+00           0.66777778E-01
   0.49000000E+00           0.69944444E-01
[...]
   0.13800000E+01           0.68447454E+00
   0.13900000E+01           0.68746065E+00
   0.14000000E+01           0.68529167E+00
   0.14100000E+01           0.68698843E+00
   0.14200000E+01           0.68874769E+00
   0.14300000E+01           0.68859722E+00
   0.14400000E+01           0.68956019E+00
   0.14500000E+01           0.68993287E+00
   0.14600000E+01           0.68916667E+00
   0.14700000E+01           0.69071065E+00
   0.14800000E+01           0.69109722E+00
   0.14900000E+01           0.69227083E+00
   0.15000000E+01           0.69309491E+00
   0.15100000E+01           0.69238889E+00
   0.15200000E+01           0.69213657E+00
   0.15300000E+01           0.69194676E+00
   0.15400000E+01           0.69522917E+00
   0.15500000E+01           0.69261806E+00
   0.15600000E+01           0.69268287E+00
   0.15700000E+01           0.69149769E+00
   0.15800000E+01           0.69627083E+00
   0.15900000E+01           0.69344907E+00
   0.16000000E+01           0.69338889E+00
   0.16100000E+01           0.69159722E+00
   0.16200000E+01           0.69096991E+00
   0.16300000E+01           0.69105093E+00
   0.16400000E+01           0.68903935E+00
   0.16500000E+01           0.69157176E+00
   0.16600000E+01           0.69104630E+00
   0.16700000E+01           0.68785880E+00
   0.16800000E+01           0.68950231E+00
   0.16900000E+01           0.68827546E+00
   0.17000000E+01           0.68621065E+00
   0.17100000E+01           0.68626157E+00
   0.17200000E+01           0.68843056E+00
   0.17300000E+01           0.68583565E+00
   0.17400000E+01           0.68094444E+00
   0.17500000E+01           0.68249306E+00
   0.17600000E+01           0.68409722E+00
   0.17700000E+01           0.67945139E+00
   0.17800000E+01           0.67935880E+00
   0.17900000E+01           0.67775694E+00
   0.18000000E+01           0.67962500E+00
   0.18100000E+01           0.67526620E+00
   0.18200000E+01           0.67473843E+00
   0.18300000E+01           0.67252315E+00
   0.18400000E+01           0.67306250E+00
   0.18500000E+01           0.66900231E+00
   0.18600000E+01           0.66751157E+00
   0.18700000E+01           0.66671065E+00
   0.18800000E+01           0.66434259E+00
   0.18900000E+01           0.66407870E+00
   0.19000000E+01           0.66175694E+00
   0.19100000E+01           0.66119444E+00
   0.19200000E+01           0.65863657E+00
   0.19300000E+01           0.65738426E+00
   0.19400000E+01           0.65342593E+00
   0.19500000E+01           0.65127778E+00
   0.19600000E+01           0.64992593E+00
   0.19700000E+01           0.64941204E+00
   0.19800000E+01           0.64503472E+00
   0.19900000E+01           0.64264583E+00
   0.20000000E+01           0.32156481E+00
 #T=    20.0000
  -0.20000000E+01           0.00000000E+00
  -0.19900000E+01           0.00000000E+00
  -0.19800000E+01           0.00000000E+00
  -0.19700000E+01           0.00000000E+00
  -0.19600000E+01           0.00000000E+00
  -0.19500000E+01           0.00000000E+00
  -0.19400000E+01           0.00000000E+00
  -0.19300000E+01           0.00000000E+00
  -0.19200000E+01           0.00000000E+00
  -0.19100000E+01           0.00000000E+00
  -0.19000000E+01           0.00000000E+00
  -0.18900000E+01           0.00000000E+00
  -0.18800000E+01           0.00000000E+00
  -0.18700000E+01           0.00000000E+00
  -0.18600000E+01           0.00000000E+00
  -0.18500000E+01           0.00000000E+00
  -0.18400000E+01           0.00000000E+00
  -0.18300000E+01           0.00000000E+00
  -0.18200000E+01           0.00000000E+00
  -0.18100000E+01           0.00000000E+00
  -0.18000000E+01           0.00000000E+00
  -0.17900000E+01           0.00000000E+00
  -0.17800000E+01           0.00000000E+00
  -0.17700000E+01           0.00000000E+00
  -0.17600000E+01           0.00000000E+00
  -0.17500000E+01           0.00000000E+00
  -0.17400000E+01           0.00000000E+00
  -0.17300000E+01           0.00000000E+00
  -0.17200000E+01           0.00000000E+00
  -0.17100000E+01           0.00000000E+00
  -0.17000000E+01           0.00000000E+00
  -0.16900000E+01           0.00000000E+00
  -0.16800000E+01           0.00000000E+00
  -0.16700000E+01           0.00000000E+00
  -0.16600000E+01           0.00000000E+00
  -0.16500000E+01           0.00000000E+00
  -0.16400000E+01           0.00000000E+00
  -0.16300000E+01           0.00000000E+00
  -0.16200000E+01           0.00000000E+00
  -0.16100000E+01           0.00000000E+00
  -0.16000000E+01           0.00000000E+00
  -0.15900000E+01           0.00000000E+00
  -0.15800000E+01           0.00000000E+00
  -0.15700000E+01           0.00000000E+00
  -0.15600000E+01           0.00000000E+00
  -0.15500000E+01           0.00000000E+00
  -0.15400000E+01           0.00000000E+00
  -0.15300000E+01           0.00000000E+00
  -0.15200000E+01           0.00000000E+00
  -0.15100000E+01           0.00000000E+00
  -0.15000000E+01           0.00000000E+00
  -0.14900000E+01           0.00000000E+00
  -0.14800000E+01           0.00000000E+00
  -0.14700000E+01           0.00000000E+00
  -0.14600000E+01           0.00000000E+00
  -0.14500000E+01           0.00000000E+00
  -0.14400000E+01           0.00000000E+00
  -0.14300000E+01           0.00000000E+00
  -0.14200000E+01           0.00000000E+00
  -0.14100000E+01           0.00000000E+00
  -0.14000000E+01           0.00000000E+00
  -0.13900000E+01           0.00000000E+00
  -0.13800000E+01           0.00000000E+00
  -0.13700000E+01           0.00000000E+00
  -0.13600000E+01           0.00000000E+00
  -0.13500000E+01           0.00000000E+00
  -0.13400000E+01           0.00000000E+00
  -0.13300000E+01           0.00000000E+00
  -0.13200000E+01           0.00000000E+00
  -0.13100000E+01           0.00000000E+00
  -0.13000000E+01           0.00000000E+00
  -0.12900000E+01           0.00000000E+00
  -0.12800000E+01           0.00000000E+00
  -0.12700000E+01           0.00000000E+00
  -0.12600000E+01           0.00000000E+00
  -0.12500000E+01           0.00000000E+00
  -0.12400000E+01           0.00000000E+00
  -0.12300000E+01           0.00000000E+00
  -0.12200000E+01           0.00000000E+00
  -0.12100000E+01           0.00000000E+00
  -0.12000000E+01           0.00000000E+00
  -0.11900000E+01           0.00000000E+00
  -0.11800000E+01           0.00000000E+00
  -0.11700000E+01           0.00000000E+00
  -0.11600000E+01           0.00000000E+00
  -0.11500000E+01           0.00000000E+00
  -0.11400000E+01           0.00000000E+00
  -0.11300000E+01           0.00000000E+00
  -0.11200000E+01           0.00000000E+00
  -0.11100000E+01           0.00000000E+00
  -0.11000000E+01           0.00000000E+00
  -0.10900000E+01           0.00000000E+00
  -0.10800000E+01           0.00000000E+00
  -0.10700000E+01           0.00000000E+00
  -0.10600000E+01           0.00000000E+00
  -0.10500000E+01           0.00000000E+00
  -0.10400000E+01           0.00000000E+00
  -0.10300000E+01           0.00000000E+00
  -0.10200000E+01           0.00000000E+00
  -0.10100000E+01           0.00000000E+00
  -0.10000000E+01           0.00000000E+00
  -0.99000000E+00           0.00000000E+00
  -0.98000000E+00           0.00000000E+00
  -0.97000000E+00           0.00000000E+00
  -0.96000000E+00           0.00000000E+00
  -0.95000000E+00           0.00000000E+00
  -0.94000000E+00           0.00000000E+00
  -0.93000000E+00           0.00000000E+00
  -0.92000000E+00           0.00000000E+00
  -0.91000000E+00           0.00000000E+00
  -0.90000000E+00           0.00000000E+00
  -0.89000000E+00           0.00000000E+00
  -0.88000000E+00           0.00000000E+00
  -0.87000000E+00           0.00000000E+00
  -0.86000000E+00           0.00000000E+00
  -0.85000000E+00           0.00000000E+00
  -0.84000000E+00           0.00000000E+00
  -0.83000000E+00           0.00000000E+00
  -0.82000000E+00           0.00000000E+00
  -0.81000000E+00           0.00000000E+00
  -0.80000000E+00           0.00000000E+00
  -0.79000000E+00           0.00000000E+00
  -0.78000000E+00           0.00000000E+00
  -0.77000000E+00           0.00000000E+00
  -0.76000000E+00           0.00000000E+00
  -0.75000000E+00           0.00000000E+00
  -0.74000000E+00           0.00000000E+00
  -0.73000000E+00           0.00000000E+00
  -0.72000000E+00           0.00000000E+00
  -0.71000000E+00           0.00000000E+00
  -0.70000000E+00           0.00000000E+00
  -0.69000000E+00           0.00000000E+00
  -0.68000000E+00           0.00000000E+00
  -0.67000000E+00           0.00000000E+00
  -0.66000000E+00           0.00000000E+00
  -0.65000000E+00           0.00000000E+00
  -0.64000000E+00           0.00000000E+00
  -0.63000000E+00           0.00000000E+00
  -0.62000000E+00           0.00000000E+00
  -0.61000000E+00           0.00000000E+00
  -0.60000000E+00           0.00000000E+00
  -0.59000000E+00           0.00000000E+00
  -0.58000000E+00           0.00000000E+00
  -0.57000000E+00           0.00000000E+00
  -0.56000000E+00           0.00000000E+00
  -0.55000000E+00           0.00000000E+00
  -0.54000000E+00           0.00000000E+00
  -0.53000000E+00           0.00000000E+00
  -0.52000000E+00           0.00000000E+00
  -0.51000000E+00           0.00000000E+00
  -0.50000000E+00           0.00000000E+00
  -0.49000000E+00           0.00000000E+00
  -0.48000000E+00           0.00000000E+00
  -0.47000000E+00           0.00000000E+00
  -0.46000000E+00           0.00000000E+00
  -0.45000000E+00           0.00000000E+00
  -0.44000000E+00           0.00000000E+00
  -0.43000000E+00           0.00000000E+00
  -0.42000000E+00           0.00000000E+00
  -0.41000000E+00           0.00000000E+00
  -0.40000000E+00           0.00000000E+00
  -0.39000000E+00           0.00000000E+00
  -0.38000000E+00           0.00000000E+00
  -0.37000000E+00           0.00000000E+00
  -0.36000000E+00           0.00000000E+00
  -0.35000000E+00           0.00000000E+00
  -0.34000000E+00           0.00000000E+00
  -0.33000000E+00           0.00000000E+00
  -0.32000000E+00           0.00000000E+00
  -0.31000000E+00           0.00000000E+00
  -0.30000000E+00           0.00000000E+00
  -0.29000000E+00           0.00000000E+00
  -0.28000000E+00           0.00000000E+00
  -0.27000000E+00           0.00000000E+00
  -0.26000000E+00           0.00000000E+00
  -0.25000000E+00           0.00000000E+00
  -0.24000000E+00           0.00000000E+00
  -0.23000000E+00           0.00000000E+00
  -0.22000000E+00           0.00000000E+00
  -0.21000000E+00           0.00000000E+00
  -0.20000000E+00           0.00000000E+00
  -0.19000000E+00           0.00000000E+00
  -0.18000000E+00           0.00000000E+00
  -0.17000000E+00           0.00000000E+00
  -0.16000000E+00           0.00000000E+00
  -0.15000000E+00           0.00000000E+00
  -0.14000000E+00           0.00000000E+00
  -0.13000000E+00           0.00000000E+00
  -0.12000000E+00           0.00000000E+00
  -0.11000000E+00           0.00000000E+00
  -0.10000000E+00           0.00000000E+00
  -0.90000000E-01           0.00000000E+00
  -0.80000000E-01           0.00000000E+00
  -0.70000000E-01           0.00000000E+00
  -0.60000000E-01           0.00000000E+00
  -0.50000000E-01           0.00000000E+00
  -0.40000000E-01           0.00000000E+00
  -0.30000000E-01           0.00000000E+00
  -0.20000000E-01           0.00000000E+00
  -0.10000000E-01           0.00000000E+00
   0.00000000E+00           0.93981481E-03
   0.10000000E-01           0.74467593E-02
   0.20000000E-01           0.14381944E-01
   0.30000000E-01           0.21856481E-01
   0.40000000E-01           0.29976852E-01
   0.50000000E-01           0.35789352E-01
   0.60000000E-01           0.44194444E-01
   0.70000000E-01           0.51662037E-01
   0.80000000E-01           0.58921296E-01
   0.90000000E-01           0.65370370E-01
   0.10000000E+00           0.72784722E-01
   0.11000000E+00           0.80062500E-01
   0.12000000E+00           0.88284722E-01
   0.13000000E+00           0.95363426E-01
   0.14000000E+00           0.10143519E+00
   0.15000000E+00           0.10882870E+00
   0.16000000E+00           0.11589352E+00
   0.17000000E+00           0.12337269E+00
   0.18000000E+00           0.13037500E+00
   0.19000000E+00           0.13753241E+00
   0.20000000E+00           0.14529167E+00
   0.21000000E+00           0.15271991E+00
   0.22000000E+00           0.15836343E+00
   0.23000000E+00           0.16593287E+00
   0.24000000E+00           0.17318750E+00
   0.25000000E+00           0.18065741E+00
   0.26000000E+00           0.18670139E+00
   0.27000000E+00           0.19410648E+00
   0.28000000E+00           0.20034722E+00
   0.29000000E+00           0.20941667E+00
   0.30000000E+00           0.21462269E+00
   0.31000000E+00           0.22257407E+00
   0.32000000E+00           0.22815741E+00
   0.33000000E+00           0.23608565E+00
   0.34000000E+00           0.24407870E+00
   0.35000000E+00           0.25118056E+00
   0.36000000E+00           0.25734722E+00
   0.37000000E+00           0.26310880E+00
   0.38000000E+00           0.27065046E+00
   0.39000000E+00           0.27721065E+00
   0.40000000E+00           0.28327546E+00
   0.41000000E+00           0.28893056E+00
   0.42000000E+00           0.29707407E+00
   0.43000000E+00           0.30291898E+00
   0.44000000E+00           0.30981019E+00
   0.45000000E+00           0.31781250E+00
   0.46000000E+00           0.32247222E+00
   0.47000000E+00           0.32951157E+00
   0.48000000E+00           0.33432407E+00
   0.49000000E+00           0.34108565E+00
   0.50000000E+00           0.34866667E+00
   0.51000000E+00           0.35293519E+00
   0.52000000E+00           0.36064583E+00
   0.53000000E+00           0.36600000E+00
   0.54000000E+00           0.37113657E+00
   0.55000000E+00           0.37835185E+00
   0.56000000E+00           0.38476157E+00
   0.57000000E+00           0.39176620E+00
   0.58000000E+00           0.39577083E+00
   0.59000000E+00           0.40246296E+00
   0.60000000E+00           0.40839583E+00
   0.61000000E+00           0.41275000E+00
   0.62000000E+00           0.41820833E+00
   0.63000000E+00           0.42462731E+00
   0.64000000E+00           0.43005093E+00
   0.65000000E+00           0.43518981E+00
   0.66000000E+00           0.44289352E+00
   0.67000000E+00           0.44821528E+00
   0.68000000E+00           0.45210648E+00
   0.69000000E+00           0.45585880E+00
   0.70000000E+00           0.46365046E+00
   0.71000000E+00           0.46911111E+00
   0.72000000E+00           0.47568287E+00
   0.73000000E+00           0.47836111E+00
   0.74000000E+00           0.48323843E+00
   0.75000000E+00           0.48855556E+00
   0.76000000E+00           0.49451157E+00
   0.77000000E+00           0.49965278E+00
   0.78000000E+00           0.50396296E+00
   0.79000000E+00           0.50729167E+00
   0.80000000E+00           0.51215278E+00
   0.81000000E+00           0.51869676E+00
   0.82000000E+00           0.52233796E+00
   0.83000000E+00           0.52754861E+00
   0.84000000E+00           0.53300694E+00
   0.85000000E+00           0.53740972E+00
   0.86000000E+00           0.53950231E+00
   0.87000000E+00           0.54542824E+00
   0.88000000E+00           0.54862037E+00
   0.89000000E+00           0.55510185E+00
   0.90000000E+00           0.55789120E+00
   0.91000000E+00           0.56307176E+00
   0.92000000E+00           0.56627546E+00
   0.93000000E+00           0.57004398E+00
   0.94000000E+00           0.57489352E+00
   0.95000000E+00           0.57487037E+00
   0.96000000E+00           0.58251852E+00
   0.97000000E+00           0.58575926E+00
   0.98000000E+00           0.58867130E+00
   0.99000000E+00           0.59547454E+00
   0.10000000E+01           0.59643750E+00
   0.10100000E+01           0.59912963E+00
   0.10200000E+01           0.60265046E+00
   0.10300000E+01           0.60578935E+00
   0.10400000E+01           0.61008565E+00
   0.10500000E+01           0.61013889E+00
   0.10600000E+01           0.61705556E+00
   0.10700000E+01           0.61904167E+00
   0.10800000E+01           0.62300926E+00
   0.10900000E+01           0.62466204E+00
   0.11000000E+01           0.62766667E+00
   0.11100000E+01           0.63195139E+00
   0.11200000E+01           0.63256019E+00
   0.11300000E+01           0.63664815E+00
   0.11400000E+01           0.64116667E+00
   0.11500000E+01           0.63973843E+00
   0.11600000E+01           0.64639815E+00
   0.11700000E+01           0.65067824E+00
   0.11800000E+01           0.64899074E+00
   0.11900000E+01           0.65078472E+00
   0.12000000E+01           0.65356944E+00
   0.12100000E+01           0.65656481E+00
   0.12200000E+01           0.65901157E+00
   0.12300000E+01           0.66010417E+00
   0.12400000E+01           0.66068056E+00
   0.12500000E+01           0.66675926E+00
   0.12600000E+01           0.66612500E+00
   0.12700000E+01           0.66733796E+00
   0.12800000E+01           0.67183102E+00
   0.12900000E+01           0.67175694E+00
   0.13000000E+01           0.67372917E+00
   0.13100000E+01           0.67576389E+00
   0.13200000E+01           0.67537731E+00
   0.13300000E+01           0.67996065E+00
   0.13400000E+01           0.68141898E+00
   0.13500000E+01           0.68113889E+00
   0.13600000E+01           0.68148148E+00
   0.13700000E+01           0.68369907E+00
   0.13800000E+01           0.68509491E+00
   0.13900000E+01           0.68554398E+00
   0.14000000E+01           0.68496759E+00
   0.14100000E+01           0.68820833E+00
   0.14200000E+01           0.68866898E+00
   0.14300000E+01           0.68841667E+00
   0.14400000E+01           0.69026620E+00
   0.14500000E+01           0.68848148E+00
   0.14600000E+01           0.69151389E+00
   0.14700000E+01           0.69337269E+00
   0.14800000E+01           0.69192130E+00
   0.14900000E+01           0.69411343E+00
   0.15000000E+01           0.69357639E+00
   0.15100000E+01           0.69380093E+00
   0.15200000E+01           0.69434259E+00
   0.15300000E+01           0.69436574E+00
   0.15400000E+01           0.69367130E+00
   0.15500000E+01           0.69423380E+00
   0.15600000E+01           0.69726157E+00
   0.15700000E+01           0.69365741E+00
   0.15800000E+01           0.69478241E+00
   0.15900000E+01           0.69591204E+00
   0.16000000E+01           0.69483102E+00
   0.16100000E+01           0.69337731E+00
   0.16200000E+01           0.69274074E+00
   0.16300000E+01           0.69528009E+00
   0.16400000E+01           0.69093981E+00
   0.16500000E+01           0.69315046E+00
   0.16600000E+01           0.69252778E+00
   0.16700000E+01           0.69337500E+00
   0.16800000E+01           0.69019907E+00
   0.16900000E+01           0.68940741E+00
   0.17000000E+01           0.68984722E+00
   0.17100000E+01           0.69142593E+00
   0.17200000E+01           0.68969213E+00
   0.17300000E+01           0.68679861E+00
   0.17400000E+01           0.68618056E+00
   0.17500000E+01           0.68495139E+00
   0.17600000E+01           0.68258333E+00
   0.17700000E+01           0.68149074E+00
   0.17800000E+01           0.68042361E+00
   0.17900000E+01           0.68049537E+00
   0.18000000E+01           0.67997222E+00
   0.18100000E+01           0.67925694E+00
   0.18200000E+01           0.67912500E+00
   0.18300000E+01           0.67784028E+00
   0.18400000E+01           0.67558333E+00
   0.18500000E+01           0.67173611E+00
   0.18600000E+01           0.67293981E+00
   0.18700000E+01           0.67240972E+00
   0.18800000E+01           0.66703935E+00
   0.18900000E+01           0.67008796E+00
   0.19000000E+01           0.66505093E+00
   0.19100000E+01           0.66221759E+00
   0.19200000E+01           0.66063657E+00
   0.19300000E+01           0.66082639E+00
   0.19400000E+01           0.65662500E+00
   0.19500000E+01           0.65495602E+00
   0.19600000E+01           0.65602778E+00
   0.19700000E+01           0.65231944E+00
   0.19800000E+01           0.64926389E+00
   0.19900000E+01           0.64882407E+00
   0.20000000E+01           0.32296065E+00
