 #written on 13Aug2024 at 01:46:58 
 #----------------- MONTECARLO -------------------#
 #        M                      P(M)             #
 #------------------------------------------------#
 #T=     0.5000
  -0.20000000E+01           0.00000000E+00
  -0.19900000E+01           0.00000000E+00
  -0.19800000E+01           0.00000000E+00
  -0.19700000E+01           0.00000000E+00
  -0.19600000E+01           0.00000000E+00
  -0.19500000E+01           0.00000000E+00
  -0.19400000E+01           0.00000000E+00
  -0.19300000E+01           0.00000000E+00
  -0.19200000E+01           0.00000000E+00
  -0.19100000E+01           0.00000000E+00
  -0.19000000E+01           0.00000000E+00
  -0.18900000E+01           0.00000000E+00
  -0.18800000E+01           0.00000000E+00
  -0.18700000E+01           0.00000000E+00
  -0.18600000E+01           0.00000000E+00
  -0.18500000E+01           0.00000000E+00
  -0.18400000E+01           0.00000000E+00
  -0.18300000E+01           0.00000000E+00
  -0.18200000E+01           0.00000000E+00
  -0.18100000E+01           0.00000000E+00
  -0.18000000E+01           0.00000000E+00
  -0.17900000E+01           0.00000000E+00
  -0.17800000E+01           0.00000000E+00
  -0.17700000E+01           0.00000000E+00
  -0.17600000E+01           0.00000000E+00
  -0.17500000E+01           0.00000000E+00
  -0.17400000E+01           0.00000000E+00
  -0.17300000E+01           0.00000000E+00
  -0.17200000E+01           0.00000000E+00
  -0.17100000E+01           0.00000000E+00
  -0.17000000E+01           0.00000000E+00
  -0.16900000E+01           0.00000000E+00
  -0.16800000E+01           0.00000000E+00
  -0.16700000E+01           0.00000000E+00
  -0.16600000E+01           0.00000000E+00
  -0.16500000E+01           0.00000000E+00
  -0.16400000E+01           0.00000000E+00
  -0.16300000E+01           0.00000000E+00
  -0.16200000E+01           0.00000000E+00
  -0.16100000E+01           0.00000000E+00
  -0.16000000E+01           0.00000000E+00
  -0.15900000E+01           0.00000000E+00
  -0.15800000E+01           0.00000000E+00
  -0.15700000E+01           0.00000000E+00
  -0.15600000E+01           0.00000000E+00
  -0.15500000E+01           0.00000000E+00
  -0.15400000E+01           0.00000000E+00
  -0.15300000E+01           0.00000000E+00
  -0.15200000E+01           0.00000000E+00
  -0.15100000E+01           0.00000000E+00
  -0.15000000E+01           0.00000000E+00
  -0.14900000E+01           0.00000000E+00
  -0.14800000E+01           0.00000000E+00
  -0.14700000E+01           0.00000000E+00
  -0.14600000E+01           0.00000000E+00
  -0.14500000E+01           0.00000000E+00
  -0.14400000E+01           0.00000000E+00
  -0.14300000E+01           0.00000000E+00
  -0.14200000E+01           0.00000000E+00
  -0.14100000E+01           0.00000000E+00
  -0.14000000E+01           0.00000000E+00
  -0.13900000E+01           0.00000000E+00
  -0.13800000E+01           0.00000000E+00
  -0.13700000E+01           0.00000000E+00
  -0.13600000E+01           0.00000000E+00
  -0.13500000E+01           0.00000000E+00
  -0.13400000E+01           0.00000000E+00
  -0.13300000E+01           0.00000000E+00
  -0.13200000E+01           0.00000000E+00
  -0.13100000E+01           0.00000000E+00
  -0.13000000E+01           0.00000000E+00
  -0.12900000E+01           0.00000000E+00
  -0.12800000E+01           0.00000000E+00
  -0.12700000E+01           0.00000000E+00
  -0.12600000E+01           0.00000000E+00
  -0.12500000E+01           0.00000000E+00
  -0.12400000E+01           0.00000000E+00
  -0.12300000E+01           0.00000000E+00
  -0.12200000E+01           0.00000000E+00
  -0.12100000E+01           0.00000000E+00
  -0.12000000E+01           0.00000000E+00
  -0.11900000E+01           0.00000000E+00
  -0.11800000E+01           0.00000000E+00
  -0.11700000E+01           0.00000000E+00
  -0.11600000E+01           0.00000000E+00
  -0.11500000E+01           0.00000000E+00
  -0.11400000E+01           0.00000000E+00
  -0.11300000E+01           0.00000000E+00
  -0.11200000E+01           0.00000000E+00
  -0.11100000E+01           0.00000000E+00
  -0.11000000E+01           0.00000000E+00
  -0.10900000E+01           0.00000000E+00
  -0.10800000E+01           0.00000000E+00
  -0.10700000E+01           0.00000000E+00
  -0.10600000E+01           0.00000000E+00
  -0.10500000E+01           0.00000000E+00
  -0.10400000E+01           0.00000000E+00
  -0.10300000E+01           0.00000000E+00
  -0.10200000E+01           0.00000000E+00
  -0.10100000E+01           0.00000000E+00
  -0.10000000E+01           0.00000000E+00
  -0.99000000E+00           0.00000000E+00
  -0.98000000E+00           0.00000000E+00
  -0.97000000E+00           0.00000000E+00
  -0.96000000E+00           0.00000000E+00
  -0.95000000E+00           0.00000000E+00
  -0.94000000E+00           0.00000000E+00
  -0.93000000E+00           0.00000000E+00
  -0.92000000E+00           0.00000000E+00
  -0.91000000E+00           0.00000000E+00
  -0.90000000E+00           0.00000000E+00
  -0.89000000E+00           0.00000000E+00
  -0.88000000E+00           0.00000000E+00
  -0.87000000E+00           0.00000000E+00
  -0.86000000E+00           0.00000000E+00
  -0.85000000E+00           0.00000000E+00
  -0.84000000E+00           0.00000000E+00
  -0.83000000E+00           0.00000000E+00
  -0.82000000E+00           0.00000000E+00
  -0.81000000E+00           0.00000000E+00
  -0.80000000E+00           0.00000000E+00
  -0.79000000E+00           0.00000000E+00
  -0.78000000E+00           0.00000000E+00
  -0.77000000E+00           0.00000000E+00
  -0.76000000E+00           0.00000000E+00
  -0.75000000E+00           0.00000000E+00
  -0.74000000E+00           0.00000000E+00
  -0.73000000E+00           0.00000000E+00
  -0.72000000E+00           0.00000000E+00
  -0.71000000E+00           0.00000000E+00
  -0.70000000E+00           0.00000000E+00
  -0.69000000E+00           0.00000000E+00
  -0.68000000E+00           0.00000000E+00
  -0.67000000E+00           0.00000000E+00
  -0.66000000E+00           0.00000000E+00
  -0.65000000E+00           0.00000000E+00
  -0.64000000E+00           0.00000000E+00
  -0.63000000E+00           0.00000000E+00
  -0.62000000E+00           0.00000000E+00
  -0.61000000E+00           0.00000000E+00
  -0.60000000E+00           0.00000000E+00
  -0.59000000E+00           0.00000000E+00
  -0.58000000E+00           0.00000000E+00
  -0.57000000E+00           0.00000000E+00
  -0.56000000E+00           0.00000000E+00
  -0.55000000E+00           0.00000000E+00
  -0.54000000E+00           0.00000000E+00
  -0.53000000E+00           0.00000000E+00
  -0.52000000E+00           0.00000000E+00
  -0.51000000E+00           0.00000000E+00
  -0.50000000E+00           0.00000000E+00
  -0.49000000E+00           0.00000000E+00
  -0.48000000E+00           0.00000000E+00
  -0.47000000E+00           0.00000000E+00
  -0.46000000E+00           0.00000000E+00
  -0.45000000E+00           0.00000000E+00
  -0.44000000E+00           0.00000000E+00
  -0.43000000E+00           0.00000000E+00
  -0.42000000E+00           0.00000000E+00
  -0.41000000E+00           0.00000000E+00
  -0.40000000E+00           0.00000000E+00
  -0.39000000E+00           0.00000000E+00
  -0.38000000E+00           0.00000000E+00
  -0.37000000E+00           0.00000000E+00
  -0.36000000E+00           0.00000000E+00
  -0.35000000E+00           0.00000000E+00
  -0.34000000E+00           0.00000000E+00
  -0.33000000E+00           0.00000000E+00
  -0.32000000E+00           0.00000000E+00
  -0.31000000E+00           0.00000000E+00
  -0.30000000E+00           0.00000000E+00
  -0.29000000E+00           0.00000000E+00
  -0.28000000E+00           0.00000000E+00
  -0.27000000E+00           0.00000000E+00
  -0.26000000E+00           0.00000000E+00
  -0.25000000E+00           0.00000000E+00
  -0.24000000E+00           0.00000000E+00
  -0.23000000E+00           0.00000000E+00
  -0.22000000E+00           0.00000000E+00
  -0.21000000E+00           0.00000000E+00
  -0.20000000E+00           0.00000000E+00
  -0.19000000E+00           0.00000000E+00
  -0.18000000E+00           0.00000000E+00
  -0.17000000E+00           0.00000000E+00
  -0.16000000E+00           0.00000000E+00
  -0.15000000E+00           0.00000000E+00
  -0.14000000E+00           0.00000000E+00
  -0.13000000E+00           0.00000000E+00
  -0.12000000E+00           0.00000000E+00
  -0.11000000E+00           0.00000000E+00
  -0.10000000E+00           0.00000000E+00
  -0.90000000E-01           0.00000000E+00
  -0.80000000E-01           0.00000000E+00
  -0.70000000E-01           0.00000000E+00
  -0.60000000E-01           0.00000000E+00
  -0.50000000E-01           0.00000000E+00
  -0.40000000E-01           0.00000000E+00
  -0.30000000E-01           0.00000000E+00
  -0.20000000E-01           0.00000000E+00
  -0.10000000E-01           0.00000000E+00
   0.00000000E+00           0.45263889E-02
   0.10000000E-01           0.36417564E-01
   0.20000000E-01           0.72464323E-01
   0.30000000E-01           0.10825689E+00
   0.40000000E-01           0.14308409E+00
   0.50000000E-01           0.17530856E+00
   0.60000000E-01           0.20669635E+00
   0.70000000E-01           0.23623568E+00
   0.80000000E-01           0.26386267E+00
   0.90000000E-01           0.28885917E+00
   0.10000000E+00           0.31243950E+00
   0.11000000E+00           0.33314525E+00
   0.12000000E+00           0.35036690E+00
   0.13000000E+00           0.36618455E+00
   0.14000000E+00           0.37997870E+00
   0.15000000E+00           0.39076189E+00
   0.16000000E+00           0.40256140E+00
   0.17000000E+00           0.40750026E+00
   0.18000000E+00           0.41275466E+00
   0.19000000E+00           0.41595017E+00
   0.20000000E+00           0.41683594E+00
   0.21000000E+00           0.41707758E+00
   0.22000000E+00           0.41894696E+00
   0.23000000E+00           0.41743206E+00
   0.24000000E+00           0.41548475E+00
   0.25000000E+00           0.41306085E+00
   0.26000000E+00           0.40991418E+00
   0.27000000E+00           0.40725260E+00
   0.28000000E+00           0.40269187E+00
   0.29000000E+00           0.40018672E+00
   0.30000000E+00           0.39534149E+00
   0.31000000E+00           0.38998918E+00
   0.32000000E+00           0.38720639E+00
   0.33000000E+00           0.38505006E+00
   0.34000000E+00           0.38111212E+00
   0.35000000E+00           0.37867636E+00
   0.36000000E+00           0.37503947E+00
   0.37000000E+00           0.37072561E+00
   0.38000000E+00           0.36910715E+00
   0.39000000E+00           0.36754363E+00
   0.40000000E+00           0.36609149E+00
   0.41000000E+00           0.36135136E+00
   0.42000000E+00           0.36041128E+00
   0.43000000E+00           0.35866160E+00
   0.44000000E+00           0.35667023E+00
   0.45000000E+00           0.35604936E+00
   0.46000000E+00           0.35404372E+00
   0.47000000E+00           0.35323018E+00
   0.48000000E+00           0.35276027E+00
   0.49000000E+00           0.35339216E+00
   0.50000000E+00           0.35168414E+00
   0.51000000E+00           0.35091591E+00
   0.52000000E+00           0.35069054E+00
   0.53000000E+00           0.34972723E+00
   0.54000000E+00           0.34986160E+00
   0.55000000E+00           0.34886157E+00
   0.56000000E+00           0.34914091E+00
   0.57000000E+00           0.34933652E+00
   0.58000000E+00           0.34916739E+00
   0.59000000E+00           0.35109193E+00
   0.60000000E+00           0.34894716E+00
   0.61000000E+00           0.34812245E+00
   0.62000000E+00           0.34981916E+00
   0.63000000E+00           0.34965307E+00
   0.64000000E+00           0.34799198E+00
   0.65000000E+00           0.34954592E+00
   0.66000000E+00           0.34953961E+00
   0.67000000E+00           0.34973174E+00
   0.68000000E+00           0.34893001E+00
   0.69000000E+00           0.35082593E+00
   0.70000000E+00           0.34987555E+00
   0.71000000E+00           0.34979740E+00
   0.72000000E+00           0.34898738E+00
   0.73000000E+00           0.34943669E+00
   0.74000000E+00           0.35041455E+00
   0.75000000E+00           0.35097127E+00
   0.76000000E+00           0.35135992E+00
   0.77000000E+00           0.35201247E+00
   0.78000000E+00           0.35185122E+00
   0.79000000E+00           0.35202653E+00
   0.80000000E+00           0.35213391E+00
   0.81000000E+00           0.35267622E+00
   0.82000000E+00           0.35462645E+00
   0.83000000E+00           0.35432159E+00
   0.84000000E+00           0.35323715E+00
   0.85000000E+00           0.35534416E+00
   0.86000000E+00           0.35510677E+00
   0.87000000E+00           0.35675903E+00
   0.88000000E+00           0.35720651E+00
   0.89000000E+00           0.35846950E+00
   0.90000000E+00           0.35884008E+00
   0.91000000E+00           0.35952089E+00
   0.92000000E+00           0.35983689E+00
   0.93000000E+00           0.36138712E+00
   0.94000000E+00           0.36299986E+00
   0.95000000E+00           0.36326305E+00
   0.96000000E+00           0.36425729E+00
   0.97000000E+00           0.36546944E+00
   0.98000000E+00           0.36641563E+00
   0.99000000E+00           0.36840674E+00
   0.10000000E+01           0.36999682E+00
   0.10100000E+01           0.37150327E+00
   0.10200000E+01           0.37206753E+00
   0.10300000E+01           0.37368006E+00
   0.10400000E+01           0.37434572E+00
   0.10500000E+01           0.37855211E+00
   0.10600000E+01           0.37675712E+00
   0.10700000E+01           0.37919378E+00
   0.10800000E+01           0.38250347E+00
   0.10900000E+01           0.38391994E+00
   0.11000000E+01           0.38459748E+00
   0.11100000E+01           0.38715394E+00
   0.11200000E+01           0.38930321E+00
   0.11300000E+01           0.39113990E+00
   0.11400000E+01           0.39373397E+00
   0.11500000E+01           0.39576481E+00
   0.11600000E+01           0.39697101E+00
   0.11700000E+01           0.39839771E+00
   0.11800000E+01           0.40122769E+00
   0.11900000E+01           0.40241528E+00
   0.12000000E+01           0.40278620E+00
   0.12100000E+01           0.40449523E+00
   0.12200000E+01           0.40514470E+00
   0.12300000E+01           0.40644580E+00
   0.12400000E+01           0.40669511E+00
   0.12500000E+01           0.40736071E+00
   0.12600000E+01           0.40924418E+00
   0.12700000E+01           0.40725269E+00
   0.12800000E+01           0.40657677E+00
   0.12900000E+01           0.40608950E+00
   0.13000000E+01           0.40639242E+00
   0.13100000E+01           0.40634274E+00
   0.13200000E+01           0.40726056E+00
   0.13300000E+01           0.40457815E+00
   0.13400000E+01           0.40347292E+00
   0.13500000E+01           0.40308747E+00
   0.13600000E+01           0.40146311E+00
   0.13700000E+01           0.39884259E+00
   0.13800000E+01           0.39934398E+00
   0.13900000E+01           0.39815122E+00
   0.14000000E+01           0.39768388E+00
   0.14100000E+01           0.39593380E+00
   0.14200000E+01           0.39599065E+00
   0.14300000E+01           0.39494809E+00
   0.14400000E+01           0.39408105E+00
   0.14500000E+01           0.39473475E+00
   0.14600000E+01           0.39466771E+00
   0.14700000E+01           0.39562818E+00
   0.14800000E+01           0.39444954E+00
   0.14900000E+01           0.39645313E+00
   0.15000000E+01           0.39916944E+00
   0.15100000E+01           0.39853521E+00
   0.15200000E+01           0.40182569E+00
   0.15300000E+01           0.40335443E+00
   0.15400000E+01           0.40559002E+00
   0.15500000E+01           0.40766814E+00
   0.15600000E+01           0.41235706E+00
   0.15700000E+01           0.41668637E+00
   0.15800000E+01           0.41914242E+00
   0.15900000E+01           0.42306013E+00
   0.16000000E+01           0.42663981E+00
   0.16100000E+01           0.43087086E+00
   0.16200000E+01           0.43409291E+00
   0.16300000E+01           0.44081479E+00
   0.16400000E+01           0.44594083E+00
   0.16500000E+01           0.45108255E+00
   0.16600000E+01           0.45749329E+00
   0.16700000E+01           0.46295741E+00
   0.16800000E+01           0.46755255E+00
   0.16900000E+01           0.47457992E+00
   0.17000000E+01           0.48037931E+00
   0.17100000E+01           0.48946759E+00
   0.17200000E+01           0.49810891E+00
   0.17300000E+01           0.50578354E+00
   0.17400000E+01           0.51423851E+00
   0.17500000E+01           0.52406965E+00
   0.17600000E+01           0.53493955E+00
   0.17700000E+01           0.54766076E+00
   0.17800000E+01           0.56010851E+00
   0.17900000E+01           0.57701670E+00
   0.18000000E+01           0.59268194E+00
   0.18100000E+01           0.60981973E+00
   0.18200000E+01           0.63039780E+00
   0.18300000E+01           0.65368984E+00
   0.18400000E+01           0.67994332E+00
   0.18500000E+01           0.70728128E+00
   0.18600000E+01           0.73946441E+00
   0.18700000E+01           0.77890417E+00
   0.18800000E+01           0.82029957E+00
   0.18900000E+01           0.86969349E+00
   0.19000000E+01           0.93319398E+00
   0.19100000E+01           0.10094643E+01
   0.19200000E+01           0.11113111E+01
   0.19300000E+01           0.12390008E+01
   0.19400000E+01           0.14081651E+01
   0.19500000E+01           0.16467472E+01
   0.19600000E+01           0.19980029E+01
   0.19700000E+01           0.25448022E+01
   0.19800000E+01           0.35021060E+01
   0.19900000E+01           0.54128688E+01
   0.20000000E+01           0.40728659E+01
 #T=     1.0000
  -0.20000000E+01           0.00000000E+00
  -0.19900000E+01           0.00000000E+00
  -0.19800000E+01           0.00000000E+00
  -0.19700000E+01           0.00000000E+00
  -0.19600000E+01           0.00000000E+00
  -0.19500000E+01           0.00000000E+00
  -0.19400000E+01           0.00000000E+00
  -0.19300000E+01           0.00000000E+00
  -0.19200000E+01           0.00000000E+00
  -0.19100000E+01           0.00000000E+00
  -0.19000000E+01           0.00000000E+00
  -0.18900000E+01           0.00000000E+00
  -0.18800000E+01           0.00000000E+00
  -0.18700000E+01           0.00000000E+00
  -0.18600000E+01           0.00000000E+00
  -0.18500000E+01           0.00000000E+00
  -0.18400000E+01           0.00000000E+00
  -0.18300000E+01           0.00000000E+00
  -0.18200000E+01           0.00000000E+00
  -0.18100000E+01           0.00000000E+00
  -0.18000000E+01           0.00000000E+00
  -0.17900000E+01           0.00000000E+00
  -0.17800000E+01           0.00000000E+00
  -0.17700000E+01           0.00000000E+00
  -0.17600000E+01           0.00000000E+00
  -0.17500000E+01           0.00000000E+00
  -0.17400000E+01           0.00000000E+00
  -0.17300000E+01           0.00000000E+00
  -0.17200000E+01           0.00000000E+00
  -0.17100000E+01           0.00000000E+00
  -0.17000000E+01           0.00000000E+00
  -0.16900000E+01           0.00000000E+00
  -0.16800000E+01           0.00000000E+00
  -0.16700000E+01           0.00000000E+00
  -0.16600000E+01           0.00000000E+00
  -0.16500000E+01           0.00000000E+00
  -0.16400000E+01           0.00000000E+00
  -0.16300000E+01           0.00000000E+00
  -0.16200000E+01           0.00000000E+00
  -0.16100000E+01           0.00000000E+00
  -0.16000000E+01           0.00000000E+00
  -0.15900000E+01           0.00000000E+00
  -0.15800000E+01           0.00000000E+00
  -0.15700000E+01           0.00000000E+00
  -0.15600000E+01           0.00000000E+00
  -0.15500000E+01           0.00000000E+00
  -0.15400000E+01           0.00000000E+00
  -0.15300000E+01           0.00000000E+00
  -0.15200000E+01           0.00000000E+00
  -0.15100000E+01           0.00000000E+00
  -0.15000000E+01           0.00000000E+00
  -0.14900000E+01           0.00000000E+00
  -0.14800000E+01           0.00000000E+00
  -0.14700000E+01           0.00000000E+00
  -0.14600000E+01           0.00000000E+00
  -0.14500000E+01           0.00000000E+00
  -0.14400000E+01           0.00000000E+00
  -0.14300000E+01           0.00000000E+00
  -0.14200000E+01           0.00000000E+00
  -0.14100000E+01           0.00000000E+00
  -0.14000000E+01           0.00000000E+00
  -0.13900000E+01           0.00000000E+00
  -0.13800000E+01           0.00000000E+00
  -0.13700000E+01           0.00000000E+00
  -0.13600000E+01           0.00000000E+00
  -0.13500000E+01           0.00000000E+00
  -0.13400000E+01           0.00000000E+00
  -0.13300000E+01           0.00000000E+00
  -0.13200000E+01           0.00000000E+00
  -0.13100000E+01           0.00000000E+00
  -0.13000000E+01           0.00000000E+00
  -0.12900000E+01           0.00000000E+00
  -0.12800000E+01           0.00000000E+00
  -0.12700000E+01           0.00000000E+00
  -0.12600000E+01           0.00000000E+00
  -0.12500000E+01           0.00000000E+00
  -0.12400000E+01           0.00000000E+00
  -0.12300000E+01           0.00000000E+00
  -0.12200000E+01           0.00000000E+00
  -0.12100000E+01           0.00000000E+00
  -0.12000000E+01           0.00000000E+00
  -0.11900000E+01           0.00000000E+00
  -0.11800000E+01           0.00000000E+00
  -0.11700000E+01           0.00000000E+00
  -0.11600000E+01           0.00000000E+00
  -0.11500000E+01           0.00000000E+00
  -0.11400000E+01           0.00000000E+00
  -0.11300000E+01           0.00000000E+00
  -0.11200000E+01           0.00000000E+00
  -0.11100000E+01           0.00000000E+00
  -0.11000000E+01           0.00000000E+00
  -0.10900000E+01           0.00000000E+00
  -0.10800000E+01           0.00000000E+00
  -0.10700000E+01           0.00000000E+00
  -0.10600000E+01           0.00000000E+00
  -0.10500000E+01           0.00000000E+00
  -0.10400000E+01           0.00000000E+00
  -0.10300000E+01           0.00000000E+00
  -0.10200000E+01           0.00000000E+00
  -0.10100000E+01           0.00000000E+00
  -0.10000000E+01           0.00000000E+00
  -0.99000000E+00           0.00000000E+00
  -0.98000000E+00           0.00000000E+00
  -0.97000000E+00           0.00000000E+00
  -0.96000000E+00           0.00000000E+00
  -0.95000000E+00           0.00000000E+00
  -0.94000000E+00           0.00000000E+00
  -0.93000000E+00           0.00000000E+00
  -0.92000000E+00           0.00000000E+00
  -0.91000000E+00           0.00000000E+00
  -0.90000000E+00           0.00000000E+00
  -0.89000000E+00           0.00000000E+00
  -0.88000000E+00           0.00000000E+00
  -0.87000000E+00           0.00000000E+00
  -0.86000000E+00           0.00000000E+00
  -0.85000000E+00           0.00000000E+00
  -0.84000000E+00           0.00000000E+00
  -0.83000000E+00           0.00000000E+00
  -0.82000000E+00           0.00000000E+00
  -0.81000000E+00           0.00000000E+00
  -0.80000000E+00           0.00000000E+00
  -0.79000000E+00           0.00000000E+00
  -0.78000000E+00           0.00000000E+00
  -0.77000000E+00           0.00000000E+00
  -0.76000000E+00           0.00000000E+00
  -0.75000000E+00           0.00000000E+00
  -0.74000000E+00           0.00000000E+00
  -0.73000000E+00           0.00000000E+00
  -0.72000000E+00           0.00000000E+00
  -0.71000000E+00           0.00000000E+00
  -0.70000000E+00           0.00000000E+00
  -0.69000000E+00           0.00000000E+00
  -0.68000000E+00           0.00000000E+00
  -0.67000000E+00           0.00000000E+00
  -0.66000000E+00           0.00000000E+00
  -0.65000000E+00           0.00000000E+00
  -0.64000000E+00           0.00000000E+00
  -0.63000000E+00           0.00000000E+00
  -0.62000000E+00           0.00000000E+00
  -0.61000000E+00           0.00000000E+00
  -0.60000000E+00           0.00000000E+00
  -0.59000000E+00           0.00000000E+00
  -0.58000000E+00           0.00000000E+00
  -0.57000000E+00           0.00000000E+00
  -0.56000000E+00           0.00000000E+00
  -0.55000000E+00           0.00000000E+00
  -0.54000000E+00           0.00000000E+00
  -0.53000000E+00           0.00000000E+00
  -0.52000000E+00           0.00000000E+00
  -0.51000000E+00           0.00000000E+00
  -0.50000000E+00           0.00000000E+00
  -0.49000000E+00           0.00000000E+00
  -0.48000000E+00           0.00000000E+00
  -0.47000000E+00           0.00000000E+00
  -0.46000000E+00           0.00000000E+00
  -0.45000000E+00           0.00000000E+00
  -0.44000000E+00           0.00000000E+00
  -0.43000000E+00           0.00000000E+00
  -0.42000000E+00           0.00000000E+00
  -0.41000000E+00           0.00000000E+00
  -0.40000000E+00           0.00000000E+00
  -0.39000000E+00           0.00000000E+00
  -0.38000000E+00           0.00000000E+00
  -0.37000000E+00           0.00000000E+00
  -0.36000000E+00           0.00000000E+00
  -0.35000000E+00           0.00000000E+00
  -0.34000000E+00           0.00000000E+00
  -0.33000000E+00           0.00000000E+00
  -0.32000000E+00           0.00000000E+00
  -0.31000000E+00           0.00000000E+00
  -0.30000000E+00           0.00000000E+00
  -0.29000000E+00           0.00000000E+00
  -0.28000000E+00           0.00000000E+00
  -0.27000000E+00           0.00000000E+00
  -0.26000000E+00           0.00000000E+00
  -0.25000000E+00           0.00000000E+00
  -0.24000000E+00           0.00000000E+00
  -0.23000000E+00           0.00000000E+00
  -0.22000000E+00           0.00000000E+00
  -0.21000000E+00           0.00000000E+00
  -0.20000000E+00           0.00000000E+00
  -0.19000000E+00           0.00000000E+00
  -0.18000000E+00           0.00000000E+00
  -0.17000000E+00           0.00000000E+00
  -0.16000000E+00           0.00000000E+00
  -0.15000000E+00           0.00000000E+00
  -0.14000000E+00           0.00000000E+00
  -0.13000000E+00           0.00000000E+00
  -0.12000000E+00           0.00000000E+00
  -0.11000000E+00           0.00000000E+00
  -0.10000000E+00           0.00000000E+00
  -0.90000000E-01           0.00000000E+00
  -0.80000000E-01           0.00000000E+00
  -0.70000000E-01           0.00000000E+00
  -0.60000000E-01           0.00000000E+00
  -0.50000000E-01           0.00000000E+00
  -0.40000000E-01           0.00000000E+00
  -0.30000000E-01           0.00000000E+00
  -0.20000000E-01           0.00000000E+00
  -0.10000000E-01           0.00000000E+00
   0.00000000E+00           0.32190683E-02
   0.10000000E-01           0.25821470E-01
   0.20000000E-01           0.51691291E-01
   0.30000000E-01           0.76663223E-01
   0.40000000E-01           0.10161973E+00
   0.50000000E-01           0.12652433E+00
   0.60000000E-01           0.15026759E+00
   0.70000000E-01           0.17365362E+00
   0.80000000E-01           0.19587572E+00
   0.90000000E-01           0.21784149E+00
   0.10000000E+00           0.23811962E+00
   0.11000000E+00           0.25830752E+00
   0.12000000E+00           0.27595848E+00
   0.13000000E+00           0.29436088E+00
   0.14000000E+00           0.30960405E+00
   0.15000000E+00           0.32573348E+00
   0.16000000E+00           0.33905454E+00
   0.17000000E+00           0.35234922E+00
   0.18000000E+00           0.36431904E+00
   0.19000000E+00           0.37408339E+00
   0.20000000E+00           0.38373339E+00
   0.21000000E+00           0.39202237E+00
   0.22000000E+00           0.40032234E+00
   0.23000000E+00           0.40559893E+00
   0.24000000E+00           0.41044661E+00
   0.25000000E+00           0.41511632E+00
   0.26000000E+00           0.41737043E+00
   0.27000000E+00           0.42216788E+00
   0.28000000E+00           0.42236756E+00
   0.29000000E+00           0.42442402E+00
   0.30000000E+00           0.42555605E+00
   0.31000000E+00           0.42437471E+00
   0.32000000E+00           0.42518802E+00
   0.33000000E+00           0.42385781E+00
   0.34000000E+00           0.42340503E+00
   0.35000000E+00           0.42208657E+00
   0.36000000E+00           0.41992954E+00
   0.37000000E+00           0.41831907E+00
   0.38000000E+00           0.41703189E+00
   0.39000000E+00           0.41448712E+00
   0.40000000E+00           0.41136777E+00
   0.41000000E+00           0.40880975E+00
   0.42000000E+00           0.40715220E+00
   0.43000000E+00           0.40572920E+00
   0.44000000E+00           0.40287789E+00
   0.45000000E+00           0.40081516E+00
   0.46000000E+00           0.39892841E+00
   0.47000000E+00           0.39663464E+00
   0.48000000E+00           0.39340946E+00
   0.49000000E+00           0.39163232E+00
   0.50000000E+00           0.39014604E+00
   0.51000000E+00           0.38914925E+00
   0.52000000E+00           0.38698576E+00
   0.53000000E+00           0.38612697E+00
   0.54000000E+00           0.38358446E+00
   0.55000000E+00           0.38214297E+00
   0.56000000E+00           0.38090978E+00
   0.57000000E+00           0.37952080E+00
   0.58000000E+00           0.37839815E+00
   0.59000000E+00           0.37720023E+00
   0.60000000E+00           0.37547922E+00
   0.61000000E+00           0.37561782E+00
   0.62000000E+00           0.37469884E+00
   0.63000000E+00           0.37406580E+00
   0.64000000E+00           0.37213223E+00
   0.65000000E+00           0.37226076E+00
   0.66000000E+00           0.37167636E+00
   0.67000000E+00           0.37138247E+00
   0.68000000E+00           0.37105972E+00
   0.69000000E+00           0.37064543E+00
   0.70000000E+00           0.36948435E+00
   0.71000000E+00           0.37007622E+00
   0.72000000E+00           0.36996681E+00
   0.73000000E+00           0.36943576E+00
   0.74000000E+00           0.37007225E+00
   0.75000000E+00           0.37072135E+00
   0.76000000E+00           0.36951386E+00
   0.77000000E+00           0.36993024E+00
   0.78000000E+00           0.37103252E+00
   0.79000000E+00           0.36968623E+00
   0.80000000E+00           0.36981970E+00
   0.81000000E+00           0.37141409E+00
   0.82000000E+00           0.37134606E+00
   0.83000000E+00           0.37174861E+00
   0.84000000E+00           0.37272352E+00
   0.85000000E+00           0.37371655E+00
   0.86000000E+00           0.37371840E+00
   0.87000000E+00           0.37477957E+00
   0.88000000E+00           0.37633070E+00
   0.89000000E+00           0.37620541E+00
   0.90000000E+00           0.37761053E+00
   0.91000000E+00           0.37791094E+00
   0.92000000E+00           0.37958579E+00
   0.93000000E+00           0.37959135E+00
   0.94000000E+00           0.38177164E+00
   0.95000000E+00           0.38314740E+00
   0.96000000E+00           0.38524887E+00
   0.97000000E+00           0.38587480E+00
   0.98000000E+00           0.38681244E+00
   0.99000000E+00           0.38843368E+00
   0.10000000E+01           0.39045061E+00
   0.10100000E+01           0.39284210E+00
   0.10200000E+01           0.39369326E+00
   0.10300000E+01           0.39521829E+00
   0.10400000E+01           0.39685741E+00
   0.10500000E+01           0.39961988E+00
   0.10600000E+01           0.40093631E+00
   0.10700000E+01           0.40267549E+00
   0.10800000E+01           0.40508157E+00
   0.10900000E+01           0.40780616E+00
   0.11000000E+01           0.40910443E+00
   0.11100000E+01           0.41155069E+00
   0.11200000E+01           0.41261953E+00
   0.11300000E+01           0.41497760E+00
   0.11400000E+01           0.41820596E+00
   0.11500000E+01           0.42035917E+00
   0.11600000E+01           0.42195729E+00
   0.11700000E+01           0.42507520E+00
   0.11800000E+01           0.42779456E+00
   0.11900000E+01           0.43080859E+00
   0.12000000E+01           0.43305715E+00
   0.12100000E+01           0.43449326E+00
   0.12200000E+01           0.43701528E+00
   0.12300000E+01           0.43975955E+00
   0.12400000E+01           0.44257425E+00
   0.12500000E+01           0.44463015E+00
   0.12600000E+01           0.44784256E+00
   0.12700000E+01           0.44880906E+00
   0.12800000E+01           0.45042274E+00
   0.12900000E+01           0.45489184E+00
   0.13000000E+01           0.45600205E+00
   0.13100000E+01           0.45893203E+00
   0.13200000E+01           0.46129239E+00
   0.13300000E+01           0.46299308E+00
   0.13400000E+01           0.46590234E+00
   0.13500000E+01           0.46823244E+00
   0.13600000E+01           0.46943906E+00
   0.13700000E+01           0.47151128E+00
   0.13800000E+01           0.47354196E+00
   0.13900000E+01           0.47529797E+00
   0.14000000E+01           0.47662378E+00
   0.14100000E+01           0.47819922E+00
   0.14200000E+01           0.48112844E+00
   0.14300000E+01           0.48344285E+00
   0.14400000E+01           0.48573313E+00
   0.14500000E+01           0.48824818E+00
   0.14600000E+01           0.49013869E+00
   0.14700000E+01           0.49277931E+00
   0.14800000E+01           0.49463365E+00
   0.14900000E+01           0.49646247E+00
   0.15000000E+01           0.49940281E+00
   0.15100000E+01           0.50211424E+00
   0.15200000E+01           0.50412833E+00
   0.15300000E+01           0.50656001E+00
   0.15400000E+01           0.50984190E+00
   0.15500000E+01           0.51305599E+00
   0.15600000E+01           0.51664653E+00
   0.15700000E+01           0.51964624E+00
   0.15800000E+01           0.52417922E+00
   0.15900000E+01           0.52731383E+00
   0.16000000E+01           0.53246829E+00
   0.16100000E+01           0.53551846E+00
   0.16200000E+01           0.54078808E+00
   0.16300000E+01           0.54679369E+00
   0.16400000E+01           0.55126331E+00
   0.16500000E+01           0.55813093E+00
   0.16600000E+01           0.56360761E+00
   0.16700000E+01           0.56993675E+00
   0.16800000E+01           0.57690590E+00
   0.16900000E+01           0.58400014E+00
   0.17000000E+01           0.59286881E+00
   0.17100000E+01           0.59933171E+00
   0.17200000E+01           0.60657963E+00
   0.17300000E+01           0.61708472E+00
   0.17400000E+01           0.62640842E+00
   0.17500000E+01           0.63646528E+00
   0.17600000E+01           0.64780388E+00
   0.17700000E+01           0.65915570E+00
   0.17800000E+01           0.67013727E+00
   0.17900000E+01           0.68205744E+00
   0.18000000E+01           0.69771632E+00
   0.18100000E+01           0.71221947E+00
   0.18200000E+01           0.72765408E+00
   0.18300000E+01           0.74622740E+00
   0.18400000E+01           0.76521496E+00
   0.18500000E+01           0.78749936E+00
   0.18600000E+01           0.81138585E+00
   0.18700000E+01           0.83996351E+00
   0.18800000E+01           0.87340217E+00
   0.18900000E+01           0.91109010E+00
   0.19000000E+01           0.95515747E+00
   0.19100000E+01           0.10097917E+01
   0.19200000E+01           0.10764243E+01
   0.19300000E+01           0.11612130E+01
   0.19400000E+01           0.12712139E+01
   0.19500000E+01           0.14192133E+01
   0.19600000E+01           0.16192945E+01
   0.19700000E+01           0.19068386E+01
   0.19800000E+01           0.23314432E+01
   0.19900000E+01           0.29779275E+01
   0.20000000E+01           0.18361269E+01
 #T=     1.5000
  -0.20000000E+01           0.00000000E+00
  -0.19900000E+01           0.00000000E+00
  -0.19800000E+01           0.00000000E+00
  -0.19700000E+01           0.00000000E+00
  -0.19600000E+01           0.00000000E+00
  -0.19500000E+01           0.00000000E+00
  -0.19400000E+01           0.00000000E+00
  -0.19300000E+01           0.00000000E+00
  -0.19200000E+01           0.00000000E+00
  -0.19100000E+01           0.00000000E+00
  -0.19000000E+01           0.00000000E+00
  -0.18900000E+01           0.00000000E+00
  -0.18800000E+01           0.00000000E+00
  -0.18700000E+01           0.00000000E+00
  -0.18600000E+01           0.00000000E+00
  -0.18500000E+01           0.00000000E+00
  -0.18400000E+01           0.00000000E+00
  -0.18300000E+01           0.00000000E+00
  -0.18200000E+01           0.00000000E+00
  -0.18100000E+01           0.00000000E+00
  -0.18000000E+01           0.00000000E+00
  -0.17900000E+01           0.00000000E+00
  -0.17800000E+01           0.00000000E+00
  -0.17700000E+01           0.00000000E+00
  -0.17600000E+01           0.00000000E+00
  -0.17500000E+01           0.00000000E+00
  -0.17400000E+01           0.00000000E+00
  -0.17300000E+01           0.00000000E+00
  -0.17200000E+01           0.00000000E+00
  -0.17100000E+01           0.00000000E+00
  -0.17000000E+01           0.00000000E+00
  -0.16900000E+01           0.00000000E+00
  -0.16800000E+01           0.00000000E+00
  -0.16700000E+01           0.00000000E+00
  -0.16600000E+01           0.00000000E+00
  -0.16500000E+01           0.00000000E+00
  -0.16400000E+01           0.00000000E+00
  -0.16300000E+01           0.00000000E+00
  -0.16200000E+01           0.00000000E+00
  -0.16100000E+01           0.00000000E+00
  -0.16000000E+01           0.00000000E+00
  -0.15900000E+01           0.00000000E+00
  -0.15800000E+01           0.00000000E+00
  -0.15700000E+01           0.00000000E+00
  -0.15600000E+01           0.00000000E+00
  -0.15500000E+01           0.00000000E+00
  -0.15400000E+01           0.00000000E+00
  -0.15300000E+01           0.00000000E+00
  -0.15200000E+01           0.00000000E+00
  -0.15100000E+01           0.00000000E+00
  -0.15000000E+01           0.00000000E+00
  -0.14900000E+01           0.00000000E+00
  -0.14800000E+01           0.00000000E+00
  -0.14700000E+01           0.00000000E+00
  -0.14600000E+01           0.00000000E+00
  -0.14500000E+01           0.00000000E+00
  -0.14400000E+01           0.00000000E+00
  -0.14300000E+01           0.00000000E+00
  -0.14200000E+01           0.00000000E+00
  -0.14100000E+01           0.00000000E+00
  -0.14000000E+01           0.00000000E+00
  -0.13900000E+01           0.00000000E+00
  -0.13800000E+01           0.00000000E+00
  -0.13700000E+01           0.00000000E+00
  -0.13600000E+01           0.00000000E+00
  -0.13500000E+01           0.00000000E+00
  -0.13400000E+01           0.00000000E+00
  -0.13300000E+01           0.00000000E+00
  -0.13200000E+01           0.00000000E+00
  -0.13100000E+01           0.00000000E+00
  -0.13000000E+01           0.00000000E+00
  -0.12900000E+01           0.00000000E+00
  -0.12800000E+01           0.00000000E+00
  -0.12700000E+01           0.00000000E+00
  -0.12600000E+01           0.00000000E+00
  -0.12500000E+01           0.00000000E+00
  -0.12400000E+01           0.00000000E+00
  -0.12300000E+01           0.00000000E+00
  -0.12200000E+01           0.00000000E+00
  -0.12100000E+01           0.00000000E+00
  -0.12000000E+01           0.00000000E+00
  -0.11900000E+01           0.00000000E+00
  -0.11800000E+01           0.00000000E+00
  -0.11700000E+01           0.00000000E+00
  -0.11600000E+01           0.00000000E+00
  -0.11500000E+01           0.00000000E+00
  -0.11400000E+01           0.00000000E+00
  -0.11300000E+01           0.00000000E+00
  -0.11200000E+01           0.00000000E+00
  -0.11100000E+01           0.00000000E+00
  -0.11000000E+01           0.00000000E+00
  -0.10900000E+01           0.00000000E+00
  -0.10800000E+01           0.00000000E+00
  -0.10700000E+01           0.00000000E+00
  -0.10600000E+01           0.00000000E+00
  -0.10500000E+01           0.00000000E+00
  -0.10400000E+01           0.00000000E+00
  -0.10300000E+01           0.00000000E+00
  -0.10200000E+01           0.00000000E+00
  -0.10100000E+01           0.00000000E+00
  -0.10000000E+01           0.00000000E+00
  -0.99000000E+00           0.00000000E+00
  -0.98000000E+00           0.00000000E+00
  -0.97000000E+00           0.00000000E+00
  -0.96000000E+00           0.00000000E+00
  -0.95000000E+00           0.00000000E+00
  -0.94000000E+00           0.00000000E+00
  -0.93000000E+00           0.00000000E+00
  -0.92000000E+00           0.00000000E+00
  -0.91000000E+00           0.00000000E+00
  -0.90000000E+00           0.00000000E+00
  -0.89000000E+00           0.00000000E+00
  -0.88000000E+00           0.00000000E+00
  -0.87000000E+00           0.00000000E+00
  -0.86000000E+00           0.00000000E+00
  -0.85000000E+00           0.00000000E+00
  -0.84000000E+00           0.00000000E+00
  -0.83000000E+00           0.00000000E+00
  -0.82000000E+00           0.00000000E+00
  -0.81000000E+00           0.00000000E+00
  -0.80000000E+00           0.00000000E+00
  -0.79000000E+00           0.00000000E+00
  -0.78000000E+00           0.00000000E+00
  -0.77000000E+00           0.00000000E+00
  -0.76000000E+00           0.00000000E+00
  -0.75000000E+00           0.00000000E+00
  -0.74000000E+00           0.00000000E+00
  -0.73000000E+00           0.00000000E+00
  -0.72000000E+00           0.00000000E+00
  -0.71000000E+00           0.00000000E+00
  -0.70000000E+00           0.00000000E+00
  -0.69000000E+00           0.00000000E+00
  -0.68000000E+00           0.00000000E+00
  -0.67000000E+00           0.00000000E+00
  -0.66000000E+00           0.00000000E+00
  -0.65000000E+00           0.00000000E+00
  -0.64000000E+00           0.00000000E+00
  -0.63000000E+00           0.00000000E+00
  -0.62000000E+00           0.00000000E+00
  -0.61000000E+00           0.00000000E+00
  -0.60000000E+00           0.00000000E+00
  -0.59000000E+00           0.00000000E+00
  -0.58000000E+00           0.00000000E+00
  -0.57000000E+00           0.00000000E+00
  -0.56000000E+00           0.00000000E+00
  -0.55000000E+00           0.00000000E+00
  -0.54000000E+00           0.00000000E+00
  -0.53000000E+00           0.00000000E+00
  -0.52000000E+00           0.00000000E+00
  -0.51000000E+00           0.00000000E+00
  -0.50000000E+00           0.00000000E+00
  -0.49000000E+00           0.00000000E+00
  -0.48000000E+00           0.00000000E+00
  -0.47000000E+00           0.00000000E+00
  -0.46000000E+00           0.00000000E+00
  -0.45000000E+00           0.00000000E+00
  -0.44000000E+00           0.00000000E+00
  -0.43000000E+00           0.00000000E+00
  -0.42000000E+00           0.00000000E+00
  -0.41000000E+00           0.00000000E+00
  -0.40000000E+00           0.00000000E+00
  -0.39000000E+00           0.00000000E+00
  -0.38000000E+00           0.00000000E+00
  -0.37000000E+00           0.00000000E+00
  -0.36000000E+00           0.00000000E+00
  -0.35000000E+00           0.00000000E+00
  -0.34000000E+00           0.00000000E+00
  -0.33000000E+00           0.00000000E+00
  -0.32000000E+00           0.00000000E+00
  -0.31000000E+00           0.00000000E+00
  -0.30000000E+00           0.00000000E+00
  -0.29000000E+00           0.00000000E+00
  -0.28000000E+00           0.00000000E+00
  -0.27000000E+00           0.00000000E+00
  -0.26000000E+00           0.00000000E+00
  -0.25000000E+00           0.00000000E+00
  -0.24000000E+00           0.00000000E+00
  -0.23000000E+00           0.00000000E+00
  -0.22000000E+00           0.00000000E+00
  -0.21000000E+00           0.00000000E+00
  -0.20000000E+00           0.00000000E+00
  -0.19000000E+00           0.00000000E+00
  -0.18000000E+00           0.00000000E+00
  -0.17000000E+00           0.00000000E+00
  -0.16000000E+00           0.00000000E+00
  -0.15000000E+00           0.00000000E+00
  -0.14000000E+00           0.00000000E+00
  -0.13000000E+00           0.00000000E+00
  -0.12000000E+00           0.00000000E+00
  -0.11000000E+00           0.00000000E+00
  -0.10000000E+00           0.00000000E+00
  -0.90000000E-01           0.00000000E+00
  -0.80000000E-01           0.00000000E+00
  -0.70000000E-01           0.00000000E+00
  -0.60000000E-01           0.00000000E+00
  -0.50000000E-01           0.00000000E+00
  -0.40000000E-01           0.00000000E+00
  -0.30000000E-01           0.00000000E+00
  -0.20000000E-01           0.00000000E+00
  -0.10000000E-01           0.00000000E+00
   0.00000000E+00           0.18594618E-02
   0.10000000E-01           0.15012760E-01
   0.20000000E-01           0.29991233E-01
   0.30000000E-01           0.44976360E-01
   0.40000000E-01           0.59173148E-01
   0.50000000E-01           0.73243576E-01
   0.60000000E-01           0.88041725E-01
   0.70000000E-01           0.10148799E+00
   0.80000000E-01           0.11516852E+00
   0.90000000E-01           0.12925946E+00
   0.10000000E+00           0.14196704E+00
   0.11000000E+00           0.15450865E+00
   0.12000000E+00           0.16657969E+00
   0.13000000E+00           0.17798116E+00
   0.14000000E+00           0.18977954E+00
   0.15000000E+00           0.19977491E+00
   0.16000000E+00           0.21102457E+00
   0.17000000E+00           0.22058056E+00
   0.18000000E+00           0.22884022E+00
   0.19000000E+00           0.23737416E+00
   0.20000000E+00           0.24537549E+00
   0.21000000E+00           0.25269398E+00
   0.22000000E+00           0.25948623E+00
   0.23000000E+00           0.26631137E+00
   0.24000000E+00           0.27174980E+00
   0.25000000E+00           0.27717133E+00
   0.26000000E+00           0.28148296E+00
   0.27000000E+00           0.28615104E+00
   0.28000000E+00           0.29003605E+00
   0.29000000E+00           0.29339112E+00
   0.30000000E+00           0.29612905E+00
   0.31000000E+00           0.29891282E+00
   0.32000000E+00           0.30097943E+00
   0.33000000E+00           0.30328079E+00
   0.34000000E+00           0.30509005E+00
   0.35000000E+00           0.30535579E+00
   0.36000000E+00           0.30676672E+00
   0.37000000E+00           0.30722992E+00
   0.38000000E+00           0.30753200E+00
   0.39000000E+00           0.30731288E+00
   0.40000000E+00           0.30704925E+00
   0.41000000E+00           0.30741400E+00
   0.42000000E+00           0.30602911E+00
   0.43000000E+00           0.30618976E+00
   0.44000000E+00           0.30479873E+00
   0.45000000E+00           0.30477509E+00
   0.46000000E+00           0.30353342E+00
   0.47000000E+00           0.30211907E+00
   0.48000000E+00           0.30092564E+00
   0.49000000E+00           0.30003501E+00
   0.50000000E+00           0.29922306E+00
   0.51000000E+00           0.29729670E+00
   0.52000000E+00           0.29711534E+00
   0.53000000E+00           0.29582488E+00
   0.54000000E+00           0.29472491E+00
   0.55000000E+00           0.29379997E+00
   0.56000000E+00           0.29297216E+00
   0.57000000E+00           0.29104152E+00
   0.58000000E+00           0.29044928E+00
   0.59000000E+00           0.28942269E+00
   0.60000000E+00           0.28739259E+00
   0.61000000E+00           0.28718643E+00
   0.62000000E+00           0.28692862E+00
   0.63000000E+00           0.28558626E+00
   0.64000000E+00           0.28535984E+00
   0.65000000E+00           0.28393478E+00
   0.66000000E+00           0.28380130E+00
   0.67000000E+00           0.28278649E+00
   0.68000000E+00           0.28260367E+00
   0.69000000E+00           0.28247595E+00
   0.70000000E+00           0.28213686E+00
   0.71000000E+00           0.28105437E+00
   0.72000000E+00           0.28175382E+00
   0.73000000E+00           0.28154925E+00
   0.74000000E+00           0.28140718E+00
   0.75000000E+00           0.27984598E+00
   0.76000000E+00           0.28044803E+00
   0.77000000E+00           0.28001615E+00
   0.78000000E+00           0.28098585E+00
   0.79000000E+00           0.28015116E+00
   0.80000000E+00           0.28162251E+00
   0.81000000E+00           0.28046892E+00
   0.82000000E+00           0.28133597E+00
   0.83000000E+00           0.28201652E+00
   0.84000000E+00           0.28217931E+00
   0.85000000E+00           0.28273799E+00
   0.86000000E+00           0.28428814E+00
   0.87000000E+00           0.28376247E+00
   0.88000000E+00           0.28450084E+00
   0.89000000E+00           0.28508345E+00
   0.90000000E+00           0.28615095E+00
   0.91000000E+00           0.28715185E+00
   0.92000000E+00           0.28776377E+00
   0.93000000E+00           0.28810185E+00
   0.94000000E+00           0.28983302E+00
   0.95000000E+00           0.29108932E+00
   0.96000000E+00           0.29191953E+00
   0.97000000E+00           0.29262679E+00
   0.98000000E+00           0.29355883E+00
   0.99000000E+00           0.29526218E+00
   0.10000000E+01           0.29677772E+00
   0.10100000E+01           0.29720370E+00
   0.10200000E+01           0.29963302E+00
   0.10300000E+01           0.30104227E+00
   0.10400000E+01           0.30298837E+00
   0.10500000E+01           0.30460379E+00
   0.10600000E+01           0.30646997E+00
   0.10700000E+01           0.30799172E+00
   0.10800000E+01           0.30980171E+00
   0.10900000E+01           0.31262127E+00
   0.11000000E+01           0.31364653E+00
   0.11100000E+01           0.31556756E+00
   0.11200000E+01           0.31749876E+00
   0.11300000E+01           0.32018209E+00
   0.11400000E+01           0.32298244E+00
   0.11500000E+01           0.32539222E+00
   0.11600000E+01           0.32736698E+00
   0.11700000E+01           0.32955564E+00
   0.11800000E+01           0.33209991E+00
   0.11900000E+01           0.33563151E+00
   0.12000000E+01           0.33812905E+00
   0.12100000E+01           0.34135903E+00
   0.12200000E+01           0.34395897E+00
   0.12300000E+01           0.34698903E+00
   0.12400000E+01           0.35020802E+00
   0.12500000E+01           0.35361487E+00
   0.12600000E+01           0.35656562E+00
   0.12700000E+01           0.35953709E+00
   0.12800000E+01           0.36401753E+00
   0.12900000E+01           0.36786461E+00
   0.13000000E+01           0.37170014E+00
   0.13100000E+01           0.37586137E+00
   0.13200000E+01           0.37968426E+00
   0.13300000E+01           0.38400307E+00
   0.13400000E+01           0.38815055E+00
   0.13500000E+01           0.39293475E+00
   0.13600000E+01           0.39827948E+00
   0.13700000E+01           0.40196852E+00
   0.13800000E+01           0.40734563E+00
   0.13900000E+01           0.41236832E+00
   0.14000000E+01           0.41705231E+00
   0.14100000E+01           0.42247063E+00
   0.14200000E+01           0.42805466E+00
   0.14300000E+01           0.43423481E+00
   0.14400000E+01           0.43972185E+00
   0.14500000E+01           0.44517841E+00
   0.14600000E+01           0.45182468E+00
   0.14700000E+01           0.45774554E+00
   0.14800000E+01           0.46466887E+00
   0.14900000E+01           0.47131536E+00
   0.15000000E+01           0.47853035E+00
   0.15100000E+01           0.48501395E+00
   0.15200000E+01           0.49275454E+00
   0.15300000E+01           0.50092066E+00
   0.15400000E+01           0.50826050E+00
   0.15500000E+01           0.51651001E+00
   0.15600000E+01           0.52482245E+00
   0.15700000E+01           0.53466771E+00
   0.15800000E+01           0.54344740E+00
   0.15900000E+01           0.55273302E+00
   0.16000000E+01           0.56275072E+00
   0.16100000E+01           0.57157072E+00
   0.16200000E+01           0.58327986E+00
   0.16300000E+01           0.59508767E+00
   0.16400000E+01           0.60494097E+00
   0.16500000E+01           0.61833689E+00
   0.16600000E+01           0.63043909E+00
   0.16700000E+01           0.64367326E+00
   0.16800000E+01           0.65598938E+00
   0.16900000E+01           0.67195515E+00
   0.17000000E+01           0.68783142E+00
   0.17100000E+01           0.70358953E+00
   0.17200000E+01           0.72024120E+00
   0.17300000E+01           0.73868142E+00
   0.17400000E+01           0.75738495E+00
   0.17500000E+01           0.77748166E+00
   0.17600000E+01           0.79814054E+00
   0.17700000E+01           0.82206696E+00
   0.17800000E+01           0.84727370E+00
   0.17900000E+01           0.87235069E+00
   0.18000000E+01           0.90295619E+00
   0.18100000E+01           0.93389823E+00
   0.18200000E+01           0.96902402E+00
   0.18300000E+01           0.10052845E+01
   0.18400000E+01           0.10467377E+01
   0.18500000E+01           0.10922831E+01
   0.18600000E+01           0.11455356E+01
   0.18700000E+01           0.12027352E+01
   0.18800000E+01           0.12698227E+01
   0.18900000E+01           0.13470395E+01
   0.19000000E+01           0.14369633E+01
   0.19100000E+01           0.15414355E+01
   0.19200000E+01           0.16668547E+01
   0.19300000E+01           0.18224067E+01
   0.19400000E+01           0.20107373E+01
   0.19500000E+01           0.22505703E+01
   0.19600000E+01           0.25517048E+01
   0.19700000E+01           0.29435808E+01
   0.19800000E+01           0.34534361E+01
   0.19900000E+01           0.41394576E+01
   0.20000000E+01           0.23982837E+01
 #T=     2.0000
  -0.20000000E+01           0.00000000E+00
  -0.19900000E+01           0.00000000E+00
  -0.19800000E+01           0.00000000E+00
  -0.19700000E+01           0.00000000E+00
  -0.19600000E+01           0.00000000E+00
  -0.19500000E+01           0.00000000E+00
  -0.19400000E+01           0.00000000E+00
  -0.19300000E+01           0.00000000E+00
  -0.19200000E+01           0.00000000E+00
  -0.19100000E+01           0.00000000E+00
  -0.19000000E+01           0.00000000E+00
  -0.18900000E+01           0.00000000E+00
  -0.18800000E+01           0.00000000E+00
  -0.18700000E+01           0.00000000E+00
  -0.18600000E+01           0.00000000E+00
  -0.18500000E+01           0.00000000E+00
  -0.18400000E+01           0.00000000E+00
  -0.18300000E+01           0.00000000E+00
  -0.18200000E+01           0.00000000E+00
  -0.18100000E+01           0.00000000E+00
  -0.18000000E+01           0.00000000E+00
  -0.17900000E+01           0.00000000E+00
  -0.17800000E+01           0.00000000E+00
  -0.17700000E+01           0.00000000E+00
  -0.17600000E+01           0.00000000E+00
  -0.17500000E+01           0.00000000E+00
  -0.17400000E+01           0.00000000E+00
  -0.17300000E+01           0.00000000E+00
  -0.17200000E+01           0.00000000E+00
  -0.17100000E+01           0.00000000E+00
  -0.17000000E+01           0.00000000E+00
  -0.16900000E+01           0.00000000E+00
  -0.16800000E+01           0.00000000E+00
  -0.16700000E+01           0.00000000E+00
  -0.16600000E+01           0.00000000E+00
  -0.16500000E+01           0.00000000E+00
  -0.16400000E+01           0.00000000E+00
  -0.16300000E+01           0.00000000E+00
  -0.16200000E+01           0.00000000E+00
  -0.16100000E+01           0.00000000E+00
  -0.16000000E+01           0.00000000E+00
  -0.15900000E+01           0.00000000E+00
  -0.15800000E+01           0.00000000E+00
  -0.15700000E+01           0.00000000E+00
  -0.15600000E+01           0.00000000E+00
  -0.15500000E+01           0.00000000E+00
  -0.15400000E+01           0.00000000E+00
  -0.15300000E+01           0.00000000E+00
  -0.15200000E+01           0.00000000E+00
  -0.15100000E+01           0.00000000E+00
  -0.15000000E+01           0.00000000E+00
  -0.14900000E+01           0.00000000E+00
  -0.14800000E+01           0.00000000E+00
  -0.14700000E+01           0.00000000E+00
  -0.14600000E+01           0.00000000E+00
  -0.14500000E+01           0.00000000E+00
  -0.14400000E+01           0.00000000E+00
  -0.14300000E+01           0.00000000E+00
  -0.14200000E+01           0.00000000E+00
  -0.14100000E+01           0.00000000E+00
  -0.14000000E+01           0.00000000E+00
  -0.13900000E+01           0.00000000E+00
  -0.13800000E+01           0.00000000E+00
  -0.13700000E+01           0.00000000E+00
  -0.13600000E+01           0.00000000E+00
  -0.13500000E+01           0.00000000E+00
  -0.13400000E+01           0.00000000E+00
  -0.13300000E+01           0.00000000E+00
  -0.13200000E+01           0.00000000E+00
  -0.13100000E+01           0.00000000E+00
  -0.13000000E+01           0.00000000E+00
  -0.12900000E+01           0.00000000E+00
  -0.12800000E+01           0.00000000E+00
  -0.12700000E+01           0.00000000E+00
  -0.12600000E+01           0.00000000E+00
  -0.12500000E+01           0.00000000E+00
  -0.12400000E+01           0.00000000E+00
  -0.12300000E+01           0.00000000E+00
  -0.12200000E+01           0.00000000E+00
  -0.12100000E+01           0.00000000E+00
  -0.12000000E+01           0.00000000E+00
  -0.11900000E+01           0.00000000E+00
  -0.11800000E+01           0.00000000E+00
  -0.11700000E+01           0.00000000E+00
  -0.11600000E+01           0.00000000E+00
  -0.11500000E+01           0.00000000E+00
  -0.11400000E+01           0.00000000E+00
  -0.11300000E+01           0.00000000E+00
  -0.11200000E+01           0.00000000E+00
  -0.11100000E+01           0.00000000E+00
  -0.11000000E+01           0.00000000E+00
  -0.10900000E+01           0.00000000E+00
  -0.10800000E+01           0.00000000E+00
  -0.10700000E+01           0.00000000E+00
  -0.10600000E+01           0.00000000E+00
  -0.10500000E+01           0.00000000E+00
  -0.10400000E+01           0.00000000E+00
  -0.10300000E+01           0.00000000E+00
  -0.10200000E+01           0.00000000E+00
  -0.10100000E+01           0.00000000E+00
  -0.10000000E+01           0.00000000E+00
  -0.99000000E+00           0.00000000E+00
  -0.98000000E+00           0.00000000E+00
  -0.97000000E+00           0.00000000E+00
  -0.96000000E+00           0.00000000E+00
  -0.95000000E+00           0.00000000E+00
  -0.94000000E+00           0.00000000E+00
  -0.93000000E+00           0.00000000E+00
  -0.92000000E+00           0.00000000E+00
  -0.91000000E+00           0.00000000E+00
  -0.90000000E+00           0.00000000E+00
  -0.89000000E+00           0.00000000E+00
  -0.88000000E+00           0.00000000E+00
  -0.87000000E+00           0.00000000E+00
  -0.86000000E+00           0.00000000E+00
  -0.85000000E+00           0.00000000E+00
  -0.84000000E+00           0.00000000E+00
  -0.83000000E+00           0.00000000E+00
  -0.82000000E+00           0.00000000E+00
  -0.81000000E+00           0.00000000E+00
  -0.80000000E+00           0.00000000E+00
  -0.79000000E+00           0.00000000E+00
  -0.78000000E+00           0.00000000E+00
  -0.77000000E+00           0.00000000E+00
  -0.76000000E+00           0.00000000E+00
  -0.75000000E+00           0.00000000E+00
  -0.74000000E+00           0.00000000E+00
  -0.73000000E+00           0.00000000E+00
  -0.72000000E+00           0.00000000E+00
  -0.71000000E+00           0.00000000E+00
  -0.70000000E+00           0.00000000E+00
  -0.69000000E+00           0.00000000E+00
  -0.68000000E+00           0.00000000E+00
  -0.67000000E+00           0.00000000E+00
  -0.66000000E+00           0.00000000E+00
  -0.65000000E+00           0.00000000E+00
  -0.64000000E+00           0.00000000E+00
  -0.63000000E+00           0.00000000E+00
  -0.62000000E+00           0.00000000E+00
  -0.61000000E+00           0.00000000E+00
  -0.60000000E+00           0.00000000E+00
  -0.59000000E+00           0.00000000E+00
  -0.58000000E+00           0.00000000E+00
  -0.57000000E+00           0.00000000E+00
  -0.56000000E+00           0.00000000E+00
  -0.55000000E+00           0.00000000E+00
  -0.54000000E+00           0.00000000E+00
  -0.53000000E+00           0.00000000E+00
  -0.52000000E+00           0.00000000E+00
  -0.51000000E+00           0.00000000E+00
  -0.50000000E+00           0.00000000E+00
  -0.49000000E+00           0.00000000E+00
  -0.48000000E+00           0.00000000E+00
  -0.47000000E+00           0.00000000E+00
  -0.46000000E+00           0.00000000E+00
  -0.45000000E+00           0.00000000E+00
  -0.44000000E+00           0.00000000E+00
  -0.43000000E+00           0.00000000E+00
  -0.42000000E+00           0.00000000E+00
  -0.41000000E+00           0.00000000E+00
  -0.40000000E+00           0.00000000E+00
  -0.39000000E+00           0.00000000E+00
  -0.38000000E+00           0.00000000E+00
  -0.37000000E+00           0.00000000E+00
  -0.36000000E+00           0.00000000E+00
  -0.35000000E+00           0.00000000E+00
  -0.34000000E+00           0.00000000E+00
  -0.33000000E+00           0.00000000E+00
  -0.32000000E+00           0.00000000E+00
  -0.31000000E+00           0.00000000E+00
  -0.30000000E+00           0.00000000E+00
  -0.29000000E+00           0.00000000E+00
  -0.28000000E+00           0.00000000E+00
  -0.27000000E+00           0.00000000E+00
  -0.26000000E+00           0.00000000E+00
  -0.25000000E+00           0.00000000E+00
  -0.24000000E+00           0.00000000E+00
  -0.23000000E+00           0.00000000E+00
  -0.22000000E+00           0.00000000E+00
  -0.21000000E+00           0.00000000E+00
  -0.20000000E+00           0.00000000E+00
  -0.19000000E+00           0.00000000E+00
  -0.18000000E+00           0.00000000E+00
  -0.17000000E+00           0.00000000E+00
  -0.16000000E+00           0.00000000E+00
  -0.15000000E+00           0.00000000E+00
  -0.14000000E+00           0.00000000E+00
  -0.13000000E+00           0.00000000E+00
  -0.12000000E+00           0.00000000E+00
  -0.11000000E+00           0.00000000E+00
  -0.10000000E+00           0.00000000E+00
  -0.90000000E-01           0.00000000E+00
  -0.80000000E-01           0.00000000E+00
  -0.70000000E-01           0.00000000E+00
  -0.60000000E-01           0.00000000E+00
  -0.50000000E-01           0.00000000E+00
  -0.40000000E-01           0.00000000E+00
  -0.30000000E-01           0.00000000E+00
  -0.20000000E-01           0.00000000E+00
  -0.10000000E-01           0.00000000E+00
   0.00000000E+00           0.19101852E-02
   0.10000000E-01           0.15227691E-01
   0.20000000E-01           0.30454080E-01
   0.30000000E-01           0.45393027E-01
   0.40000000E-01           0.60611227E-01
   0.50000000E-01           0.75349190E-01
   0.60000000E-01           0.90349769E-01
   0.70000000E-01           0.10495648E+00
   0.80000000E-01           0.11934873E+00
   0.90000000E-01           0.13327454E+00
   0.10000000E+00           0.14736672E+00
   0.11000000E+00           0.16031418E+00
   0.12000000E+00           0.17401374E+00
   0.13000000E+00           0.18685084E+00
   0.14000000E+00           0.19830923E+00
   0.15000000E+00           0.21072486E+00
   0.16000000E+00           0.22181736E+00
   0.17000000E+00           0.23410446E+00
   0.18000000E+00           0.24398348E+00
   0.19000000E+00           0.25521895E+00
   0.20000000E+00           0.26467830E+00
   0.21000000E+00           0.27331354E+00
   0.22000000E+00           0.28253461E+00
   0.23000000E+00           0.29102115E+00
   0.24000000E+00           0.29893192E+00
   0.25000000E+00           0.30700391E+00
   0.26000000E+00           0.31289499E+00
   0.27000000E+00           0.32011282E+00
   0.28000000E+00           0.32595049E+00
   0.29000000E+00           0.33122986E+00
   0.30000000E+00           0.33658484E+00
   0.31000000E+00           0.34212905E+00
   0.32000000E+00           0.34556450E+00
   0.33000000E+00           0.35032144E+00
   0.34000000E+00           0.35393322E+00
   0.35000000E+00           0.35646785E+00
   0.36000000E+00           0.36037804E+00
   0.37000000E+00           0.36208573E+00
   0.38000000E+00           0.36373953E+00
   0.39000000E+00           0.36632943E+00
   0.40000000E+00           0.36895851E+00
   0.41000000E+00           0.36980428E+00
   0.42000000E+00           0.37121629E+00
   0.43000000E+00           0.37193492E+00
   0.44000000E+00           0.37284589E+00
   0.45000000E+00           0.37310266E+00
   0.46000000E+00           0.37334933E+00
   0.47000000E+00           0.37426623E+00
   0.48000000E+00           0.37432457E+00
   0.49000000E+00           0.37385379E+00
   0.50000000E+00           0.37382622E+00
   0.51000000E+00           0.37331311E+00
   0.52000000E+00           0.37348770E+00
   0.53000000E+00           0.37320503E+00
   0.54000000E+00           0.37299679E+00
   0.55000000E+00           0.37180012E+00
   0.56000000E+00           0.37159164E+00
   0.57000000E+00           0.37064653E+00
   0.58000000E+00           0.37022465E+00
   0.59000000E+00           0.37027451E+00
   0.60000000E+00           0.36936690E+00
   0.61000000E+00           0.36959285E+00
   0.62000000E+00           0.36870810E+00
   0.63000000E+00           0.36848359E+00
   0.64000000E+00           0.36796855E+00
   0.65000000E+00           0.36686904E+00
   0.66000000E+00           0.36703325E+00
   0.67000000E+00           0.36634780E+00
   0.68000000E+00           0.36577700E+00
   0.69000000E+00           0.36577813E+00
   0.70000000E+00           0.36535084E+00
   0.71000000E+00           0.36551308E+00
   0.72000000E+00           0.36470255E+00
   0.73000000E+00           0.36529922E+00
   0.74000000E+00           0.36445891E+00
   0.75000000E+00           0.36508391E+00
   0.76000000E+00           0.36566580E+00
   0.77000000E+00           0.36526887E+00
   0.78000000E+00           0.36579850E+00
   0.79000000E+00           0.36626785E+00
   0.80000000E+00           0.36612023E+00
   0.81000000E+00           0.36641976E+00
   0.82000000E+00           0.36696305E+00
   0.83000000E+00           0.36767859E+00
   0.84000000E+00           0.36785584E+00
   0.85000000E+00           0.36833762E+00
   0.86000000E+00           0.36921389E+00
   0.87000000E+00           0.36986435E+00
   0.88000000E+00           0.37119280E+00
   0.89000000E+00           0.37136470E+00
   0.90000000E+00           0.37159100E+00
   0.91000000E+00           0.37360642E+00
   0.92000000E+00           0.37413383E+00
   0.93000000E+00           0.37515333E+00
   0.94000000E+00           0.37685911E+00
   0.95000000E+00           0.37786568E+00
   0.96000000E+00           0.37869187E+00
   0.97000000E+00           0.37909633E+00
   0.98000000E+00           0.38068342E+00
   0.99000000E+00           0.38210943E+00
   0.10000000E+01           0.38278498E+00
   0.10100000E+01           0.38454201E+00
   0.10200000E+01           0.38554077E+00
   0.10300000E+01           0.38758035E+00
   0.10400000E+01           0.38852295E+00
   0.10500000E+01           0.39106363E+00
   0.10600000E+01           0.39172326E+00
   0.10700000E+01           0.39382763E+00
   0.10800000E+01           0.39514714E+00
   0.10900000E+01           0.39683261E+00
   0.11000000E+01           0.39842581E+00
   0.11100000E+01           0.40057199E+00
   0.11200000E+01           0.40200880E+00
   0.11300000E+01           0.40380975E+00
   0.11400000E+01           0.40594578E+00
   0.11500000E+01           0.40805764E+00
   0.11600000E+01           0.40968316E+00
   0.11700000E+01           0.41213168E+00
   0.11800000E+01           0.41313565E+00
   0.11900000E+01           0.41620770E+00
   0.12000000E+01           0.41780550E+00
   0.12100000E+01           0.41966944E+00
   0.12200000E+01           0.42245605E+00
   0.12300000E+01           0.42470813E+00
   0.12400000E+01           0.42689427E+00
   0.12500000E+01           0.42918287E+00
   0.12600000E+01           0.43190781E+00
   0.12700000E+01           0.43414714E+00
   0.12800000E+01           0.43684624E+00
   0.12900000E+01           0.43846719E+00
   0.13000000E+01           0.44225399E+00
   0.13100000E+01           0.44509537E+00
   0.13200000E+01           0.44800851E+00
   0.13300000E+01           0.44894630E+00
   0.13400000E+01           0.45188597E+00
   0.13500000E+01           0.45525026E+00
   0.13600000E+01           0.45915987E+00
   0.13700000E+01           0.46164763E+00
   0.13800000E+01           0.46424942E+00
   0.13900000E+01           0.46758892E+00
   0.14000000E+01           0.46981357E+00
   0.14100000E+01           0.47396936E+00
   0.14200000E+01           0.47654210E+00
   0.14300000E+01           0.48041849E+00
   0.14400000E+01           0.48430530E+00
   0.14500000E+01           0.48797674E+00
   0.14600000E+01           0.49162445E+00
   0.14700000E+01           0.49532031E+00
   0.14800000E+01           0.49824965E+00
   0.14900000E+01           0.50202671E+00
   0.15000000E+01           0.50684456E+00
   0.15100000E+01           0.51158689E+00
   0.15200000E+01           0.51490995E+00
   0.15300000E+01           0.52067448E+00
   0.15400000E+01           0.52516600E+00
   0.15500000E+01           0.53026722E+00
   0.15600000E+01           0.53481036E+00
   0.15700000E+01           0.54008788E+00
   0.15800000E+01           0.54612561E+00
   0.15900000E+01           0.55276829E+00
   0.16000000E+01           0.55747341E+00
   0.16100000E+01           0.56445654E+00
   0.16200000E+01           0.57023947E+00
   0.16300000E+01           0.57763709E+00
   0.16400000E+01           0.58486762E+00
   0.16500000E+01           0.59222763E+00
   0.16600000E+01           0.60078099E+00
   0.16700000E+01           0.60941024E+00
   0.16800000E+01           0.61738206E+00
   0.16900000E+01           0.62753698E+00
   0.17000000E+01           0.63775570E+00
   0.17100000E+01           0.64902280E+00
   0.17200000E+01           0.65955188E+00
   0.17300000E+01           0.67211441E+00
   0.17400000E+01           0.68399731E+00
   0.17500000E+01           0.69885914E+00
   0.17600000E+01           0.71263793E+00
   0.17700000E+01           0.72948209E+00
   0.17800000E+01           0.74629685E+00
   0.17900000E+01           0.76576484E+00
   0.18000000E+01           0.78542135E+00
   0.18100000E+01           0.80790781E+00
   0.18200000E+01           0.83248261E+00
   0.18300000E+01           0.85999806E+00
   0.18400000E+01           0.89050764E+00
   0.18500000E+01           0.92362101E+00
   0.18600000E+01           0.96182413E+00
   0.18700000E+01           0.10047227E+01
   0.18800000E+01           0.10541248E+01
   0.18900000E+01           0.11119451E+01
   0.19000000E+01           0.11763264E+01
   0.19100000E+01           0.12540566E+01
   0.19200000E+01           0.13433770E+01
   0.19300000E+01           0.14513598E+01
   0.19400000E+01           0.15820218E+01
   0.19500000E+01           0.17392652E+01
   0.19600000E+01           0.19290974E+01
   0.19700000E+01           0.21649122E+01
   0.19800000E+01           0.24546565E+01
   0.19900000E+01           0.28190246E+01
   0.20000000E+01           0.15747072E+01
 #T=     2.5000
  -0.20000000E+01           0.00000000E+00
  -0.19900000E+01           0.00000000E+00
  -0.19800000E+01           0.00000000E+00
  -0.19700000E+01           0.00000000E+00
  -0.19600000E+01           0.00000000E+00
  -0.19500000E+01           0.00000000E+00
  -0.19400000E+01           0.00000000E+00
  -0.19300000E+01           0.00000000E+00
  -0.19200000E+01           0.00000000E+00
  -0.19100000E+01           0.00000000E+00
  -0.19000000E+01           0.00000000E+00
  -0.18900000E+01           0.00000000E+00
  -0.18800000E+01           0.00000000E+00
  -0.18700000E+01           0.00000000E+00
  -0.18600000E+01           0.00000000E+00
  -0.18500000E+01           0.00000000E+00
  -0.18400000E+01           0.00000000E+00
  -0.18300000E+01           0.00000000E+00
  -0.18200000E+01           0.00000000E+00
  -0.18100000E+01           0.00000000E+00
  -0.18000000E+01           0.00000000E+00
  -0.17900000E+01           0.00000000E+00
  -0.17800000E+01           0.00000000E+00
  -0.17700000E+01           0.00000000E+00
  -0.17600000E+01           0.00000000E+00
  -0.17500000E+01           0.00000000E+00
  -0.17400000E+01           0.00000000E+00
  -0.17300000E+01           0.00000000E+00
  -0.17200000E+01           0.00000000E+00
  -0.17100000E+01           0.00000000E+00
  -0.17000000E+01           0.00000000E+00
  -0.16900000E+01           0.00000000E+00
  -0.16800000E+01           0.00000000E+00
  -0.16700000E+01           0.00000000E+00
  -0.16600000E+01           0.00000000E+00
  -0.16500000E+01           0.00000000E+00
  -0.16400000E+01           0.00000000E+00
  -0.16300000E+01           0.00000000E+00
  -0.16200000E+01           0.00000000E+00
  -0.16100000E+01           0.00000000E+00
  -0.16000000E+01           0.00000000E+00
  -0.15900000E+01           0.00000000E+00
  -0.15800000E+01           0.00000000E+00
  -0.15700000E+01           0.00000000E+00
  -0.15600000E+01           0.00000000E+00
  -0.15500000E+01           0.00000000E+00
  -0.15400000E+01           0.00000000E+00
  -0.15300000E+01           0.00000000E+00
  -0.15200000E+01           0.00000000E+00
  -0.15100000E+01           0.00000000E+00
  -0.15000000E+01           0.00000000E+00
  -0.14900000E+01           0.00000000E+00
  -0.14800000E+01           0.00000000E+00
  -0.14700000E+01           0.00000000E+00
  -0.14600000E+01           0.00000000E+00
  -0.14500000E+01           0.00000000E+00
  -0.14400000E+01           0.00000000E+00
  -0.14300000E+01           0.00000000E+00
  -0.14200000E+01           0.00000000E+00
  -0.14100000E+01           0.00000000E+00
  -0.14000000E+01           0.00000000E+00
  -0.13900000E+01           0.00000000E+00
  -0.13800000E+01           0.00000000E+00
  -0.13700000E+01           0.00000000E+00
  -0.13600000E+01           0.00000000E+00
  -0.13500000E+01           0.00000000E+00
  -0.13400000E+01           0.00000000E+00
  -0.13300000E+01           0.00000000E+00
  -0.13200000E+01           0.00000000E+00
  -0.13100000E+01           0.00000000E+00
  -0.13000000E+01           0.00000000E+00
  -0.12900000E+01           0.00000000E+00
  -0.12800000E+01           0.00000000E+00
  -0.12700000E+01           0.00000000E+00
  -0.12600000E+01           0.00000000E+00
  -0.12500000E+01           0.00000000E+00
  -0.12400000E+01           0.00000000E+00
  -0.12300000E+01           0.00000000E+00
  -0.12200000E+01           0.00000000E+00
  -0.12100000E+01           0.00000000E+00
  -0.12000000E+01           0.00000000E+00
  -0.11900000E+01           0.00000000E+00
  -0.11800000E+01           0.00000000E+00
  -0.11700000E+01           0.00000000E+00
  -0.11600000E+01           0.00000000E+00
  -0.11500000E+01           0.00000000E+00
  -0.11400000E+01           0.00000000E+00
  -0.11300000E+01           0.00000000E+00
  -0.11200000E+01           0.00000000E+00
  -0.11100000E+01           0.00000000E+00
  -0.11000000E+01           0.00000000E+00
  -0.10900000E+01           0.00000000E+00
  -0.10800000E+01           0.00000000E+00
  -0.10700000E+01           0.00000000E+00
  -0.10600000E+01           0.00000000E+00
  -0.10500000E+01           0.00000000E+00
  -0.10400000E+01           0.00000000E+00
  -0.10300000E+01           0.00000000E+00
  -0.10200000E+01           0.00000000E+00
  -0.10100000E+01           0.00000000E+00
  -0.10000000E+01           0.00000000E+00
  -0.99000000E+00           0.00000000E+00
  -0.98000000E+00           0.00000000E+00
  -0.97000000E+00           0.00000000E+00
  -0.96000000E+00           0.00000000E+00
  -0.95000000E+00           0.00000000E+00
  -0.94000000E+00           0.00000000E+00
  -0.93000000E+00           0.00000000E+00
  -0.92000000E+00           0.00000000E+00
  -0.91000000E+00           0.00000000E+00
  -0.90000000E+00           0.00000000E+00
  -0.89000000E+00           0.00000000E+00
  -0.88000000E+00           0.00000000E+00
  -0.87000000E+00           0.00000000E+00
  -0.86000000E+00           0.00000000E+00
  -0.85000000E+00           0.00000000E+00
  -0.84000000E+00           0.00000000E+00
  -0.83000000E+00           0.00000000E+00
  -0.82000000E+00           0.00000000E+00
  -0.81000000E+00           0.00000000E+00
  -0.80000000E+00           0.00000000E+00
  -0.79000000E+00           0.00000000E+00
  -0.78000000E+00           0.00000000E+00
  -0.77000000E+00           0.00000000E+00
  -0.76000000E+00           0.00000000E+00
  -0.75000000E+00           0.00000000E+00
  -0.74000000E+00           0.00000000E+00
  -0.73000000E+00           0.00000000E+00
  -0.72000000E+00           0.00000000E+00
  -0.71000000E+00           0.00000000E+00
  -0.70000000E+00           0.00000000E+00
  -0.69000000E+00           0.00000000E+00
  -0.68000000E+00           0.00000000E+00
  -0.67000000E+00           0.00000000E+00
  -0.66000000E+00           0.00000000E+00
  -0.65000000E+00           0.00000000E+00
  -0.64000000E+00           0.00000000E+00
  -0.63000000E+00           0.00000000E+00
  -0.62000000E+00           0.00000000E+00
  -0.61000000E+00           0.00000000E+00
  -0.60000000E+00           0.00000000E+00
  -0.59000000E+00           0.00000000E+00
  -0.58000000E+00           0.00000000E+00
  -0.57000000E+00           0.00000000E+00
  -0.56000000E+00           0.00000000E+00
  -0.55000000E+00           0.00000000E+00
  -0.54000000E+00           0.00000000E+00
  -0.53000000E+00           0.00000000E+00
  -0.52000000E+00           0.00000000E+00
  -0.51000000E+00           0.00000000E+00
  -0.50000000E+00           0.00000000E+00
  -0.49000000E+00           0.00000000E+00
  -0.48000000E+00           0.00000000E+00
  -0.47000000E+00           0.00000000E+00
  -0.46000000E+00           0.00000000E+00
  -0.45000000E+00           0.00000000E+00
  -0.44000000E+00           0.00000000E+00
  -0.43000000E+00           0.00000000E+00
  -0.42000000E+00           0.00000000E+00
  -0.41000000E+00           0.00000000E+00
  -0.40000000E+00           0.00000000E+00
  -0.39000000E+00           0.00000000E+00
  -0.38000000E+00           0.00000000E+00
  -0.37000000E+00           0.00000000E+00
  -0.36000000E+00           0.00000000E+00
  -0.35000000E+00           0.00000000E+00
  -0.34000000E+00           0.00000000E+00
  -0.33000000E+00           0.00000000E+00
  -0.32000000E+00           0.00000000E+00
  -0.31000000E+00           0.00000000E+00
  -0.30000000E+00           0.00000000E+00
  -0.29000000E+00           0.00000000E+00
  -0.28000000E+00           0.00000000E+00
  -0.27000000E+00           0.00000000E+00
  -0.26000000E+00           0.00000000E+00
  -0.25000000E+00           0.00000000E+00
  -0.24000000E+00           0.00000000E+00
  -0.23000000E+00           0.00000000E+00
  -0.22000000E+00           0.00000000E+00
  -0.21000000E+00           0.00000000E+00
  -0.20000000E+00           0.00000000E+00
  -0.19000000E+00           0.00000000E+00
  -0.18000000E+00           0.00000000E+00
  -0.17000000E+00           0.00000000E+00
  -0.16000000E+00           0.00000000E+00
  -0.15000000E+00           0.00000000E+00
  -0.14000000E+00           0.00000000E+00
  -0.13000000E+00           0.00000000E+00
  -0.12000000E+00           0.00000000E+00
  -0.11000000E+00           0.00000000E+00
  -0.10000000E+00           0.00000000E+00
  -0.90000000E-01           0.00000000E+00
  -0.80000000E-01           0.00000000E+00
  -0.70000000E-01           0.00000000E+00
  -0.60000000E-01           0.00000000E+00
  -0.50000000E-01           0.00000000E+00
  -0.40000000E-01           0.00000000E+00
  -0.30000000E-01           0.00000000E+00
  -0.20000000E-01           0.00000000E+00
  -0.10000000E-01           0.00000000E+00
   0.00000000E+00           0.18097222E-02
   0.10000000E-01           0.14599711E-01
   0.20000000E-01           0.29388542E-01
   0.30000000E-01           0.43853038E-01
   0.40000000E-01           0.58129369E-01
   0.50000000E-01           0.72858507E-01
   0.60000000E-01           0.86974797E-01
   0.70000000E-01           0.10078452E+00
   0.80000000E-01           0.11506155E+00
   0.90000000E-01           0.12889797E+00
   0.10000000E+00           0.14232749E+00
   0.11000000E+00           0.15532234E+00
   0.12000000E+00           0.16837144E+00
   0.13000000E+00           0.18127543E+00
   0.14000000E+00           0.19433238E+00
   0.15000000E+00           0.20563423E+00
   0.16000000E+00           0.21774135E+00
   0.17000000E+00           0.22894861E+00
   0.18000000E+00           0.23982462E+00
   0.19000000E+00           0.25077538E+00
   0.20000000E+00           0.26133747E+00
   0.21000000E+00           0.27133160E+00
   0.22000000E+00           0.28046250E+00
   0.23000000E+00           0.29033478E+00
   0.24000000E+00           0.29842286E+00
   0.25000000E+00           0.30684902E+00
   0.26000000E+00           0.31461071E+00
   0.27000000E+00           0.32235205E+00
   0.28000000E+00           0.33068872E+00
   0.29000000E+00           0.33642650E+00
   0.30000000E+00           0.34285660E+00
   0.31000000E+00           0.34832494E+00
   0.32000000E+00           0.35429517E+00
   0.33000000E+00           0.35980327E+00
   0.34000000E+00           0.36411924E+00
   0.35000000E+00           0.36911875E+00
   0.36000000E+00           0.37303348E+00
   0.37000000E+00           0.37674083E+00
   0.38000000E+00           0.38066921E+00
   0.39000000E+00           0.38332075E+00
   0.40000000E+00           0.38635654E+00
   0.41000000E+00           0.38862399E+00
   0.42000000E+00           0.39062772E+00
   0.43000000E+00           0.39295385E+00
   0.44000000E+00           0.39474300E+00
   0.45000000E+00           0.39556360E+00
   0.46000000E+00           0.39673944E+00
   0.47000000E+00           0.39799196E+00
   0.48000000E+00           0.39912558E+00
   0.49000000E+00           0.39933313E+00
[...]
   0.13800000E+01           0.68927176E+00
   0.13900000E+01           0.69412804E+00
   0.14000000E+01           0.69907390E+00
   0.14100000E+01           0.70418608E+00
   0.14200000E+01           0.70931030E+00
   0.14300000E+01           0.71452474E+00
   0.14400000E+01           0.71907089E+00
   0.14500000E+01           0.72429355E+00
   0.14600000E+01           0.72906840E+00
   0.14700000E+01           0.73427040E+00
   0.14800000E+01           0.73901010E+00
   0.14900000E+01           0.74402986E+00
   0.15000000E+01           0.74920856E+00
   0.15100000E+01           0.75433012E+00
   0.15200000E+01           0.75926652E+00
   0.15300000E+01           0.76420075E+00
   0.15400000E+01           0.76908093E+00
   0.15500000E+01           0.77449062E+00
   0.15600000E+01           0.77920197E+00
   0.15700000E+01           0.78437147E+00
   0.15800000E+01           0.78950969E+00
   0.15900000E+01           0.79441866E+00
   0.16000000E+01           0.79924022E+00
   0.16100000E+01           0.80418935E+00
   0.16200000E+01           0.80925460E+00
   0.16300000E+01           0.81458880E+00
   0.16400000E+01           0.81963333E+00
   0.16500000E+01           0.82426895E+00
   0.16600000E+01           0.82938235E+00
   0.16700000E+01           0.83463163E+00
   0.16800000E+01           0.83966406E+00
   0.16900000E+01           0.84437558E+00
   0.17000000E+01           0.85003047E+00
   0.17100000E+01           0.85489094E+00
   0.17200000E+01           0.85971354E+00
   0.17300000E+01           0.86455645E+00
   0.17400000E+01           0.86978339E+00
   0.17500000E+01           0.87482370E+00
   0.17600000E+01           0.87978712E+00
   0.17700000E+01           0.88523186E+00
   0.17800000E+01           0.89016172E+00
   0.17900000E+01           0.89499346E+00
   0.18000000E+01           0.90016230E+00
   0.18100000E+01           0.90519343E+00
   0.18200000E+01           0.91013423E+00
   0.18300000E+01           0.91555932E+00
   0.18400000E+01           0.92055802E+00
   0.18500000E+01           0.92535567E+00
   0.18600000E+01           0.93087755E+00
   0.18700000E+01           0.93563872E+00
   0.18800000E+01           0.94061898E+00
   0.18900000E+01           0.94565246E+00
   0.19000000E+01           0.95107332E+00
   0.19100000E+01           0.95628666E+00
   0.19200000E+01           0.96122891E+00
   0.19300000E+01           0.96598796E+00
   0.19400000E+01           0.97109152E+00
   0.19500000E+01           0.97639508E+00
   0.19600000E+01           0.98181389E+00
   0.19700000E+01           0.98668024E+00
   0.19800000E+01           0.99199667E+00
   0.19900000E+01           0.99730098E+00
   0.20000000E+01           0.50041169E+00
 #T=    40.0000
  -0.20000000E+01           0.00000000E+00
  -0.19900000E+01           0.00000000E+00
  -0.19800000E+01           0.00000000E+00
  -0.19700000E+01           0.00000000E+00
  -0.19600000E+01           0.00000000E+00
  -0.19500000E+01           0.00000000E+00
  -0.19400000E+01           0.00000000E+00
  -0.19300000E+01           0.00000000E+00
  -0.19200000E+01           0.00000000E+00
  -0.19100000E+01           0.00000000E+00
  -0.19000000E+01           0.00000000E+00
  -0.18900000E+01           0.00000000E+00
  -0.18800000E+01           0.00000000E+00
  -0.18700000E+01           0.00000000E+00
  -0.18600000E+01           0.00000000E+00
  -0.18500000E+01           0.00000000E+00
  -0.18400000E+01           0.00000000E+00
  -0.18300000E+01           0.00000000E+00
  -0.18200000E+01           0.00000000E+00
  -0.18100000E+01           0.00000000E+00
  -0.18000000E+01           0.00000000E+00
  -0.17900000E+01           0.00000000E+00
  -0.17800000E+01           0.00000000E+00
  -0.17700000E+01           0.00000000E+00
  -0.17600000E+01           0.00000000E+00
  -0.17500000E+01           0.00000000E+00
  -0.17400000E+01           0.00000000E+00
  -0.17300000E+01           0.00000000E+00
  -0.17200000E+01           0.00000000E+00
  -0.17100000E+01           0.00000000E+00
  -0.17000000E+01           0.00000000E+00
  -0.16900000E+01           0.00000000E+00
  -0.16800000E+01           0.00000000E+00
  -0.16700000E+01           0.00000000E+00
  -0.16600000E+01           0.00000000E+00
  -0.16500000E+01           0.00000000E+00
  -0.16400000E+01           0.00000000E+00
  -0.16300000E+01           0.00000000E+00
  -0.16200000E+01           0.00000000E+00
  -0.16100000E+01           0.00000000E+00
  -0.16000000E+01           0.00000000E+00
  -0.15900000E+01           0.00000000E+00
  -0.15800000E+01           0.00000000E+00
  -0.15700000E+01           0.00000000E+00
  -0.15600000E+01           0.00000000E+00
  -0.15500000E+01           0.00000000E+00
  -0.15400000E+01           0.00000000E+00
  -0.15300000E+01           0.00000000E+00
  -0.15200000E+01           0.00000000E+00
  -0.15100000E+01           0.00000000E+00
  -0.15000000E+01           0.00000000E+00
  -0.14900000E+01           0.00000000E+00
  -0.14800000E+01           0.00000000E+00
  -0.14700000E+01           0.00000000E+00
  -0.14600000E+01           0.00000000E+00
  -0.14500000E+01           0.00000000E+00
  -0.14400000E+01           0.00000000E+00
  -0.14300000E+01           0.00000000E+00
  -0.14200000E+01           0.00000000E+00
  -0.14100000E+01           0.00000000E+00
  -0.14000000E+01           0.00000000E+00
  -0.13900000E+01           0.00000000E+00
  -0.13800000E+01           0.00000000E+00
  -0.13700000E+01           0.00000000E+00
  -0.13600000E+01           0.00000000E+00
  -0.13500000E+01           0.00000000E+00
  -0.13400000E+01           0.00000000E+00
  -0.13300000E+01           0.00000000E+00
  -0.13200000E+01           0.00000000E+00
  -0.13100000E+01           0.00000000E+00
  -0.13000000E+01           0.00000000E+00
  -0.12900000E+01           0.00000000E+00
  -0.12800000E+01           0.00000000E+00
  -0.12700000E+01           0.00000000E+00
  -0.12600000E+01           0.00000000E+00
  -0.12500000E+01           0.00000000E+00
  -0.12400000E+01           0.00000000E+00
  -0.12300000E+01           0.00000000E+00
  -0.12200000E+01           0.00000000E+00
  -0.12100000E+01           0.00000000E+00
  -0.12000000E+01           0.00000000E+00
  -0.11900000E+01           0.00000000E+00
  -0.11800000E+01           0.00000000E+00
  -0.11700000E+01           0.00000000E+00
  -0.11600000E+01           0.00000000E+00
  -0.11500000E+01           0.00000000E+00
  -0.11400000E+01           0.00000000E+00
  -0.11300000E+01           0.00000000E+00
  -0.11200000E+01           0.00000000E+00
  -0.11100000E+01           0.00000000E+00
  -0.11000000E+01           0.00000000E+00
  -0.10900000E+01           0.00000000E+00
  -0.10800000E+01           0.00000000E+00
  -0.10700000E+01           0.00000000E+00
  -0.10600000E+01           0.00000000E+00
  -0.10500000E+01           0.00000000E+00
  -0.10400000E+01           0.00000000E+00
  -0.10300000E+01           0.00000000E+00
  -0.10200000E+01           0.00000000E+00
  -0.10100000E+01           0.00000000E+00
  -0.10000000E+01           0.00000000E+00
  -0.99000000E+00           0.00000000E+00
  -0.98000000E+00           0.00000000E+00
  -0.97000000E+00           0.00000000E+00
  -0.96000000E+00           0.00000000E+00
  -0.95000000E+00           0.00000000E+00
  -0.94000000E+00           0.00000000E+00
  -0.93000000E+00           0.00000000E+00
  -0.92000000E+00           0.00000000E+00
  -0.91000000E+00           0.00000000E+00
  -0.90000000E+00           0.00000000E+00
  -0.89000000E+00           0.00000000E+00
  -0.88000000E+00           0.00000000E+00
  -0.87000000E+00           0.00000000E+00
  -0.86000000E+00           0.00000000E+00
  -0.85000000E+00           0.00000000E+00
  -0.84000000E+00           0.00000000E+00
  -0.83000000E+00           0.00000000E+00
  -0.82000000E+00           0.00000000E+00
  -0.81000000E+00           0.00000000E+00
  -0.80000000E+00           0.00000000E+00
  -0.79000000E+00           0.00000000E+00
  -0.78000000E+00           0.00000000E+00
  -0.77000000E+00           0.00000000E+00
  -0.76000000E+00           0.00000000E+00
  -0.75000000E+00           0.00000000E+00
  -0.74000000E+00           0.00000000E+00
  -0.73000000E+00           0.00000000E+00
  -0.72000000E+00           0.00000000E+00
  -0.71000000E+00           0.00000000E+00
  -0.70000000E+00           0.00000000E+00
  -0.69000000E+00           0.00000000E+00
  -0.68000000E+00           0.00000000E+00
  -0.67000000E+00           0.00000000E+00
  -0.66000000E+00           0.00000000E+00
  -0.65000000E+00           0.00000000E+00
  -0.64000000E+00           0.00000000E+00
  -0.63000000E+00           0.00000000E+00
  -0.62000000E+00           0.00000000E+00
  -0.61000000E+00           0.00000000E+00
  -0.60000000E+00           0.00000000E+00
  -0.59000000E+00           0.00000000E+00
  -0.58000000E+00           0.00000000E+00
  -0.57000000E+00           0.00000000E+00
  -0.56000000E+00           0.00000000E+00
  -0.55000000E+00           0.00000000E+00
  -0.54000000E+00           0.00000000E+00
  -0.53000000E+00           0.00000000E+00
  -0.52000000E+00           0.00000000E+00
  -0.51000000E+00           0.00000000E+00
  -0.50000000E+00           0.00000000E+00
  -0.49000000E+00           0.00000000E+00
  -0.48000000E+00           0.00000000E+00
  -0.47000000E+00           0.00000000E+00
  -0.46000000E+00           0.00000000E+00
  -0.45000000E+00           0.00000000E+00
  -0.44000000E+00           0.00000000E+00
  -0.43000000E+00           0.00000000E+00
  -0.42000000E+00           0.00000000E+00
  -0.41000000E+00           0.00000000E+00
  -0.40000000E+00           0.00000000E+00
  -0.39000000E+00           0.00000000E+00
  -0.38000000E+00           0.00000000E+00
  -0.37000000E+00           0.00000000E+00
  -0.36000000E+00           0.00000000E+00
  -0.35000000E+00           0.00000000E+00
  -0.34000000E+00           0.00000000E+00
  -0.33000000E+00           0.00000000E+00
  -0.32000000E+00           0.00000000E+00
  -0.31000000E+00           0.00000000E+00
  -0.30000000E+00           0.00000000E+00
  -0.29000000E+00           0.00000000E+00
  -0.28000000E+00           0.00000000E+00
  -0.27000000E+00           0.00000000E+00
  -0.26000000E+00           0.00000000E+00
  -0.25000000E+00           0.00000000E+00
  -0.24000000E+00           0.00000000E+00
  -0.23000000E+00           0.00000000E+00
  -0.22000000E+00           0.00000000E+00
  -0.21000000E+00           0.00000000E+00
  -0.20000000E+00           0.00000000E+00
  -0.19000000E+00           0.00000000E+00
  -0.18000000E+00           0.00000000E+00
  -0.17000000E+00           0.00000000E+00
  -0.16000000E+00           0.00000000E+00
  -0.15000000E+00           0.00000000E+00
  -0.14000000E+00           0.00000000E+00
  -0.13000000E+00           0.00000000E+00
  -0.12000000E+00           0.00000000E+00
  -0.11000000E+00           0.00000000E+00
  -0.10000000E+00           0.00000000E+00
  -0.90000000E-01           0.00000000E+00
  -0.80000000E-01           0.00000000E+00
  -0.70000000E-01           0.00000000E+00
  -0.60000000E-01           0.00000000E+00
  -0.50000000E-01           0.00000000E+00
  -0.40000000E-01           0.00000000E+00
  -0.30000000E-01           0.00000000E+00
  -0.20000000E-01           0.00000000E+00
  -0.10000000E-01           0.00000000E+00
   0.00000000E+00           0.62910880E-03
   0.10000000E-01           0.50108796E-02
   0.20000000E-01           0.10021730E-01
   0.30000000E-01           0.15053935E-01
   0.40000000E-01           0.19989207E-01
   0.50000000E-01           0.25016493E-01
   0.60000000E-01           0.30029138E-01
   0.70000000E-01           0.35095110E-01
   0.80000000E-01           0.40128762E-01
   0.90000000E-01           0.45077344E-01
   0.10000000E+00           0.50139844E-01
   0.11000000E+00           0.55156453E-01
   0.12000000E+00           0.60103096E-01
   0.13000000E+00           0.65222135E-01
   0.14000000E+00           0.70135561E-01
   0.15000000E+00           0.75143056E-01
   0.16000000E+00           0.80170399E-01
   0.17000000E+00           0.85080035E-01
   0.18000000E+00           0.90115509E-01
   0.19000000E+00           0.95252894E-01
   0.20000000E+00           0.10009259E+00
   0.21000000E+00           0.10509563E+00
   0.22000000E+00           0.11022031E+00
   0.23000000E+00           0.11523235E+00
   0.24000000E+00           0.12012156E+00
   0.25000000E+00           0.12520295E+00
   0.26000000E+00           0.13028909E+00
   0.27000000E+00           0.13519175E+00
   0.28000000E+00           0.14023553E+00
   0.29000000E+00           0.14524667E+00
   0.30000000E+00           0.15029378E+00
   0.31000000E+00           0.15523675E+00
   0.32000000E+00           0.16014826E+00
   0.33000000E+00           0.16529601E+00
   0.34000000E+00           0.17031892E+00
   0.35000000E+00           0.17538455E+00
   0.36000000E+00           0.18026192E+00
   0.37000000E+00           0.18526209E+00
   0.38000000E+00           0.19027920E+00
   0.39000000E+00           0.19526965E+00
   0.40000000E+00           0.20038174E+00
   0.41000000E+00           0.20529661E+00
   0.42000000E+00           0.21022318E+00
   0.43000000E+00           0.21528458E+00
   0.44000000E+00           0.22024939E+00
   0.45000000E+00           0.22527037E+00
   0.46000000E+00           0.23029829E+00
   0.47000000E+00           0.23543848E+00
   0.48000000E+00           0.24045226E+00
   0.49000000E+00           0.24534916E+00
   0.50000000E+00           0.25044482E+00
   0.51000000E+00           0.25531762E+00
   0.52000000E+00           0.26015136E+00
   0.53000000E+00           0.26543096E+00
   0.54000000E+00           0.27025611E+00
   0.55000000E+00           0.27530489E+00
   0.56000000E+00           0.28021563E+00
   0.57000000E+00           0.28534407E+00
   0.58000000E+00           0.29027841E+00
   0.59000000E+00           0.29525064E+00
   0.60000000E+00           0.30021632E+00
   0.61000000E+00           0.30526696E+00
   0.62000000E+00           0.31035032E+00
   0.63000000E+00           0.31536499E+00
   0.64000000E+00           0.32023883E+00
   0.65000000E+00           0.32516476E+00
   0.66000000E+00           0.33030148E+00
   0.67000000E+00           0.33535298E+00
   0.68000000E+00           0.34024797E+00
   0.69000000E+00           0.34532127E+00
   0.70000000E+00           0.35015217E+00
   0.71000000E+00           0.35532083E+00
   0.72000000E+00           0.36021383E+00
   0.73000000E+00           0.36517758E+00
   0.74000000E+00           0.37027587E+00
   0.75000000E+00           0.37524771E+00
   0.76000000E+00           0.38024141E+00
   0.77000000E+00           0.38515897E+00
   0.78000000E+00           0.39013611E+00
   0.79000000E+00           0.39521128E+00
   0.80000000E+00           0.40012509E+00
   0.81000000E+00           0.40526649E+00
   0.82000000E+00           0.41020078E+00
   0.83000000E+00           0.41488646E+00
   0.84000000E+00           0.42018666E+00
   0.85000000E+00           0.42516004E+00
   0.86000000E+00           0.43005761E+00
   0.87000000E+00           0.43499945E+00
   0.88000000E+00           0.44020295E+00
   0.89000000E+00           0.44512656E+00
   0.90000000E+00           0.45009152E+00
   0.91000000E+00           0.45510770E+00
   0.92000000E+00           0.45998064E+00
   0.93000000E+00           0.46513591E+00
   0.94000000E+00           0.46984994E+00
   0.95000000E+00           0.47480758E+00
   0.96000000E+00           0.47994549E+00
   0.97000000E+00           0.48476285E+00
   0.98000000E+00           0.48970613E+00
   0.99000000E+00           0.49489760E+00
   0.10000000E+01           0.49976539E+00
   0.10100000E+01           0.50496690E+00
   0.10200000E+01           0.50978122E+00
   0.10300000E+01           0.51487002E+00
   0.10400000E+01           0.51964601E+00
   0.10500000E+01           0.52467879E+00
   0.10600000E+01           0.52952260E+00
   0.10700000E+01           0.53455859E+00
   0.10800000E+01           0.53964638E+00
   0.10900000E+01           0.54452283E+00
   0.11000000E+01           0.54972688E+00
   0.11100000E+01           0.55485906E+00
   0.11200000E+01           0.55954450E+00
   0.11300000E+01           0.56452688E+00
   0.11400000E+01           0.56969439E+00
   0.11500000E+01           0.57429517E+00
   0.11600000E+01           0.57953255E+00
   0.11700000E+01           0.58458076E+00
   0.11800000E+01           0.58946438E+00
   0.11900000E+01           0.59424606E+00
   0.12000000E+01           0.59966834E+00
   0.12100000E+01           0.60447954E+00
   0.12200000E+01           0.60946846E+00
   0.12300000E+01           0.61441522E+00
   0.12400000E+01           0.61938869E+00
   0.12500000E+01           0.62446178E+00
   0.12600000E+01           0.62939311E+00
   0.12700000E+01           0.63437231E+00
   0.12800000E+01           0.63940023E+00
   0.12900000E+01           0.64429826E+00
   0.13000000E+01           0.64944499E+00
   0.13100000E+01           0.65429896E+00
   0.13200000E+01           0.65931667E+00
   0.13300000E+01           0.66448507E+00
   0.13400000E+01           0.66941756E+00
   0.13500000E+01           0.67436227E+00
   0.13600000E+01           0.67921493E+00
   0.13700000E+01           0.68431913E+00
   0.13800000E+01           0.68940946E+00
   0.13900000E+01           0.69429138E+00
   0.14000000E+01           0.69915341E+00
   0.14100000E+01           0.70428652E+00
   0.14200000E+01           0.70927040E+00
   0.14300000E+01           0.71440061E+00
   0.14400000E+01           0.71930981E+00
   0.14500000E+01           0.72426186E+00
   0.14600000E+01           0.72921450E+00
   0.14700000E+01           0.73415689E+00
   0.14800000E+01           0.73939265E+00
   0.14900000E+01           0.74422271E+00
   0.15000000E+01           0.74942587E+00
   0.15100000E+01           0.75414340E+00
   0.15200000E+01           0.75953831E+00
   0.15300000E+01           0.76409138E+00
   0.15400000E+01           0.76933848E+00
   0.15500000E+01           0.77425214E+00
   0.15600000E+01           0.77936470E+00
   0.15700000E+01           0.78439612E+00
   0.15800000E+01           0.78945145E+00
   0.15900000E+01           0.79405231E+00
   0.16000000E+01           0.79923174E+00
   0.16100000E+01           0.80446997E+00
   0.16200000E+01           0.80946863E+00
   0.16300000E+01           0.81428313E+00
   0.16400000E+01           0.81949916E+00
   0.16500000E+01           0.82455252E+00
   0.16600000E+01           0.82957685E+00
   0.16700000E+01           0.83485802E+00
   0.16800000E+01           0.83964609E+00
   0.16900000E+01           0.84488657E+00
   0.17000000E+01           0.84938741E+00
   0.17100000E+01           0.85465515E+00
   0.17200000E+01           0.85999618E+00
   0.17300000E+01           0.86492101E+00
   0.17400000E+01           0.86987795E+00
   0.17500000E+01           0.87503385E+00
   0.17600000E+01           0.87985133E+00
   0.17700000E+01           0.88493475E+00
   0.17800000E+01           0.89028163E+00
   0.17900000E+01           0.89499586E+00
   0.18000000E+01           0.90012312E+00
   0.18100000E+01           0.90536400E+00
   0.18200000E+01           0.91047847E+00
   0.18300000E+01           0.91533281E+00
   0.18400000E+01           0.92023547E+00
   0.18500000E+01           0.92583970E+00
   0.18600000E+01           0.93063932E+00
   0.18700000E+01           0.93586907E+00
   0.18800000E+01           0.94076464E+00
   0.18900000E+01           0.94564635E+00
   0.19000000E+01           0.95086985E+00
   0.19100000E+01           0.95609997E+00
   0.19200000E+01           0.96133600E+00
   0.19300000E+01           0.96601424E+00
   0.19400000E+01           0.97157297E+00
   0.19500000E+01           0.97654528E+00
   0.19600000E+01           0.98146201E+00
   0.19700000E+01           0.98678938E+00
   0.19800000E+01           0.99186994E+00
   0.19900000E+01           0.99704986E+00
   0.20000000E+01           0.50068255E+00
