 #written on 16Dec2024 at 12:26:20 
 #----------------- MONTECARLO -------------------#
 #        M                      P(M)             #
 #------------------------------------------------#
 #T=    10.0000
  -0.20000000E+01           0.00000000E+00
  -0.19900000E+01           0.00000000E+00
  -0.19800000E+01           0.00000000E+00
  -0.19700000E+01           0.00000000E+00
  -0.19600000E+01           0.00000000E+00
  -0.19500000E+01           0.00000000E+00
  -0.19400000E+01           0.00000000E+00
  -0.19300000E+01           0.00000000E+00
  -0.19200000E+01           0.00000000E+00
  -0.19100000E+01           0.00000000E+00
  -0.19000000E+01           0.00000000E+00
  -0.18900000E+01           0.00000000E+00
  -0.18800000E+01           0.00000000E+00
  -0.18700000E+01           0.00000000E+00
  -0.18600000E+01           0.00000000E+00
  -0.18500000E+01           0.00000000E+00
  -0.18400000E+01           0.00000000E+00
  -0.18300000E+01           0.00000000E+00
  -0.18200000E+01           0.00000000E+00
  -0.18100000E+01           0.00000000E+00
  -0.18000000E+01           0.00000000E+00
  -0.17900000E+01           0.00000000E+00
  -0.17800000E+01           0.00000000E+00
  -0.17700000E+01           0.00000000E+00
  -0.17600000E+01           0.00000000E+00
  -0.17500000E+01           0.00000000E+00
  -0.17400000E+01           0.00000000E+00
  -0.17300000E+01           0.00000000E+00
  -0.17200000E+01           0.00000000E+00
  -0.17100000E+01           0.00000000E+00
  -0.17000000E+01           0.00000000E+00
  -0.16900000E+01           0.00000000E+00
  -0.16800000E+01           0.00000000E+00
  -0.16700000E+01           0.00000000E+00
  -0.16600000E+01           0.00000000E+00
  -0.16500000E+01           0.00000000E+00
  -0.16400000E+01           0.00000000E+00
  -0.16300000E+01           0.00000000E+00
  -0.16200000E+01           0.00000000E+00
  -0.16100000E+01           0.00000000E+00
  -0.16000000E+01           0.00000000E+00
  -0.15900000E+01           0.00000000E+00
  -0.15800000E+01           0.00000000E+00
  -0.15700000E+01           0.00000000E+00
  -0.15600000E+01           0.00000000E+00
  -0.15500000E+01           0.00000000E+00
  -0.15400000E+01           0.00000000E+00
  -0.15300000E+01           0.00000000E+00
  -0.15200000E+01           0.00000000E+00
  -0.15100000E+01           0.00000000E+00
  -0.15000000E+01           0.00000000E+00
  -0.14900000E+01           0.00000000E+00
  -0.14800000E+01           0.00000000E+00
  -0.14700000E+01           0.00000000E+00
  -0.14600000E+01           0.00000000E+00
  -0.14500000E+01           0.00000000E+00
  -0.14400000E+01           0.00000000E+00
  -0.14300000E+01           0.00000000E+00
  -0.14200000E+01           0.00000000E+00
  -0.14100000E+01           0.00000000E+00
  -0.14000000E+01           0.00000000E+00
  -0.13900000E+01           0.00000000E+00
  -0.13800000E+01           0.00000000E+00
  -0.13700000E+01           0.00000000E+00
  -0.13600000E+01           0.00000000E+00
  -0.13500000E+01           0.00000000E+00
  -0.13400000E+01           0.00000000E+00
  -0.13300000E+01           0.00000000E+00
  -0.13200000E+01           0.00000000E+00
  -0.13100000E+01           0.00000000E+00
  -0.13000000E+01           0.00000000E+00
  -0.12900000E+01           0.00000000E+00
  -0.12800000E+01           0.00000000E+00
  -0.12700000E+01           0.00000000E+00
  -0.12600000E+01           0.00000000E+00
  -0.12500000E+01           0.00000000E+00
  -0.12400000E+01           0.00000000E+00
  -0.12300000E+01           0.00000000E+00
  -0.12200000E+01           0.00000000E+00
  -0.12100000E+01           0.00000000E+00
  -0.12000000E+01           0.00000000E+00
  -0.11900000E+01           0.00000000E+00
  -0.11800000E+01           0.00000000E+00
  -0.11700000E+01           0.00000000E+00
  -0.11600000E+01           0.00000000E+00
  -0.11500000E+01           0.00000000E+00
  -0.11400000E+01           0.00000000E+00
  -0.11300000E+01           0.00000000E+00
  -0.11200000E+01           0.00000000E+00
  -0.11100000E+01           0.00000000E+00
  -0.11000000E+01           0.00000000E+00
  -0.10900000E+01           0.00000000E+00
  -0.10800000E+01           0.00000000E+00
  -0.10700000E+01           0.00000000E+00
  -0.10600000E+01           0.00000000E+00
  -0.10500000E+01           0.00000000E+00
  -0.10400000E+01           0.00000000E+00
  -0.10300000E+01           0.00000000E+00
  -0.10200000E+01           0.00000000E+00
  -0.10100000E+01           0.00000000E+00
  -0.10000000E+01           0.00000000E+00
  -0.99000000E+00           0.00000000E+00
  -0.98000000E+00           0.00000000E+00
  -0.97000000E+00           0.00000000E+00
  -0.96000000E+00           0.00000000E+00
  -0.95000000E+00           0.00000000E+00
  -0.94000000E+00           0.00000000E+00
  -0.93000000E+00           0.00000000E+00
  -0.92000000E+00           0.00000000E+00
  -0.91000000E+00           0.00000000E+00
  -0.90000000E+00           0.00000000E+00
  -0.89000000E+00           0.00000000E+00
  -0.88000000E+00           0.00000000E+00
  -0.87000000E+00           0.00000000E+00
  -0.86000000E+00           0.00000000E+00
  -0.85000000E+00           0.00000000E+00
  -0.84000000E+00           0.00000000E+00
  -0.83000000E+00           0.00000000E+00
  -0.82000000E+00           0.00000000E+00
  -0.81000000E+00           0.00000000E+00
  -0.80000000E+00           0.00000000E+00
  -0.79000000E+00           0.00000000E+00
  -0.78000000E+00           0.00000000E+00
  -0.77000000E+00           0.00000000E+00
  -0.76000000E+00           0.00000000E+00
  -0.75000000E+00           0.00000000E+00
  -0.74000000E+00           0.00000000E+00
  -0.73000000E+00           0.00000000E+00
  -0.72000000E+00           0.00000000E+00
  -0.71000000E+00           0.00000000E+00
  -0.70000000E+00           0.00000000E+00
  -0.69000000E+00           0.00000000E+00
  -0.68000000E+00           0.00000000E+00
  -0.67000000E+00           0.00000000E+00
  -0.66000000E+00           0.00000000E+00
  -0.65000000E+00           0.00000000E+00
  -0.64000000E+00           0.00000000E+00
  -0.63000000E+00           0.00000000E+00
  -0.62000000E+00           0.00000000E+00
  -0.61000000E+00           0.00000000E+00
  -0.60000000E+00           0.00000000E+00
  -0.59000000E+00           0.00000000E+00
  -0.58000000E+00           0.00000000E+00
  -0.57000000E+00           0.00000000E+00
  -0.56000000E+00           0.00000000E+00
  -0.55000000E+00           0.00000000E+00
  -0.54000000E+00           0.00000000E+00
  -0.53000000E+00           0.00000000E+00
  -0.52000000E+00           0.00000000E+00
  -0.51000000E+00           0.00000000E+00
  -0.50000000E+00           0.00000000E+00
  -0.49000000E+00           0.00000000E+00
  -0.48000000E+00           0.00000000E+00
  -0.47000000E+00           0.00000000E+00
  -0.46000000E+00           0.00000000E+00
  -0.45000000E+00           0.00000000E+00
  -0.44000000E+00           0.00000000E+00
  -0.43000000E+00           0.00000000E+00
  -0.42000000E+00           0.00000000E+00
  -0.41000000E+00           0.00000000E+00
  -0.40000000E+00           0.00000000E+00
  -0.39000000E+00           0.00000000E+00
  -0.38000000E+00           0.00000000E+00
  -0.37000000E+00           0.00000000E+00
  -0.36000000E+00           0.00000000E+00
  -0.35000000E+00           0.00000000E+00
  -0.34000000E+00           0.00000000E+00
  -0.33000000E+00           0.00000000E+00
  -0.32000000E+00           0.00000000E+00
  -0.31000000E+00           0.00000000E+00
  -0.30000000E+00           0.00000000E+00
  -0.29000000E+00           0.00000000E+00
  -0.28000000E+00           0.00000000E+00
  -0.27000000E+00           0.00000000E+00
  -0.26000000E+00           0.00000000E+00
  -0.25000000E+00           0.00000000E+00
  -0.24000000E+00           0.00000000E+00
  -0.23000000E+00           0.00000000E+00
  -0.22000000E+00           0.00000000E+00
  -0.21000000E+00           0.00000000E+00
  -0.20000000E+00           0.00000000E+00
  -0.19000000E+00           0.00000000E+00
  -0.18000000E+00           0.00000000E+00
  -0.17000000E+00           0.00000000E+00
  -0.16000000E+00           0.00000000E+00
  -0.15000000E+00           0.00000000E+00
  -0.14000000E+00           0.00000000E+00
  -0.13000000E+00           0.00000000E+00
  -0.12000000E+00           0.00000000E+00
  -0.11000000E+00           0.00000000E+00
  -0.10000000E+00           0.00000000E+00
  -0.90000000E-01           0.00000000E+00
  -0.80000000E-01           0.00000000E+00
  -0.70000000E-01           0.00000000E+00
  -0.60000000E-01           0.00000000E+00
  -0.50000000E-01           0.00000000E+00
  -0.40000000E-01           0.00000000E+00
  -0.30000000E-01           0.00000000E+00
  -0.20000000E-01           0.00000000E+00
  -0.10000000E-01           0.00000000E+00
   0.00000000E+00           0.00000000E+00
   0.10000000E-01           0.00000000E+00
   0.20000000E-01           0.00000000E+00
   0.30000000E-01           0.00000000E+00
   0.40000000E-01           0.00000000E+00
   0.50000000E-01           0.00000000E+00
   0.60000000E-01           0.00000000E+00
   0.70000000E-01           0.00000000E+00
   0.80000000E-01           0.00000000E+00
   0.90000000E-01           0.00000000E+00
   0.10000000E+00           0.00000000E+00
   0.11000000E+00           0.00000000E+00
   0.12000000E+00           0.00000000E+00
   0.13000000E+00           0.00000000E+00
   0.14000000E+00           0.00000000E+00
   0.15000000E+00           0.00000000E+00
   0.16000000E+00           0.00000000E+00
   0.17000000E+00           0.00000000E+00
   0.18000000E+00           0.00000000E+00
   0.19000000E+00           0.00000000E+00
   0.20000000E+00           0.00000000E+00
   0.21000000E+00           0.00000000E+00
   0.22000000E+00           0.00000000E+00
   0.23000000E+00           0.00000000E+00
   0.24000000E+00           0.00000000E+00
   0.25000000E+00           0.00000000E+00
   0.26000000E+00           0.00000000E+00
   0.27000000E+00           0.00000000E+00
   0.28000000E+00           0.00000000E+00
   0.29000000E+00           0.00000000E+00
   0.30000000E+00           0.00000000E+00
   0.31000000E+00           0.00000000E+00
   0.32000000E+00           0.00000000E+00
   0.33000000E+00           0.00000000E+00
   0.34000000E+00           0.00000000E+00
   0.35000000E+00           0.00000000E+00
   0.36000000E+00           0.00000000E+00
   0.37000000E+00           0.00000000E+00
   0.38000000E+00           0.00000000E+00
   0.39000000E+00           0.00000000E+00
   0.40000000E+00           0.00000000E+00
   0.41000000E+00           0.00000000E+00
   0.42000000E+00           0.00000000E+00
   0.43000000E+00           0.00000000E+00
   0.44000000E+00           0.10000000E-06
   0.45000000E+00           0.00000000E+00
   0.46000000E+00           0.00000000E+00
   0.47000000E+00           0.00000000E+00
   0.48000000E+00           0.00000000E+00
   0.49000000E+00           0.00000000E+00
   0.50000000E+00           0.10000000E-06
   0.51000000E+00           0.00000000E+00
   0.52000000E+00           0.00000000E+00
   0.53000000E+00           0.10000000E-06
   0.54000000E+00           0.00000000E+00
   0.55000000E+00           0.10000000E-06
   0.56000000E+00           0.00000000E+00
   0.57000000E+00           0.20000000E-06
   0.58000000E+00           0.10000000E-06
   0.59000000E+00           0.30000000E-06
   0.60000000E+00           0.20000000E-06
   0.61000000E+00           0.10000000E-06
   0.62000000E+00           0.20000000E-06
   0.63000000E+00           0.30000000E-06
   0.64000000E+00           0.50000000E-06
   0.65000000E+00           0.50000000E-06
   0.66000000E+00           0.50000000E-06
   0.67000000E+00           0.10000000E-06
   0.68000000E+00           0.30000000E-06
   0.69000000E+00           0.40000000E-06
   0.70000000E+00           0.70000000E-06
   0.71000000E+00           0.60000000E-06
   0.72000000E+00           0.20000000E-06
   0.73000000E+00           0.10000000E-05
   0.74000000E+00           0.14000000E-05
   0.75000000E+00           0.12000000E-05
   0.76000000E+00           0.15000000E-05
   0.77000000E+00           0.14000000E-05
   0.78000000E+00           0.14000000E-05
   0.79000000E+00           0.25000000E-05
   0.80000000E+00           0.24000000E-05
   0.81000000E+00           0.19000000E-05
   0.82000000E+00           0.31000000E-05
   0.83000000E+00           0.32000000E-05
   0.84000000E+00           0.36000000E-05
   0.85000000E+00           0.42000000E-05
   0.86000000E+00           0.53000000E-05
   0.87000000E+00           0.54000000E-05
   0.88000000E+00           0.66000000E-05
   0.89000000E+00           0.73000000E-05
   0.90000000E+00           0.89000000E-05
   0.91000000E+00           0.88000000E-05
   0.92000000E+00           0.10200000E-04
   0.93000000E+00           0.10000000E-04
   0.94000000E+00           0.15000000E-04
   0.95000000E+00           0.16200000E-04
   0.96000000E+00           0.20000000E-04
   0.97000000E+00           0.22200000E-04
   0.98000000E+00           0.24400000E-04
   0.99000000E+00           0.31000000E-04
   0.10000000E+01           0.36600000E-04
   0.10100000E+01           0.34600000E-04
   0.10200000E+01           0.43400000E-04
   0.10300000E+01           0.45500000E-04
   0.10400000E+01           0.51800000E-04
   0.10500000E+01           0.59100000E-04
   0.10600000E+01           0.74200000E-04
   0.10700000E+01           0.81900000E-04
   0.10800000E+01           0.93600000E-04
   0.10900000E+01           0.10420000E-03
   0.11000000E+01           0.11260000E-03
   0.11100000E+01           0.13560000E-03
   0.11200000E+01           0.14760000E-03
   0.11300000E+01           0.17300000E-03
   0.11400000E+01           0.19260000E-03
   0.11500000E+01           0.21880000E-03
   0.11600000E+01           0.25540000E-03
   0.11700000E+01           0.28240000E-03
   0.11800000E+01           0.33750000E-03
   0.11900000E+01           0.36250000E-03
   0.12000000E+01           0.42900000E-03
   0.12100000E+01           0.49450000E-03
   0.12200000E+01           0.54580000E-03
   0.12300000E+01           0.63150000E-03
   0.12400000E+01           0.72190000E-03
   0.12500000E+01           0.81520000E-03
   0.12600000E+01           0.90990000E-03
   0.12700000E+01           0.10555000E-02
   0.12800000E+01           0.11972000E-02
   0.12900000E+01           0.13649000E-02
   0.13000000E+01           0.15827000E-02
   0.13100000E+01           0.18208000E-02
   0.13200000E+01           0.20083000E-02
   0.13300000E+01           0.22860000E-02
   0.13400000E+01           0.26350000E-02
   0.13500000E+01           0.29345000E-02
   0.13600000E+01           0.33560000E-02
   0.13700000E+01           0.38863000E-02
   0.13800000E+01           0.44133000E-02
   0.13900000E+01           0.50125000E-02
   0.14000000E+01           0.56213000E-02
   0.14100000E+01           0.64759000E-02
   0.14200000E+01           0.73503000E-02
   0.14300000E+01           0.83384000E-02
   0.14400000E+01           0.94721000E-02
   0.14500000E+01           0.10671600E-01
   0.14600000E+01           0.12236100E-01
   0.14700000E+01           0.13903400E-01
   0.14800000E+01           0.15839700E-01
   0.14900000E+01           0.18177100E-01
   0.15000000E+01           0.20565500E-01
   0.15100000E+01           0.23306900E-01
   0.15200000E+01           0.26596900E-01
   0.15300000E+01           0.30150500E-01
   0.15400000E+01           0.34503400E-01
   0.15500000E+01           0.39189800E-01
   0.15600000E+01           0.44484700E-01
   0.15700000E+01           0.50382700E-01
   0.15800000E+01           0.57376300E-01
   0.15900000E+01           0.65367300E-01
   0.16000000E+01           0.74367800E-01
   0.16100000E+01           0.84501200E-01
   0.16200000E+01           0.96037300E-01
   0.16300000E+01           0.10928730E+00
   0.16400000E+01           0.12436380E+00
   0.16500000E+01           0.14140960E+00
   0.16600000E+01           0.16076330E+00
   0.16700000E+01           0.18304000E+00
   0.16800000E+01           0.20789230E+00
   0.16900000E+01           0.23675300E+00
   0.17000000E+01           0.26923280E+00
   0.17100000E+01           0.30662110E+00
   0.17200000E+01           0.34874230E+00
   0.17300000E+01           0.39563150E+00
   0.17400000E+01           0.45098090E+00
   0.17500000E+01           0.51247870E+00
   0.17600000E+01           0.58296370E+00
   0.17700000E+01           0.66297910E+00
   0.17800000E+01           0.75522950E+00
   0.17900000E+01           0.85848970E+00
   0.18000000E+01           0.97637290E+00
   0.18100000E+01           0.11113839E+01
   0.18200000E+01           0.12650486E+01
   0.18300000E+01           0.14377986E+01
   0.18400000E+01           0.16350024E+01
   0.18500000E+01           0.18614753E+01
   0.18600000E+01           0.21179655E+01
   0.18700000E+01           0.24106481E+01
   0.18800000E+01           0.27418841E+01
   0.18900000E+01           0.31192310E+01
   0.19000000E+01           0.35500891E+01
   0.19100000E+01           0.40408072E+01
   0.19200000E+01           0.45952996E+01
   0.19300000E+01           0.52306964E+01
   0.19400000E+01           0.59505684E+01
   0.19500000E+01           0.67728806E+01
   0.19600000E+01           0.77054319E+01
   0.19700000E+01           0.87723223E+01
   0.19800000E+01           0.99817020E+01
   0.19900000E+01           0.11363196E+02
   0.20000000E+01           0.62572515E+01
 #T=    11.0000
  -0.20000000E+01           0.00000000E+00
  -0.19900000E+01           0.00000000E+00
  -0.19800000E+01           0.00000000E+00
  -0.19700000E+01           0.00000000E+00
  -0.19600000E+01           0.00000000E+00
  -0.19500000E+01           0.00000000E+00
  -0.19400000E+01           0.00000000E+00
  -0.19300000E+01           0.00000000E+00
  -0.19200000E+01           0.00000000E+00
  -0.19100000E+01           0.00000000E+00
  -0.19000000E+01           0.00000000E+00
  -0.18900000E+01           0.00000000E+00
  -0.18800000E+01           0.00000000E+00
  -0.18700000E+01           0.00000000E+00
  -0.18600000E+01           0.00000000E+00
  -0.18500000E+01           0.00000000E+00
  -0.18400000E+01           0.00000000E+00
  -0.18300000E+01           0.00000000E+00
  -0.18200000E+01           0.00000000E+00
  -0.18100000E+01           0.00000000E+00
  -0.18000000E+01           0.00000000E+00
  -0.17900000E+01           0.00000000E+00
  -0.17800000E+01           0.00000000E+00
  -0.17700000E+01           0.00000000E+00
  -0.17600000E+01           0.00000000E+00
  -0.17500000E+01           0.00000000E+00
  -0.17400000E+01           0.00000000E+00
  -0.17300000E+01           0.00000000E+00
  -0.17200000E+01           0.00000000E+00
  -0.17100000E+01           0.00000000E+00
  -0.17000000E+01           0.00000000E+00
  -0.16900000E+01           0.00000000E+00
  -0.16800000E+01           0.00000000E+00
  -0.16700000E+01           0.00000000E+00
  -0.16600000E+01           0.00000000E+00
  -0.16500000E+01           0.00000000E+00
  -0.16400000E+01           0.00000000E+00
  -0.16300000E+01           0.00000000E+00
  -0.16200000E+01           0.00000000E+00
  -0.16100000E+01           0.00000000E+00
  -0.16000000E+01           0.00000000E+00
  -0.15900000E+01           0.00000000E+00
  -0.15800000E+01           0.00000000E+00
  -0.15700000E+01           0.00000000E+00
  -0.15600000E+01           0.00000000E+00
  -0.15500000E+01           0.00000000E+00
  -0.15400000E+01           0.00000000E+00
  -0.15300000E+01           0.00000000E+00
  -0.15200000E+01           0.00000000E+00
  -0.15100000E+01           0.00000000E+00
  -0.15000000E+01           0.00000000E+00
  -0.14900000E+01           0.00000000E+00
  -0.14800000E+01           0.00000000E+00
  -0.14700000E+01           0.00000000E+00
  -0.14600000E+01           0.00000000E+00
  -0.14500000E+01           0.00000000E+00
  -0.14400000E+01           0.00000000E+00
  -0.14300000E+01           0.00000000E+00
  -0.14200000E+01           0.00000000E+00
  -0.14100000E+01           0.00000000E+00
  -0.14000000E+01           0.00000000E+00
  -0.13900000E+01           0.00000000E+00
  -0.13800000E+01           0.00000000E+00
  -0.13700000E+01           0.00000000E+00
  -0.13600000E+01           0.00000000E+00
  -0.13500000E+01           0.00000000E+00
  -0.13400000E+01           0.00000000E+00
  -0.13300000E+01           0.00000000E+00
  -0.13200000E+01           0.00000000E+00
  -0.13100000E+01           0.00000000E+00
  -0.13000000E+01           0.00000000E+00
  -0.12900000E+01           0.00000000E+00
  -0.12800000E+01           0.00000000E+00
  -0.12700000E+01           0.00000000E+00
  -0.12600000E+01           0.00000000E+00
  -0.12500000E+01           0.00000000E+00
  -0.12400000E+01           0.00000000E+00
  -0.12300000E+01           0.00000000E+00
  -0.12200000E+01           0.00000000E+00
  -0.12100000E+01           0.00000000E+00
  -0.12000000E+01           0.00000000E+00
  -0.11900000E+01           0.00000000E+00
  -0.11800000E+01           0.00000000E+00
  -0.11700000E+01           0.00000000E+00
  -0.11600000E+01           0.00000000E+00
  -0.11500000E+01           0.00000000E+00
  -0.11400000E+01           0.00000000E+00
  -0.11300000E+01           0.00000000E+00
  -0.11200000E+01           0.00000000E+00
  -0.11100000E+01           0.00000000E+00
  -0.11000000E+01           0.00000000E+00
  -0.10900000E+01           0.00000000E+00
  -0.10800000E+01           0.00000000E+00
  -0.10700000E+01           0.00000000E+00
  -0.10600000E+01           0.00000000E+00
  -0.10500000E+01           0.00000000E+00
  -0.10400000E+01           0.00000000E+00
  -0.10300000E+01           0.00000000E+00
  -0.10200000E+01           0.00000000E+00
  -0.10100000E+01           0.00000000E+00
  -0.10000000E+01           0.00000000E+00
  -0.99000000E+00           0.00000000E+00
  -0.98000000E+00           0.00000000E+00
  -0.97000000E+00           0.00000000E+00
  -0.96000000E+00           0.00000000E+00
  -0.95000000E+00           0.00000000E+00
  -0.94000000E+00           0.00000000E+00
  -0.93000000E+00           0.00000000E+00
  -0.92000000E+00           0.00000000E+00
  -0.91000000E+00           0.00000000E+00
  -0.90000000E+00           0.00000000E+00
  -0.89000000E+00           0.00000000E+00
  -0.88000000E+00           0.00000000E+00
  -0.87000000E+00           0.00000000E+00
  -0.86000000E+00           0.00000000E+00
  -0.85000000E+00           0.00000000E+00
  -0.84000000E+00           0.00000000E+00
  -0.83000000E+00           0.00000000E+00
  -0.82000000E+00           0.00000000E+00
  -0.81000000E+00           0.00000000E+00
  -0.80000000E+00           0.00000000E+00
  -0.79000000E+00           0.00000000E+00
  -0.78000000E+00           0.00000000E+00
  -0.77000000E+00           0.00000000E+00
  -0.76000000E+00           0.00000000E+00
  -0.75000000E+00           0.00000000E+00
  -0.74000000E+00           0.00000000E+00
  -0.73000000E+00           0.00000000E+00
  -0.72000000E+00           0.00000000E+00
  -0.71000000E+00           0.00000000E+00
  -0.70000000E+00           0.00000000E+00
  -0.69000000E+00           0.00000000E+00
  -0.68000000E+00           0.00000000E+00
  -0.67000000E+00           0.00000000E+00
  -0.66000000E+00           0.00000000E+00
  -0.65000000E+00           0.00000000E+00
  -0.64000000E+00           0.00000000E+00
  -0.63000000E+00           0.00000000E+00
  -0.62000000E+00           0.00000000E+00
  -0.61000000E+00           0.00000000E+00
  -0.60000000E+00           0.00000000E+00
  -0.59000000E+00           0.00000000E+00
  -0.58000000E+00           0.00000000E+00
  -0.57000000E+00           0.00000000E+00
  -0.56000000E+00           0.00000000E+00
  -0.55000000E+00           0.00000000E+00
  -0.54000000E+00           0.00000000E+00
  -0.53000000E+00           0.00000000E+00
  -0.52000000E+00           0.00000000E+00
  -0.51000000E+00           0.00000000E+00
  -0.50000000E+00           0.00000000E+00
  -0.49000000E+00           0.00000000E+00
  -0.48000000E+00           0.00000000E+00
  -0.47000000E+00           0.00000000E+00
  -0.46000000E+00           0.00000000E+00
  -0.45000000E+00           0.00000000E+00
  -0.44000000E+00           0.00000000E+00
  -0.43000000E+00           0.00000000E+00
  -0.42000000E+00           0.00000000E+00
  -0.41000000E+00           0.00000000E+00
  -0.40000000E+00           0.00000000E+00
  -0.39000000E+00           0.00000000E+00
  -0.38000000E+00           0.00000000E+00
  -0.37000000E+00           0.00000000E+00
  -0.36000000E+00           0.00000000E+00
  -0.35000000E+00           0.00000000E+00
  -0.34000000E+00           0.00000000E+00
  -0.33000000E+00           0.00000000E+00
  -0.32000000E+00           0.00000000E+00
  -0.31000000E+00           0.00000000E+00
  -0.30000000E+00           0.00000000E+00
  -0.29000000E+00           0.00000000E+00
  -0.28000000E+00           0.00000000E+00
  -0.27000000E+00           0.00000000E+00
  -0.26000000E+00           0.00000000E+00
  -0.25000000E+00           0.00000000E+00
  -0.24000000E+00           0.00000000E+00
  -0.23000000E+00           0.00000000E+00
  -0.22000000E+00           0.00000000E+00
  -0.21000000E+00           0.00000000E+00
  -0.20000000E+00           0.00000000E+00
  -0.19000000E+00           0.00000000E+00
  -0.18000000E+00           0.00000000E+00
  -0.17000000E+00           0.00000000E+00
  -0.16000000E+00           0.00000000E+00
  -0.15000000E+00           0.00000000E+00
  -0.14000000E+00           0.00000000E+00
  -0.13000000E+00           0.00000000E+00
  -0.12000000E+00           0.00000000E+00
  -0.11000000E+00           0.00000000E+00
  -0.10000000E+00           0.00000000E+00
  -0.90000000E-01           0.00000000E+00
  -0.80000000E-01           0.00000000E+00
  -0.70000000E-01           0.00000000E+00
  -0.60000000E-01           0.00000000E+00
  -0.50000000E-01           0.00000000E+00
  -0.40000000E-01           0.00000000E+00
  -0.30000000E-01           0.00000000E+00
  -0.20000000E-01           0.00000000E+00
  -0.10000000E-01           0.00000000E+00
   0.00000000E+00           0.00000000E+00
   0.10000000E-01           0.00000000E+00
   0.20000000E-01           0.00000000E+00
   0.30000000E-01           0.00000000E+00
   0.40000000E-01           0.00000000E+00
   0.50000000E-01           0.00000000E+00
   0.60000000E-01           0.00000000E+00
   0.70000000E-01           0.00000000E+00
   0.80000000E-01           0.00000000E+00
   0.90000000E-01           0.00000000E+00
   0.10000000E+00           0.00000000E+00
   0.11000000E+00           0.10000000E-06
   0.12000000E+00           0.00000000E+00
   0.13000000E+00           0.00000000E+00
   0.14000000E+00           0.00000000E+00
   0.15000000E+00           0.00000000E+00
   0.16000000E+00           0.00000000E+00
   0.17000000E+00           0.00000000E+00
   0.18000000E+00           0.00000000E+00
   0.19000000E+00           0.00000000E+00
   0.20000000E+00           0.10000000E-06
   0.21000000E+00           0.00000000E+00
   0.22000000E+00           0.10000000E-06
   0.23000000E+00           0.00000000E+00
   0.24000000E+00           0.00000000E+00
   0.25000000E+00           0.00000000E+00
   0.26000000E+00           0.00000000E+00
   0.27000000E+00           0.10000000E-06
   0.28000000E+00           0.00000000E+00
   0.29000000E+00           0.20000000E-06
   0.30000000E+00           0.00000000E+00
   0.31000000E+00           0.00000000E+00
   0.32000000E+00           0.00000000E+00
   0.33000000E+00           0.10000000E-06
   0.34000000E+00           0.00000000E+00
   0.35000000E+00           0.10000000E-06
   0.36000000E+00           0.10000000E-06
   0.37000000E+00           0.20000000E-06
   0.38000000E+00           0.00000000E+00
   0.39000000E+00           0.00000000E+00
   0.40000000E+00           0.10000000E-06
   0.41000000E+00           0.10000000E-06
   0.42000000E+00           0.30000000E-06
   0.43000000E+00           0.20000000E-06
   0.44000000E+00           0.30000000E-06
   0.45000000E+00           0.40000000E-06
   0.46000000E+00           0.10000000E-06
   0.47000000E+00           0.30000000E-06
   0.48000000E+00           0.50000000E-06
   0.49000000E+00           0.10000000E-06
   0.50000000E+00           0.10000000E-06
   0.51000000E+00           0.10000000E-06
   0.52000000E+00           0.30000000E-06
   0.53000000E+00           0.20000000E-06
   0.54000000E+00           0.50000000E-06
   0.55000000E+00           0.40000000E-06
   0.56000000E+00           0.20000000E-06
   0.57000000E+00           0.40000000E-06
   0.58000000E+00           0.80000000E-06
   0.59000000E+00           0.14000000E-05
   0.60000000E+00           0.15000000E-05
   0.61000000E+00           0.10000000E-05
   0.62000000E+00           0.13000000E-05
   0.63000000E+00           0.80000000E-06
   0.64000000E+00           0.13000000E-05
   0.65000000E+00           0.14000000E-05
   0.66000000E+00           0.17000000E-05
   0.67000000E+00           0.24000000E-05
   0.68000000E+00           0.21000000E-05
   0.69000000E+00           0.19000000E-05
   0.70000000E+00           0.28000000E-05
   0.71000000E+00           0.34000000E-05
   0.72000000E+00           0.39000000E-05
   0.73000000E+00           0.45000000E-05
   0.74000000E+00           0.42000000E-05
   0.75000000E+00           0.56000000E-05
   0.76000000E+00           0.49000000E-05
   0.77000000E+00           0.68000000E-05
   0.78000000E+00           0.70000000E-05
   0.79000000E+00           0.93000000E-05
   0.80000000E+00           0.78000000E-05
   0.81000000E+00           0.11300000E-04
   0.82000000E+00           0.10900000E-04
   0.83000000E+00           0.15600000E-04
   0.84000000E+00           0.18100000E-04
   0.85000000E+00           0.14700000E-04
   0.86000000E+00           0.20000000E-04
   0.87000000E+00           0.24900000E-04
   0.88000000E+00           0.26500000E-04
   0.89000000E+00           0.27300000E-04
   0.90000000E+00           0.35100000E-04
   0.91000000E+00           0.31900000E-04
   0.92000000E+00           0.40400000E-04
   0.93000000E+00           0.50700000E-04
   0.94000000E+00           0.53600000E-04
   0.95000000E+00           0.57700000E-04
   0.96000000E+00           0.61500000E-04
   0.97000000E+00           0.72500000E-04
   0.98000000E+00           0.86600000E-04
   0.99000000E+00           0.89400000E-04
   0.10000000E+01           0.10180000E-03
   0.10100000E+01           0.11710000E-03
   0.10200000E+01           0.13310000E-03
   0.10300000E+01           0.15020000E-03
   0.10400000E+01           0.15890000E-03
   0.10500000E+01           0.19230000E-03
   0.10600000E+01           0.21140000E-03
   0.10700000E+01           0.22460000E-03
   0.10800000E+01           0.25820000E-03
   0.10900000E+01           0.28370000E-03
   0.11000000E+01           0.32290000E-03
   0.11100000E+01           0.37120000E-03
   0.11200000E+01           0.41320000E-03
   0.11300000E+01           0.48440000E-03
   0.11400000E+01           0.51960000E-03
   0.11500000E+01           0.60410000E-03
   0.11600000E+01           0.64670000E-03
   0.11700000E+01           0.76310000E-03
   0.11800000E+01           0.83120000E-03
   0.11900000E+01           0.95840000E-03
   0.12000000E+01           0.10755000E-02
   0.12100000E+01           0.11882000E-02
   0.12200000E+01           0.13498000E-02
   0.12300000E+01           0.14807000E-02
   0.12400000E+01           0.16897000E-02
   0.12500000E+01           0.19011000E-02
   0.12600000E+01           0.21645000E-02
   0.12700000E+01           0.24014000E-02
   0.12800000E+01           0.26965000E-02
   0.12900000E+01           0.29983000E-02
   0.13000000E+01           0.33999000E-02
   0.13100000E+01           0.38031000E-02
   0.13200000E+01           0.42362000E-02
   0.13300000E+01           0.48516000E-02
   0.13400000E+01           0.54046000E-02
   0.13500000E+01           0.60698000E-02
   0.13600000E+01           0.68085000E-02
   0.13700000E+01           0.76353000E-02
   0.13800000E+01           0.86075000E-02
   0.13900000E+01           0.95776000E-02
   0.14000000E+01           0.10779700E-01
   0.14100000E+01           0.12227700E-01
   0.14200000E+01           0.13651900E-01
   0.14300000E+01           0.15375600E-01
   0.14400000E+01           0.17299200E-01
   0.14500000E+01           0.19445600E-01
   0.14600000E+01           0.21827500E-01
   0.14700000E+01           0.24518100E-01
   0.14800000E+01           0.27489400E-01
   0.14900000E+01           0.30945800E-01
   0.15000000E+01           0.34800900E-01
   0.15100000E+01           0.38745000E-01
   0.15200000E+01           0.43848300E-01
   0.15300000E+01           0.49136400E-01
   0.15400000E+01           0.55296600E-01
   0.15500000E+01           0.61963900E-01
   0.15600000E+01           0.69600100E-01
   0.15700000E+01           0.78265200E-01
   0.15800000E+01           0.87864000E-01
   0.15900000E+01           0.98758300E-01
   0.16000000E+01           0.11076860E+00
   0.16100000E+01           0.12436210E+00
   0.16200000E+01           0.13971040E+00
   0.16300000E+01           0.15709830E+00
   0.16400000E+01           0.17627030E+00
   0.16500000E+01           0.19841830E+00
   0.16600000E+01           0.22281170E+00
   0.16700000E+01           0.25009000E+00
   0.16800000E+01           0.28109920E+00
   0.16900000E+01           0.31574150E+00
   0.17000000E+01           0.35450620E+00
   0.17100000E+01           0.39778530E+00
   0.17200000E+01           0.44739780E+00
   0.17300000E+01           0.50285320E+00
   0.17400000E+01           0.56373890E+00
   0.17500000E+01           0.63334120E+00
   0.17600000E+01           0.71211860E+00
   0.17700000E+01           0.79959050E+00
   0.17800000E+01           0.89770770E+00
   0.17900000E+01           0.10095119E+01
   0.18000000E+01           0.11333398E+01
   0.18100000E+01           0.12734296E+01
   0.18200000E+01           0.14300866E+01
   0.18300000E+01           0.16079484E+01
   0.18400000E+01           0.18056237E+01
   0.18500000E+01           0.20279756E+01
   0.18600000E+01           0.22792670E+01
   0.18700000E+01           0.25611572E+01
   0.18800000E+01           0.28788782E+01
   0.18900000E+01           0.32352084E+01
   0.19000000E+01           0.36314362E+01
   0.19100000E+01           0.40825178E+01
   0.19200000E+01           0.45886472E+01
   0.19300000E+01           0.51539690E+01
   0.19400000E+01           0.57917180E+01
   0.19500000E+01           0.65113915E+01
   0.19600000E+01           0.73140026E+01
   0.19700000E+01           0.82186653E+01
   0.19800000E+01           0.92369958E+01
   0.19900000E+01           0.10381078E+02
   0.20000000E+01           0.56619852E+01
 #T=    12.0000
  -0.20000000E+01           0.00000000E+00
  -0.19900000E+01           0.00000000E+00
  -0.19800000E+01           0.00000000E+00
  -0.19700000E+01           0.00000000E+00
  -0.19600000E+01           0.00000000E+00
  -0.19500000E+01           0.00000000E+00
  -0.19400000E+01           0.00000000E+00
  -0.19300000E+01           0.00000000E+00
  -0.19200000E+01           0.00000000E+00
  -0.19100000E+01           0.00000000E+00
  -0.19000000E+01           0.00000000E+00
  -0.18900000E+01           0.00000000E+00
  -0.18800000E+01           0.00000000E+00
  -0.18700000E+01           0.00000000E+00
  -0.18600000E+01           0.00000000E+00
  -0.18500000E+01           0.00000000E+00
  -0.18400000E+01           0.00000000E+00
  -0.18300000E+01           0.00000000E+00
  -0.18200000E+01           0.00000000E+00
  -0.18100000E+01           0.00000000E+00
  -0.18000000E+01           0.00000000E+00
  -0.17900000E+01           0.00000000E+00
  -0.17800000E+01           0.00000000E+00
  -0.17700000E+01           0.00000000E+00
  -0.17600000E+01           0.00000000E+00
  -0.17500000E+01           0.00000000E+00
  -0.17400000E+01           0.00000000E+00
  -0.17300000E+01           0.00000000E+00
  -0.17200000E+01           0.00000000E+00
  -0.17100000E+01           0.00000000E+00
  -0.17000000E+01           0.00000000E+00
  -0.16900000E+01           0.00000000E+00
  -0.16800000E+01           0.00000000E+00
  -0.16700000E+01           0.00000000E+00
  -0.16600000E+01           0.00000000E+00
  -0.16500000E+01           0.00000000E+00
  -0.16400000E+01           0.00000000E+00
  -0.16300000E+01           0.00000000E+00
  -0.16200000E+01           0.00000000E+00
  -0.16100000E+01           0.00000000E+00
  -0.16000000E+01           0.00000000E+00
  -0.15900000E+01           0.00000000E+00
  -0.15800000E+01           0.00000000E+00
  -0.15700000E+01           0.00000000E+00
  -0.15600000E+01           0.00000000E+00
  -0.15500000E+01           0.00000000E+00
  -0.15400000E+01           0.00000000E+00
  -0.15300000E+01           0.00000000E+00
  -0.15200000E+01           0.00000000E+00
  -0.15100000E+01           0.00000000E+00
  -0.15000000E+01           0.00000000E+00
  -0.14900000E+01           0.00000000E+00
  -0.14800000E+01           0.00000000E+00
  -0.14700000E+01           0.00000000E+00
  -0.14600000E+01           0.00000000E+00
  -0.14500000E+01           0.00000000E+00
  -0.14400000E+01           0.00000000E+00
  -0.14300000E+01           0.00000000E+00
  -0.14200000E+01           0.00000000E+00
  -0.14100000E+01           0.00000000E+00
  -0.14000000E+01           0.00000000E+00
  -0.13900000E+01           0.00000000E+00
  -0.13800000E+01           0.00000000E+00
  -0.13700000E+01           0.00000000E+00
  -0.13600000E+01           0.00000000E+00
  -0.13500000E+01           0.00000000E+00
  -0.13400000E+01           0.00000000E+00
  -0.13300000E+01           0.00000000E+00
  -0.13200000E+01           0.00000000E+00
  -0.13100000E+01           0.00000000E+00
  -0.13000000E+01           0.00000000E+00
  -0.12900000E+01           0.00000000E+00
  -0.12800000E+01           0.00000000E+00
  -0.12700000E+01           0.00000000E+00
  -0.12600000E+01           0.00000000E+00
  -0.12500000E+01           0.00000000E+00
  -0.12400000E+01           0.00000000E+00
  -0.12300000E+01           0.00000000E+00
  -0.12200000E+01           0.00000000E+00
  -0.12100000E+01           0.00000000E+00
  -0.12000000E+01           0.00000000E+00
  -0.11900000E+01           0.00000000E+00
  -0.11800000E+01           0.00000000E+00
  -0.11700000E+01           0.00000000E+00
  -0.11600000E+01           0.00000000E+00
  -0.11500000E+01           0.00000000E+00
  -0.11400000E+01           0.00000000E+00
  -0.11300000E+01           0.00000000E+00
  -0.11200000E+01           0.00000000E+00
  -0.11100000E+01           0.00000000E+00
  -0.11000000E+01           0.00000000E+00
  -0.10900000E+01           0.00000000E+00
  -0.10800000E+01           0.00000000E+00
  -0.10700000E+01           0.00000000E+00
  -0.10600000E+01           0.00000000E+00
  -0.10500000E+01           0.00000000E+00
  -0.10400000E+01           0.00000000E+00
  -0.10300000E+01           0.00000000E+00
  -0.10200000E+01           0.00000000E+00
  -0.10100000E+01           0.00000000E+00
  -0.10000000E+01           0.00000000E+00
  -0.99000000E+00           0.00000000E+00
  -0.98000000E+00           0.00000000E+00
  -0.97000000E+00           0.00000000E+00
  -0.96000000E+00           0.00000000E+00
  -0.95000000E+00           0.00000000E+00
  -0.94000000E+00           0.00000000E+00
  -0.93000000E+00           0.00000000E+00
  -0.92000000E+00           0.00000000E+00
  -0.91000000E+00           0.00000000E+00
  -0.90000000E+00           0.00000000E+00
  -0.89000000E+00           0.00000000E+00
  -0.88000000E+00           0.00000000E+00
  -0.87000000E+00           0.00000000E+00
  -0.86000000E+00           0.00000000E+00
  -0.85000000E+00           0.00000000E+00
  -0.84000000E+00           0.00000000E+00
  -0.83000000E+00           0.00000000E+00
  -0.82000000E+00           0.00000000E+00
  -0.81000000E+00           0.00000000E+00
  -0.80000000E+00           0.00000000E+00
  -0.79000000E+00           0.00000000E+00
  -0.78000000E+00           0.00000000E+00
  -0.77000000E+00           0.00000000E+00
  -0.76000000E+00           0.00000000E+00
  -0.75000000E+00           0.00000000E+00
  -0.74000000E+00           0.00000000E+00
  -0.73000000E+00           0.00000000E+00
  -0.72000000E+00           0.00000000E+00
  -0.71000000E+00           0.00000000E+00
  -0.70000000E+00           0.00000000E+00
  -0.69000000E+00           0.00000000E+00
  -0.68000000E+00           0.00000000E+00
  -0.67000000E+00           0.00000000E+00
  -0.66000000E+00           0.00000000E+00
  -0.65000000E+00           0.00000000E+00
  -0.64000000E+00           0.00000000E+00
  -0.63000000E+00           0.00000000E+00
  -0.62000000E+00           0.00000000E+00
  -0.61000000E+00           0.00000000E+00
  -0.60000000E+00           0.00000000E+00
  -0.59000000E+00           0.00000000E+00
  -0.58000000E+00           0.00000000E+00
  -0.57000000E+00           0.00000000E+00
  -0.56000000E+00           0.00000000E+00
  -0.55000000E+00           0.00000000E+00
  -0.54000000E+00           0.00000000E+00
  -0.53000000E+00           0.00000000E+00
  -0.52000000E+00           0.00000000E+00
  -0.51000000E+00           0.00000000E+00
  -0.50000000E+00           0.00000000E+00
  -0.49000000E+00           0.00000000E+00
  -0.48000000E+00           0.00000000E+00
  -0.47000000E+00           0.00000000E+00
  -0.46000000E+00           0.00000000E+00
  -0.45000000E+00           0.00000000E+00
  -0.44000000E+00           0.00000000E+00
  -0.43000000E+00           0.00000000E+00
  -0.42000000E+00           0.00000000E+00
  -0.41000000E+00           0.00000000E+00
  -0.40000000E+00           0.00000000E+00
  -0.39000000E+00           0.00000000E+00
  -0.38000000E+00           0.00000000E+00
  -0.37000000E+00           0.00000000E+00
  -0.36000000E+00           0.00000000E+00
  -0.35000000E+00           0.00000000E+00
  -0.34000000E+00           0.00000000E+00
  -0.33000000E+00           0.00000000E+00
  -0.32000000E+00           0.00000000E+00
  -0.31000000E+00           0.00000000E+00
  -0.30000000E+00           0.00000000E+00
  -0.29000000E+00           0.00000000E+00
  -0.28000000E+00           0.00000000E+00
  -0.27000000E+00           0.00000000E+00
  -0.26000000E+00           0.00000000E+00
  -0.25000000E+00           0.00000000E+00
  -0.24000000E+00           0.00000000E+00
  -0.23000000E+00           0.00000000E+00
  -0.22000000E+00           0.00000000E+00
  -0.21000000E+00           0.00000000E+00
  -0.20000000E+00           0.00000000E+00
  -0.19000000E+00           0.00000000E+00
  -0.18000000E+00           0.00000000E+00
  -0.17000000E+00           0.00000000E+00
  -0.16000000E+00           0.00000000E+00
  -0.15000000E+00           0.00000000E+00
  -0.14000000E+00           0.00000000E+00
  -0.13000000E+00           0.00000000E+00
  -0.12000000E+00           0.00000000E+00
  -0.11000000E+00           0.00000000E+00
  -0.10000000E+00           0.00000000E+00
  -0.90000000E-01           0.00000000E+00
  -0.80000000E-01           0.00000000E+00
  -0.70000000E-01           0.00000000E+00
  -0.60000000E-01           0.00000000E+00
  -0.50000000E-01           0.00000000E+00
  -0.40000000E-01           0.00000000E+00
  -0.30000000E-01           0.00000000E+00
  -0.20000000E-01           0.00000000E+00
  -0.10000000E-01           0.00000000E+00
   0.00000000E+00           0.00000000E+00
   0.10000000E-01           0.00000000E+00
   0.20000000E-01           0.00000000E+00
   0.30000000E-01           0.00000000E+00
   0.40000000E-01           0.00000000E+00
   0.50000000E-01           0.00000000E+00
   0.60000000E-01           0.00000000E+00
   0.70000000E-01           0.00000000E+00
   0.80000000E-01           0.00000000E+00
   0.90000000E-01           0.00000000E+00
   0.10000000E+00           0.00000000E+00
   0.11000000E+00           0.00000000E+00
   0.12000000E+00           0.10000000E-06
   0.13000000E+00           0.00000000E+00
   0.14000000E+00           0.00000000E+00
   0.15000000E+00           0.00000000E+00
   0.16000000E+00           0.00000000E+00
   0.17000000E+00           0.00000000E+00
   0.18000000E+00           0.10000000E-06
   0.19000000E+00           0.00000000E+00
   0.20000000E+00           0.10000000E-06
   0.21000000E+00           0.00000000E+00
   0.22000000E+00           0.00000000E+00
   0.23000000E+00           0.00000000E+00
   0.24000000E+00           0.00000000E+00
   0.25000000E+00           0.10000000E-06
   0.26000000E+00           0.10000000E-06
   0.27000000E+00           0.00000000E+00
   0.28000000E+00           0.00000000E+00
   0.29000000E+00           0.20000000E-06
   0.30000000E+00           0.20000000E-06
   0.31000000E+00           0.10000000E-06
   0.32000000E+00           0.40000000E-06
   0.33000000E+00           0.10000000E-06
   0.34000000E+00           0.20000000E-06
   0.35000000E+00           0.20000000E-06
   0.36000000E+00           0.30000000E-06
   0.37000000E+00           0.30000000E-06
   0.38000000E+00           0.40000000E-06
   0.39000000E+00           0.30000000E-06
   0.40000000E+00           0.60000000E-06
   0.41000000E+00           0.40000000E-06
   0.42000000E+00           0.40000000E-06
   0.43000000E+00           0.50000000E-06
   0.44000000E+00           0.60000000E-06
   0.45000000E+00           0.70000000E-06
   0.46000000E+00           0.70000000E-06
   0.47000000E+00           0.60000000E-06
   0.48000000E+00           0.14000000E-05
   0.49000000E+00           0.90000000E-06
   0.50000000E+00           0.80000000E-06
   0.51000000E+00           0.12000000E-05
   0.52000000E+00           0.14000000E-05
   0.53000000E+00           0.13000000E-05
   0.54000000E+00           0.28000000E-05
   0.55000000E+00           0.18000000E-05
   0.56000000E+00           0.19000000E-05
   0.57000000E+00           0.24000000E-05
   0.58000000E+00           0.43000000E-05
   0.59000000E+00           0.26000000E-05
   0.60000000E+00           0.29000000E-05
   0.61000000E+00           0.44000000E-05
   0.62000000E+00           0.38000000E-05
   0.63000000E+00           0.48000000E-05
   0.64000000E+00           0.59000000E-05
   0.65000000E+00           0.59000000E-05
   0.66000000E+00           0.64000000E-05
   0.67000000E+00           0.69000000E-05
   0.68000000E+00           0.65000000E-05
   0.69000000E+00           0.97000000E-05
   0.70000000E+00           0.95000000E-05
   0.71000000E+00           0.87000000E-05
   0.72000000E+00           0.12700000E-04
   0.73000000E+00           0.14600000E-04
   0.74000000E+00           0.15800000E-04
   0.75000000E+00           0.18900000E-04
   0.76000000E+00           0.20100000E-04
   0.77000000E+00           0.23300000E-04
   0.78000000E+00           0.25900000E-04
   0.79000000E+00           0.27800000E-04
   0.80000000E+00           0.29800000E-04
   0.81000000E+00           0.35700000E-04
   0.82000000E+00           0.39600000E-04
   0.83000000E+00           0.44200000E-04
   0.84000000E+00           0.47900000E-04
   0.85000000E+00           0.53000000E-04
   0.86000000E+00           0.61600000E-04
   0.87000000E+00           0.67000000E-04
   0.88000000E+00           0.75300000E-04
   0.89000000E+00           0.82200000E-04
   0.90000000E+00           0.86900000E-04
   0.91000000E+00           0.10060000E-03
   0.92000000E+00           0.11390000E-03
   0.93000000E+00           0.12660000E-03
   0.94000000E+00           0.13830000E-03
   0.95000000E+00           0.15850000E-03
   0.96000000E+00           0.16430000E-03
   0.97000000E+00           0.20040000E-03
   0.98000000E+00           0.20850000E-03
   0.99000000E+00           0.23180000E-03
   0.10000000E+01           0.25220000E-03
   0.10100000E+01           0.29310000E-03
   0.10200000E+01           0.32410000E-03
   0.10300000E+01           0.37790000E-03
   0.10400000E+01           0.41010000E-03
   0.10500000E+01           0.44820000E-03
   0.10600000E+01           0.52000000E-03
   0.10700000E+01           0.57850000E-03
   0.10800000E+01           0.62890000E-03
   0.10900000E+01           0.69210000E-03
   0.11000000E+01           0.76280000E-03
   0.11100000E+01           0.86280000E-03
   0.11200000E+01           0.94250000E-03
   0.11300000E+01           0.10514000E-02
   0.11400000E+01           0.11619000E-02
   0.11500000E+01           0.13175000E-02
   0.11600000E+01           0.14481000E-02
   0.11700000E+01           0.16273000E-02
   0.11800000E+01           0.18238000E-02
   0.11900000E+01           0.19788000E-02
   0.12000000E+01           0.22173000E-02
   0.12100000E+01           0.24898000E-02
   0.12200000E+01           0.27727000E-02
   0.12300000E+01           0.30581000E-02
   0.12400000E+01           0.34158000E-02
   0.12500000E+01           0.37568000E-02
   0.12600000E+01           0.41880000E-02
   0.12700000E+01           0.47119000E-02
   0.12800000E+01           0.51743000E-02
   0.12900000E+01           0.57470000E-02
   0.13000000E+01           0.64895000E-02
   0.13100000E+01           0.71137000E-02
   0.13200000E+01           0.78618000E-02
   0.13300000E+01           0.88241000E-02
   0.13400000E+01           0.98704000E-02
   0.13500000E+01           0.10950200E-01
   0.13600000E+01           0.12120200E-01
   0.13700000E+01           0.13447900E-01
   0.13800000E+01           0.14935100E-01
   0.13900000E+01           0.16698300E-01
   0.14000000E+01           0.18603100E-01
   0.14100000E+01           0.20481600E-01
   0.14200000E+01           0.22951300E-01
   0.14300000E+01           0.25346700E-01
   0.14400000E+01           0.28229500E-01
   0.14500000E+01           0.31378000E-01
   0.14600000E+01           0.34911000E-01
   0.14700000E+01           0.38998700E-01
   0.14800000E+01           0.43049200E-01
   0.14900000E+01           0.47927700E-01
   0.15000000E+01           0.53403600E-01
   0.15100000E+01           0.59166500E-01
   0.15200000E+01           0.66095200E-01
   0.15300000E+01           0.73341600E-01
   0.15400000E+01           0.81402900E-01
   0.15500000E+01           0.90386600E-01
   0.15600000E+01           0.10039580E+00
   0.15700000E+01           0.11185110E+00
   0.15800000E+01           0.12420960E+00
   0.15900000E+01           0.13780920E+00
   0.16000000E+01           0.15340190E+00
   0.16100000E+01           0.17059800E+00
   0.16200000E+01           0.18948690E+00
   0.16300000E+01           0.21067090E+00
   0.16400000E+01           0.23412920E+00
   0.16500000E+01           0.26047960E+00
   0.16600000E+01           0.28932440E+00
   0.16700000E+01           0.32194980E+00
   0.16800000E+01           0.35693240E+00
   0.16900000E+01           0.39693520E+00
   0.17000000E+01           0.44089400E+00
   0.17100000E+01           0.49072360E+00
   0.17200000E+01           0.54555240E+00
   0.17300000E+01           0.60601280E+00
   0.17400000E+01           0.67411680E+00
   0.17500000E+01           0.74914030E+00
   0.17600000E+01           0.83280960E+00
   0.17700000E+01           0.92550790E+00
   0.17800000E+01           0.10285830E+01
   0.17900000E+01           0.11437471E+01
   0.18000000E+01           0.12701752E+01
   0.18100000E+01           0.14142027E+01
   0.18200000E+01           0.15724350E+01
   0.18300000E+01           0.17471997E+01
   0.18400000E+01           0.19435904E+01
   0.18500000E+01           0.21592549E+01
   0.18600000E+01           0.24019757E+01
   0.18700000E+01           0.26703953E+01
   0.18800000E+01           0.29695362E+01
   0.18900000E+01           0.33025302E+01
   0.19000000E+01           0.36714698E+01
   0.19100000E+01           0.40819426E+01
   0.19200000E+01           0.45389347E+01
   0.19300000E+01           0.50463141E+01
   0.19400000E+01           0.56128592E+01
   0.19500000E+01           0.62415246E+01
   0.19600000E+01           0.69423718E+01
   0.19700000E+01           0.77165178E+01
   0.19800000E+01           0.85867875E+01
   0.19900000E+01           0.95464329E+01
   0.20000000E+01           0.51669390E+01
 #T=    13.0000
  -0.20000000E+01           0.00000000E+00
  -0.19900000E+01           0.00000000E+00
  -0.19800000E+01           0.00000000E+00
  -0.19700000E+01           0.00000000E+00
  -0.19600000E+01           0.00000000E+00
  -0.19500000E+01           0.00000000E+00
  -0.19400000E+01           0.00000000E+00
  -0.19300000E+01           0.00000000E+00
  -0.19200000E+01           0.00000000E+00
  -0.19100000E+01           0.00000000E+00
  -0.19000000E+01           0.00000000E+00
  -0.18900000E+01           0.00000000E+00
  -0.18800000E+01           0.00000000E+00
  -0.18700000E+01           0.00000000E+00
  -0.18600000E+01           0.00000000E+00
  -0.18500000E+01           0.00000000E+00
  -0.18400000E+01           0.00000000E+00
  -0.18300000E+01           0.00000000E+00
  -0.18200000E+01           0.00000000E+00
  -0.18100000E+01           0.00000000E+00
  -0.18000000E+01           0.00000000E+00
  -0.17900000E+01           0.00000000E+00
  -0.17800000E+01           0.00000000E+00
  -0.17700000E+01           0.00000000E+00
  -0.17600000E+01           0.00000000E+00
  -0.17500000E+01           0.00000000E+00
  -0.17400000E+01           0.00000000E+00
  -0.17300000E+01           0.00000000E+00
  -0.17200000E+01           0.00000000E+00
  -0.17100000E+01           0.00000000E+00
  -0.17000000E+01           0.00000000E+00
  -0.16900000E+01           0.00000000E+00
  -0.16800000E+01           0.00000000E+00
  -0.16700000E+01           0.00000000E+00
  -0.16600000E+01           0.00000000E+00
  -0.16500000E+01           0.00000000E+00
  -0.16400000E+01           0.00000000E+00
  -0.16300000E+01           0.00000000E+00
  -0.16200000E+01           0.00000000E+00
  -0.16100000E+01           0.00000000E+00
  -0.16000000E+01           0.00000000E+00
  -0.15900000E+01           0.00000000E+00
  -0.15800000E+01           0.00000000E+00
  -0.15700000E+01           0.00000000E+00
  -0.15600000E+01           0.00000000E+00
  -0.15500000E+01           0.00000000E+00
  -0.15400000E+01           0.00000000E+00
  -0.15300000E+01           0.00000000E+00
  -0.15200000E+01           0.00000000E+00
  -0.15100000E+01           0.00000000E+00
  -0.15000000E+01           0.00000000E+00
  -0.14900000E+01           0.00000000E+00
  -0.14800000E+01           0.00000000E+00
  -0.14700000E+01           0.00000000E+00
  -0.14600000E+01           0.00000000E+00
  -0.14500000E+01           0.00000000E+00
  -0.14400000E+01           0.00000000E+00
  -0.14300000E+01           0.00000000E+00
  -0.14200000E+01           0.00000000E+00
  -0.14100000E+01           0.00000000E+00
  -0.14000000E+01           0.00000000E+00
  -0.13900000E+01           0.00000000E+00
  -0.13800000E+01           0.00000000E+00
  -0.13700000E+01           0.00000000E+00
  -0.13600000E+01           0.00000000E+00
  -0.13500000E+01           0.00000000E+00
  -0.13400000E+01           0.00000000E+00
  -0.13300000E+01           0.00000000E+00
  -0.13200000E+01           0.00000000E+00
  -0.13100000E+01           0.00000000E+00
  -0.13000000E+01           0.00000000E+00
  -0.12900000E+01           0.00000000E+00
  -0.12800000E+01           0.00000000E+00
  -0.12700000E+01           0.00000000E+00
  -0.12600000E+01           0.00000000E+00
  -0.12500000E+01           0.00000000E+00
  -0.12400000E+01           0.00000000E+00
  -0.12300000E+01           0.00000000E+00
  -0.12200000E+01           0.00000000E+00
  -0.12100000E+01           0.00000000E+00
  -0.12000000E+01           0.00000000E+00
  -0.11900000E+01           0.00000000E+00
  -0.11800000E+01           0.00000000E+00
  -0.11700000E+01           0.00000000E+00
  -0.11600000E+01           0.00000000E+00
  -0.11500000E+01           0.00000000E+00
  -0.11400000E+01           0.00000000E+00
  -0.11300000E+01           0.00000000E+00
  -0.11200000E+01           0.00000000E+00
  -0.11100000E+01           0.00000000E+00
  -0.11000000E+01           0.00000000E+00
  -0.10900000E+01           0.00000000E+00
  -0.10800000E+01           0.00000000E+00
  -0.10700000E+01           0.00000000E+00
  -0.10600000E+01           0.00000000E+00
  -0.10500000E+01           0.00000000E+00
  -0.10400000E+01           0.00000000E+00
  -0.10300000E+01           0.00000000E+00
  -0.10200000E+01           0.00000000E+00
  -0.10100000E+01           0.00000000E+00
  -0.10000000E+01           0.00000000E+00
  -0.99000000E+00           0.00000000E+00
  -0.98000000E+00           0.00000000E+00
  -0.97000000E+00           0.00000000E+00
  -0.96000000E+00           0.00000000E+00
  -0.95000000E+00           0.00000000E+00
  -0.94000000E+00           0.00000000E+00
  -0.93000000E+00           0.00000000E+00
  -0.92000000E+00           0.00000000E+00
  -0.91000000E+00           0.00000000E+00
  -0.90000000E+00           0.00000000E+00
  -0.89000000E+00           0.00000000E+00
  -0.88000000E+00           0.00000000E+00
  -0.87000000E+00           0.00000000E+00
  -0.86000000E+00           0.00000000E+00
  -0.85000000E+00           0.00000000E+00
  -0.84000000E+00           0.00000000E+00
  -0.83000000E+00           0.00000000E+00
  -0.82000000E+00           0.00000000E+00
  -0.81000000E+00           0.00000000E+00
  -0.80000000E+00           0.00000000E+00
  -0.79000000E+00           0.00000000E+00
  -0.78000000E+00           0.00000000E+00
  -0.77000000E+00           0.00000000E+00
  -0.76000000E+00           0.00000000E+00
  -0.75000000E+00           0.00000000E+00
  -0.74000000E+00           0.00000000E+00
  -0.73000000E+00           0.00000000E+00
  -0.72000000E+00           0.00000000E+00
  -0.71000000E+00           0.00000000E+00
  -0.70000000E+00           0.00000000E+00
  -0.69000000E+00           0.00000000E+00
  -0.68000000E+00           0.00000000E+00
  -0.67000000E+00           0.00000000E+00
  -0.66000000E+00           0.00000000E+00
  -0.65000000E+00           0.00000000E+00
  -0.64000000E+00           0.00000000E+00
  -0.63000000E+00           0.00000000E+00
  -0.62000000E+00           0.00000000E+00
  -0.61000000E+00           0.00000000E+00
  -0.60000000E+00           0.00000000E+00
  -0.59000000E+00           0.00000000E+00
  -0.58000000E+00           0.00000000E+00
  -0.57000000E+00           0.00000000E+00
  -0.56000000E+00           0.00000000E+00
  -0.55000000E+00           0.00000000E+00
  -0.54000000E+00           0.00000000E+00
  -0.53000000E+00           0.00000000E+00
  -0.52000000E+00           0.00000000E+00
  -0.51000000E+00           0.00000000E+00
  -0.50000000E+00           0.00000000E+00
  -0.49000000E+00           0.00000000E+00
  -0.48000000E+00           0.00000000E+00
  -0.47000000E+00           0.00000000E+00
  -0.46000000E+00           0.00000000E+00
  -0.45000000E+00           0.00000000E+00
  -0.44000000E+00           0.00000000E+00
  -0.43000000E+00           0.00000000E+00
  -0.42000000E+00           0.00000000E+00
  -0.41000000E+00           0.00000000E+00
  -0.40000000E+00           0.00000000E+00
  -0.39000000E+00           0.00000000E+00
  -0.38000000E+00           0.00000000E+00
  -0.37000000E+00           0.00000000E+00
  -0.36000000E+00           0.00000000E+00
  -0.35000000E+00           0.00000000E+00
  -0.34000000E+00           0.00000000E+00
  -0.33000000E+00           0.00000000E+00
  -0.32000000E+00           0.00000000E+00
  -0.31000000E+00           0.00000000E+00
  -0.30000000E+00           0.00000000E+00
  -0.29000000E+00           0.00000000E+00
  -0.28000000E+00           0.00000000E+00
  -0.27000000E+00           0.00000000E+00
  -0.26000000E+00           0.00000000E+00
  -0.25000000E+00           0.00000000E+00
  -0.24000000E+00           0.00000000E+00
  -0.23000000E+00           0.00000000E+00
  -0.22000000E+00           0.00000000E+00
  -0.21000000E+00           0.00000000E+00
  -0.20000000E+00           0.00000000E+00
  -0.19000000E+00           0.00000000E+00
  -0.18000000E+00           0.00000000E+00
  -0.17000000E+00           0.00000000E+00
  -0.16000000E+00           0.00000000E+00
  -0.15000000E+00           0.00000000E+00
  -0.14000000E+00           0.00000000E+00
  -0.13000000E+00           0.00000000E+00
  -0.12000000E+00           0.00000000E+00
  -0.11000000E+00           0.00000000E+00
  -0.10000000E+00           0.00000000E+00
  -0.90000000E-01           0.00000000E+00
  -0.80000000E-01           0.00000000E+00
  -0.70000000E-01           0.00000000E+00
  -0.60000000E-01           0.00000000E+00
  -0.50000000E-01           0.00000000E+00
  -0.40000000E-01           0.00000000E+00
  -0.30000000E-01           0.00000000E+00
  -0.20000000E-01           0.00000000E+00
  -0.10000000E-01           0.00000000E+00
   0.00000000E+00           0.00000000E+00
   0.10000000E-01           0.00000000E+00
   0.20000000E-01           0.00000000E+00
   0.30000000E-01           0.00000000E+00
   0.40000000E-01           0.00000000E+00
   0.50000000E-01           0.00000000E+00
   0.60000000E-01           0.00000000E+00
   0.70000000E-01           0.00000000E+00
   0.80000000E-01           0.00000000E+00
   0.90000000E-01           0.00000000E+00
   0.10000000E+00           0.00000000E+00
   0.11000000E+00           0.00000000E+00
   0.12000000E+00           0.10000000E-06
   0.13000000E+00           0.00000000E+00
   0.14000000E+00           0.10000000E-06
   0.15000000E+00           0.10000000E-06
   0.16000000E+00           0.10000000E-06
   0.17000000E+00           0.20000000E-06
   0.18000000E+00           0.20000000E-06
   0.19000000E+00           0.30000000E-06
   0.20000000E+00           0.20000000E-06
   0.21000000E+00           0.00000000E+00
   0.22000000E+00           0.30000000E-06
   0.23000000E+00           0.30000000E-06
   0.24000000E+00           0.00000000E+00
   0.25000000E+00           0.30000000E-06
   0.26000000E+00           0.50000000E-06
   0.27000000E+00           0.20000000E-06
   0.28000000E+00           0.20000000E-06
   0.29000000E+00           0.40000000E-06
   0.30000000E+00           0.10000000E-05
   0.31000000E+00           0.30000000E-06
   0.32000000E+00           0.50000000E-06
   0.33000000E+00           0.70000000E-06
   0.34000000E+00           0.90000000E-06
   0.35000000E+00           0.15000000E-05
   0.36000000E+00           0.10000000E-05
   0.37000000E+00           0.50000000E-06
   0.38000000E+00           0.16000000E-05
   0.39000000E+00           0.13000000E-05
   0.40000000E+00           0.20000000E-05
   0.41000000E+00           0.19000000E-05
   0.42000000E+00           0.16000000E-05
   0.43000000E+00           0.21000000E-05
   0.44000000E+00           0.27000000E-05
   0.45000000E+00           0.25000000E-05
   0.46000000E+00           0.27000000E-05
   0.47000000E+00           0.30000000E-05
   0.48000000E+00           0.34000000E-05
   0.49000000E+00           0.32000000E-05
   0.50000000E+00           0.43000000E-05
   0.51000000E+00           0.47000000E-05
   0.52000000E+00           0.52000000E-05
   0.53000000E+00           0.53000000E-05
   0.54000000E+00           0.57000000E-05
   0.55000000E+00           0.57000000E-05
   0.56000000E+00           0.10200000E-04
   0.57000000E+00           0.85000000E-05
   0.58000000E+00           0.81000000E-05
   0.59000000E+00           0.99000000E-05
   0.60000000E+00           0.10700000E-04
   0.61000000E+00           0.12200000E-04
   0.62000000E+00           0.12900000E-04
   0.63000000E+00           0.13300000E-04
   0.64000000E+00           0.15500000E-04
   0.65000000E+00           0.21000000E-04
   0.66000000E+00           0.19700000E-04
   0.67000000E+00           0.24300000E-04
   0.68000000E+00           0.26900000E-04
   0.69000000E+00           0.28800000E-04
   0.70000000E+00           0.27700000E-04
   0.71000000E+00           0.34700000E-04
   0.72000000E+00           0.37100000E-04
   0.73000000E+00           0.42200000E-04
   0.74000000E+00           0.48400000E-04
   0.75000000E+00           0.53800000E-04
   0.76000000E+00           0.55200000E-04
   0.77000000E+00           0.59400000E-04
   0.78000000E+00           0.67100000E-04
   0.79000000E+00           0.73600000E-04
   0.80000000E+00           0.89600000E-04
   0.81000000E+00           0.95600000E-04
   0.82000000E+00           0.10040000E-03
   0.83000000E+00           0.10990000E-03
   0.84000000E+00           0.12400000E-03
   0.85000000E+00           0.13360000E-03
   0.86000000E+00           0.15030000E-03
   0.87000000E+00           0.16100000E-03
   0.88000000E+00           0.18300000E-03
   0.89000000E+00           0.20520000E-03
   0.90000000E+00           0.22160000E-03
   0.91000000E+00           0.24750000E-03
   0.92000000E+00           0.27570000E-03
   0.93000000E+00           0.29410000E-03
   0.94000000E+00           0.33350000E-03
   0.95000000E+00           0.37060000E-03
   0.96000000E+00           0.38230000E-03
   0.97000000E+00           0.45110000E-03
   0.98000000E+00           0.49530000E-03
   0.99000000E+00           0.54460000E-03
   0.10000000E+01           0.58130000E-03
   0.10100000E+01           0.66650000E-03
   0.10200000E+01           0.74100000E-03
   0.10300000E+01           0.79870000E-03
   0.10400000E+01           0.87250000E-03
   0.10500000E+01           0.94100000E-03
   0.10600000E+01           0.10737000E-02
   0.10700000E+01           0.11772000E-02
   0.10800000E+01           0.13076000E-02
   0.10900000E+01           0.14269000E-02
   0.11000000E+01           0.15880000E-02
   0.11100000E+01           0.17468000E-02
   0.11200000E+01           0.19264000E-02
   0.11300000E+01           0.21122000E-02
   0.11400000E+01           0.23245000E-02
   0.11500000E+01           0.25635000E-02
   0.11600000E+01           0.27814000E-02
   0.11700000E+01           0.30955000E-02
   0.11800000E+01           0.34212000E-02
   0.11900000E+01           0.38140000E-02
   0.12000000E+01           0.41689000E-02
   0.12100000E+01           0.45861000E-02
   0.12200000E+01           0.50626000E-02
   0.12300000E+01           0.56306000E-02
   0.12400000E+01           0.61424000E-02
   0.12500000E+01           0.67681000E-02
   0.12600000E+01           0.74288000E-02
   0.12700000E+01           0.82442000E-02
   0.12800000E+01           0.90177000E-02
   0.12900000E+01           0.99932000E-02
   0.13000000E+01           0.10975300E-01
   0.13100000E+01           0.12086000E-01
   0.13200000E+01           0.13378700E-01
   0.13300000E+01           0.14665700E-01
   0.13400000E+01           0.16292600E-01
   0.13500000E+01           0.17746700E-01
   0.13600000E+01           0.19553500E-01
   0.13700000E+01           0.21657700E-01
   0.13800000E+01           0.23896500E-01
   0.13900000E+01           0.26191500E-01
   0.14000000E+01           0.29097500E-01
   0.14100000E+01           0.31953600E-01
   0.14200000E+01           0.35147900E-01
   0.14300000E+01           0.38645000E-01
   0.14400000E+01           0.42609100E-01
   0.14500000E+01           0.47008200E-01
   0.14600000E+01           0.51643600E-01
   0.14700000E+01           0.56847600E-01
   0.14800000E+01           0.62696500E-01
   0.14900000E+01           0.69048700E-01
   0.15000000E+01           0.76114200E-01
   0.15100000E+01           0.83983800E-01
   0.15200000E+01           0.92575300E-01
   0.15300000E+01           0.10202470E+00
   0.15400000E+01           0.11227200E+00
   0.15500000E+01           0.12356250E+00
   0.15600000E+01           0.13587030E+00
   0.15700000E+01           0.14995070E+00
   0.15800000E+01           0.16524040E+00
   0.15900000E+01           0.18194480E+00
   0.16000000E+01           0.20067440E+00
   0.16100000E+01           0.22092790E+00
   0.16200000E+01           0.24331970E+00
   0.16300000E+01           0.26810670E+00
   0.16400000E+01           0.29531160E+00
   0.16500000E+01           0.32513780E+00
   0.16600000E+01           0.35859260E+00
   0.16700000E+01           0.39507820E+00
   0.16800000E+01           0.43545880E+00
   0.16900000E+01           0.48010300E+00
   0.17000000E+01           0.52817300E+00
   0.17100000E+01           0.58163430E+00
   0.17200000E+01           0.64094560E+00
   0.17300000E+01           0.70563820E+00
   0.17400000E+01           0.77788090E+00
   0.17500000E+01           0.85755210E+00
   0.17600000E+01           0.94446740E+00
   0.17700000E+01           0.10413525E+01
   0.17800000E+01           0.11469106E+01
   0.17900000E+01           0.12632462E+01
   0.18000000E+01           0.13913266E+01
   0.18100000E+01           0.15343655E+01
   0.18200000E+01           0.16896986E+01
   0.18300000E+01           0.18622425E+01
   0.18400000E+01           0.20527842E+01
   0.18500000E+01           0.22615252E+01
   0.18600000E+01           0.24937650E+01
   0.18700000E+01           0.27452253E+01
   0.18800000E+01           0.30270655E+01
   0.18900000E+01           0.33338544E+01
   0.19000000E+01           0.36758763E+01
   0.19100000E+01           0.40512721E+01
   0.19200000E+01           0.44644285E+01
   0.19300000E+01           0.49199754E+01
   0.19400000E+01           0.54252894E+01
   0.19500000E+01           0.59773044E+01
   0.19600000E+01           0.65882278E+01
   0.19700000E+01           0.72588912E+01
   0.19800000E+01           0.80024398E+01
   0.19900000E+01           0.88178531E+01
   0.20000000E+01           0.47436357E+01
 #T=    14.0000
  -0.20000000E+01           0.00000000E+00
  -0.19900000E+01           0.00000000E+00
  -0.19800000E+01           0.00000000E+00
  -0.19700000E+01           0.00000000E+00
  -0.19600000E+01           0.00000000E+00
  -0.19500000E+01           0.00000000E+00
  -0.19400000E+01           0.00000000E+00
  -0.19300000E+01           0.00000000E+00
  -0.19200000E+01           0.00000000E+00
  -0.19100000E+01           0.00000000E+00
  -0.19000000E+01           0.00000000E+00
  -0.18900000E+01           0.00000000E+00
  -0.18800000E+01           0.00000000E+00
  -0.18700000E+01           0.00000000E+00
  -0.18600000E+01           0.00000000E+00
  -0.18500000E+01           0.00000000E+00
  -0.18400000E+01           0.00000000E+00
  -0.18300000E+01           0.00000000E+00
  -0.18200000E+01           0.00000000E+00
  -0.18100000E+01           0.00000000E+00
  -0.18000000E+01           0.00000000E+00
  -0.17900000E+01           0.00000000E+00
  -0.17800000E+01           0.00000000E+00
  -0.17700000E+01           0.00000000E+00
  -0.17600000E+01           0.00000000E+00
  -0.17500000E+01           0.00000000E+00
  -0.17400000E+01           0.00000000E+00
  -0.17300000E+01           0.00000000E+00
  -0.17200000E+01           0.00000000E+00
  -0.17100000E+01           0.00000000E+00
  -0.17000000E+01           0.00000000E+00
  -0.16900000E+01           0.00000000E+00
  -0.16800000E+01           0.00000000E+00
  -0.16700000E+01           0.00000000E+00
  -0.16600000E+01           0.00000000E+00
  -0.16500000E+01           0.00000000E+00
  -0.16400000E+01           0.00000000E+00
  -0.16300000E+01           0.00000000E+00
  -0.16200000E+01           0.00000000E+00
  -0.16100000E+01           0.00000000E+00
  -0.16000000E+01           0.00000000E+00
  -0.15900000E+01           0.00000000E+00
  -0.15800000E+01           0.00000000E+00
  -0.15700000E+01           0.00000000E+00
  -0.15600000E+01           0.00000000E+00
  -0.15500000E+01           0.00000000E+00
  -0.15400000E+01           0.00000000E+00
  -0.15300000E+01           0.00000000E+00
  -0.15200000E+01           0.00000000E+00
  -0.15100000E+01           0.00000000E+00
  -0.15000000E+01           0.00000000E+00
  -0.14900000E+01           0.00000000E+00
  -0.14800000E+01           0.00000000E+00
  -0.14700000E+01           0.00000000E+00
  -0.14600000E+01           0.00000000E+00
  -0.14500000E+01           0.00000000E+00
  -0.14400000E+01           0.00000000E+00
  -0.14300000E+01           0.00000000E+00
  -0.14200000E+01           0.00000000E+00
  -0.14100000E+01           0.00000000E+00
  -0.14000000E+01           0.00000000E+00
  -0.13900000E+01           0.00000000E+00
  -0.13800000E+01           0.00000000E+00
  -0.13700000E+01           0.00000000E+00
  -0.13600000E+01           0.00000000E+00
  -0.13500000E+01           0.00000000E+00
  -0.13400000E+01           0.00000000E+00
  -0.13300000E+01           0.00000000E+00
  -0.13200000E+01           0.00000000E+00
  -0.13100000E+01           0.00000000E+00
  -0.13000000E+01           0.00000000E+00
  -0.12900000E+01           0.00000000E+00
  -0.12800000E+01           0.00000000E+00
  -0.12700000E+01           0.00000000E+00
  -0.12600000E+01           0.00000000E+00
  -0.12500000E+01           0.00000000E+00
  -0.12400000E+01           0.00000000E+00
  -0.12300000E+01           0.00000000E+00
  -0.12200000E+01           0.00000000E+00
  -0.12100000E+01           0.00000000E+00
  -0.12000000E+01           0.00000000E+00
  -0.11900000E+01           0.00000000E+00
  -0.11800000E+01           0.00000000E+00
  -0.11700000E+01           0.00000000E+00
  -0.11600000E+01           0.00000000E+00
  -0.11500000E+01           0.00000000E+00
  -0.11400000E+01           0.00000000E+00
  -0.11300000E+01           0.00000000E+00
  -0.11200000E+01           0.00000000E+00
  -0.11100000E+01           0.00000000E+00
  -0.11000000E+01           0.00000000E+00
  -0.10900000E+01           0.00000000E+00
  -0.10800000E+01           0.00000000E+00
  -0.10700000E+01           0.00000000E+00
  -0.10600000E+01           0.00000000E+00
  -0.10500000E+01           0.00000000E+00
  -0.10400000E+01           0.00000000E+00
  -0.10300000E+01           0.00000000E+00
  -0.10200000E+01           0.00000000E+00
  -0.10100000E+01           0.00000000E+00
  -0.10000000E+01           0.00000000E+00
  -0.99000000E+00           0.00000000E+00
  -0.98000000E+00           0.00000000E+00
  -0.97000000E+00           0.00000000E+00
  -0.96000000E+00           0.00000000E+00
  -0.95000000E+00           0.00000000E+00
  -0.94000000E+00           0.00000000E+00
  -0.93000000E+00           0.00000000E+00
  -0.92000000E+00           0.00000000E+00
  -0.91000000E+00           0.00000000E+00
  -0.90000000E+00           0.00000000E+00
  -0.89000000E+00           0.00000000E+00
  -0.88000000E+00           0.00000000E+00
  -0.87000000E+00           0.00000000E+00
  -0.86000000E+00           0.00000000E+00
  -0.85000000E+00           0.00000000E+00
  -0.84000000E+00           0.00000000E+00
  -0.83000000E+00           0.00000000E+00
  -0.82000000E+00           0.00000000E+00
  -0.81000000E+00           0.00000000E+00
  -0.80000000E+00           0.00000000E+00
  -0.79000000E+00           0.00000000E+00
  -0.78000000E+00           0.00000000E+00
  -0.77000000E+00           0.00000000E+00
  -0.76000000E+00           0.00000000E+00
  -0.75000000E+00           0.00000000E+00
  -0.74000000E+00           0.00000000E+00
  -0.73000000E+00           0.00000000E+00
  -0.72000000E+00           0.00000000E+00
  -0.71000000E+00           0.00000000E+00
  -0.70000000E+00           0.00000000E+00
  -0.69000000E+00           0.00000000E+00
  -0.68000000E+00           0.00000000E+00
  -0.67000000E+00           0.00000000E+00
  -0.66000000E+00           0.00000000E+00
  -0.65000000E+00           0.00000000E+00
  -0.64000000E+00           0.00000000E+00
  -0.63000000E+00           0.00000000E+00
  -0.62000000E+00           0.00000000E+00
  -0.61000000E+00           0.00000000E+00
  -0.60000000E+00           0.00000000E+00
  -0.59000000E+00           0.00000000E+00
  -0.58000000E+00           0.00000000E+00
  -0.57000000E+00           0.00000000E+00
  -0.56000000E+00           0.00000000E+00
  -0.55000000E+00           0.00000000E+00
  -0.54000000E+00           0.00000000E+00
  -0.53000000E+00           0.00000000E+00
  -0.52000000E+00           0.00000000E+00
  -0.51000000E+00           0.00000000E+00
  -0.50000000E+00           0.00000000E+00
  -0.49000000E+00           0.00000000E+00
  -0.48000000E+00           0.00000000E+00
  -0.47000000E+00           0.00000000E+00
  -0.46000000E+00           0.00000000E+00
  -0.45000000E+00           0.00000000E+00
  -0.44000000E+00           0.00000000E+00
  -0.43000000E+00           0.00000000E+00
  -0.42000000E+00           0.00000000E+00
  -0.41000000E+00           0.00000000E+00
  -0.40000000E+00           0.00000000E+00
  -0.39000000E+00           0.00000000E+00
  -0.38000000E+00           0.00000000E+00
  -0.37000000E+00           0.00000000E+00
  -0.36000000E+00           0.00000000E+00
  -0.35000000E+00           0.00000000E+00
  -0.34000000E+00           0.00000000E+00
  -0.33000000E+00           0.00000000E+00
  -0.32000000E+00           0.00000000E+00
  -0.31000000E+00           0.00000000E+00
  -0.30000000E+00           0.00000000E+00
  -0.29000000E+00           0.00000000E+00
  -0.28000000E+00           0.00000000E+00
  -0.27000000E+00           0.00000000E+00
  -0.26000000E+00           0.00000000E+00
  -0.25000000E+00           0.00000000E+00
  -0.24000000E+00           0.00000000E+00
  -0.23000000E+00           0.00000000E+00
  -0.22000000E+00           0.00000000E+00
  -0.21000000E+00           0.00000000E+00
  -0.20000000E+00           0.00000000E+00
  -0.19000000E+00           0.00000000E+00
  -0.18000000E+00           0.00000000E+00
  -0.17000000E+00           0.00000000E+00
  -0.16000000E+00           0.00000000E+00
  -0.15000000E+00           0.00000000E+00
  -0.14000000E+00           0.00000000E+00
  -0.13000000E+00           0.00000000E+00
  -0.12000000E+00           0.00000000E+00
  -0.11000000E+00           0.00000000E+00
  -0.10000000E+00           0.00000000E+00
  -0.90000000E-01           0.00000000E+00
  -0.80000000E-01           0.00000000E+00
  -0.70000000E-01           0.00000000E+00
  -0.60000000E-01           0.00000000E+00
  -0.50000000E-01           0.00000000E+00
  -0.40000000E-01           0.00000000E+00
  -0.30000000E-01           0.00000000E+00
  -0.20000000E-01           0.00000000E+00
  -0.10000000E-01           0.00000000E+00
   0.00000000E+00           0.00000000E+00
   0.10000000E-01           0.00000000E+00
   0.20000000E-01           0.00000000E+00
   0.30000000E-01           0.00000000E+00
   0.40000000E-01           0.20000000E-06
   0.50000000E-01           0.00000000E+00
   0.60000000E-01           0.00000000E+00
   0.70000000E-01           0.00000000E+00
   0.80000000E-01           0.00000000E+00
   0.90000000E-01           0.20000000E-06
   0.10000000E+00           0.10000000E-06
   0.11000000E+00           0.30000000E-06
   0.12000000E+00           0.00000000E+00
   0.13000000E+00           0.30000000E-06
   0.14000000E+00           0.50000000E-06
   0.15000000E+00           0.20000000E-06
   0.16000000E+00           0.20000000E-06
   0.17000000E+00           0.60000000E-06
   0.18000000E+00           0.15000000E-05
   0.19000000E+00           0.11000000E-05
   0.20000000E+00           0.60000000E-06
   0.21000000E+00           0.80000000E-06
   0.22000000E+00           0.50000000E-06
   0.23000000E+00           0.60000000E-06
   0.24000000E+00           0.60000000E-06
   0.25000000E+00           0.90000000E-06
   0.26000000E+00           0.13000000E-05
   0.27000000E+00           0.20000000E-05
   0.28000000E+00           0.21000000E-05
   0.29000000E+00           0.13000000E-05
   0.30000000E+00           0.18000000E-05
   0.31000000E+00           0.17000000E-05
   0.32000000E+00           0.17000000E-05
   0.33000000E+00           0.19000000E-05
   0.34000000E+00           0.36000000E-05
   0.35000000E+00           0.27000000E-05
   0.36000000E+00           0.26000000E-05
   0.37000000E+00           0.21000000E-05
   0.38000000E+00           0.29000000E-05
   0.39000000E+00           0.26000000E-05
   0.40000000E+00           0.46000000E-05
   0.41000000E+00           0.52000000E-05
   0.42000000E+00           0.51000000E-05
   0.43000000E+00           0.67000000E-05
   0.44000000E+00           0.68000000E-05
   0.45000000E+00           0.55000000E-05
   0.46000000E+00           0.87000000E-05
   0.47000000E+00           0.91000000E-05
   0.48000000E+00           0.95000000E-05
   0.49000000E+00           0.11500000E-04
[...]
   0.13800000E+01           0.68274630E+00
   0.13900000E+01           0.68921180E+00
   0.14000000E+01           0.69543710E+00
   0.14100000E+01           0.70202350E+00
   0.14200000E+01           0.70853410E+00
   0.14300000E+01           0.71470180E+00
   0.14400000E+01           0.72143770E+00
   0.14500000E+01           0.72760840E+00
   0.14600000E+01           0.73426680E+00
   0.14700000E+01           0.74117880E+00
   0.14800000E+01           0.74794060E+00
   0.14900000E+01           0.75417200E+00
   0.15000000E+01           0.76103890E+00
   0.15100000E+01           0.76803610E+00
   0.15200000E+01           0.77431850E+00
   0.15300000E+01           0.78120960E+00
   0.15400000E+01           0.78799630E+00
   0.15500000E+01           0.79519580E+00
   0.15600000E+01           0.80194110E+00
   0.15700000E+01           0.80891240E+00
   0.15800000E+01           0.81616730E+00
   0.15900000E+01           0.82281490E+00
   0.16000000E+01           0.83008520E+00
   0.16100000E+01           0.83734140E+00
   0.16200000E+01           0.84393830E+00
   0.16300000E+01           0.85127190E+00
   0.16400000E+01           0.85885760E+00
   0.16500000E+01           0.86621350E+00
   0.16600000E+01           0.87322670E+00
   0.16700000E+01           0.88040380E+00
   0.16800000E+01           0.88797330E+00
   0.16900000E+01           0.89553650E+00
   0.17000000E+01           0.90313630E+00
   0.17100000E+01           0.91041690E+00
   0.17200000E+01           0.91805960E+00
   0.17300000E+01           0.92588530E+00
   0.17400000E+01           0.93363020E+00
   0.17500000E+01           0.94148530E+00
   0.17600000E+01           0.94944270E+00
   0.17700000E+01           0.95703830E+00
   0.17800000E+01           0.96451560E+00
   0.17900000E+01           0.97221120E+00
   0.18000000E+01           0.98048090E+00
   0.18100000E+01           0.98821770E+00
   0.18200000E+01           0.99661660E+00
   0.18300000E+01           0.10053988E+01
   0.18400000E+01           0.10131202E+01
   0.18500000E+01           0.10211872E+01
   0.18600000E+01           0.10299444E+01
   0.18700000E+01           0.10381845E+01
   0.18800000E+01           0.10464249E+01
   0.18900000E+01           0.10546789E+01
   0.19000000E+01           0.10637046E+01
   0.19100000E+01           0.10717931E+01
   0.19200000E+01           0.10806567E+01
   0.19300000E+01           0.10882039E+01
   0.19400000E+01           0.10980029E+01
   0.19500000E+01           0.11063419E+01
   0.19600000E+01           0.11154178E+01
   0.19700000E+01           0.11231820E+01
   0.19800000E+01           0.11331971E+01
   0.19900000E+01           0.11413791E+01
   0.20000000E+01           0.57392910E+00
 #T=   109.0000
  -0.20000000E+01           0.00000000E+00
  -0.19900000E+01           0.00000000E+00
  -0.19800000E+01           0.00000000E+00
  -0.19700000E+01           0.00000000E+00
  -0.19600000E+01           0.00000000E+00
  -0.19500000E+01           0.00000000E+00
  -0.19400000E+01           0.00000000E+00
  -0.19300000E+01           0.00000000E+00
  -0.19200000E+01           0.00000000E+00
  -0.19100000E+01           0.00000000E+00
  -0.19000000E+01           0.00000000E+00
  -0.18900000E+01           0.00000000E+00
  -0.18800000E+01           0.00000000E+00
  -0.18700000E+01           0.00000000E+00
  -0.18600000E+01           0.00000000E+00
  -0.18500000E+01           0.00000000E+00
  -0.18400000E+01           0.00000000E+00
  -0.18300000E+01           0.00000000E+00
  -0.18200000E+01           0.00000000E+00
  -0.18100000E+01           0.00000000E+00
  -0.18000000E+01           0.00000000E+00
  -0.17900000E+01           0.00000000E+00
  -0.17800000E+01           0.00000000E+00
  -0.17700000E+01           0.00000000E+00
  -0.17600000E+01           0.00000000E+00
  -0.17500000E+01           0.00000000E+00
  -0.17400000E+01           0.00000000E+00
  -0.17300000E+01           0.00000000E+00
  -0.17200000E+01           0.00000000E+00
  -0.17100000E+01           0.00000000E+00
  -0.17000000E+01           0.00000000E+00
  -0.16900000E+01           0.00000000E+00
  -0.16800000E+01           0.00000000E+00
  -0.16700000E+01           0.00000000E+00
  -0.16600000E+01           0.00000000E+00
  -0.16500000E+01           0.00000000E+00
  -0.16400000E+01           0.00000000E+00
  -0.16300000E+01           0.00000000E+00
  -0.16200000E+01           0.00000000E+00
  -0.16100000E+01           0.00000000E+00
  -0.16000000E+01           0.00000000E+00
  -0.15900000E+01           0.00000000E+00
  -0.15800000E+01           0.00000000E+00
  -0.15700000E+01           0.00000000E+00
  -0.15600000E+01           0.00000000E+00
  -0.15500000E+01           0.00000000E+00
  -0.15400000E+01           0.00000000E+00
  -0.15300000E+01           0.00000000E+00
  -0.15200000E+01           0.00000000E+00
  -0.15100000E+01           0.00000000E+00
  -0.15000000E+01           0.00000000E+00
  -0.14900000E+01           0.00000000E+00
  -0.14800000E+01           0.00000000E+00
  -0.14700000E+01           0.00000000E+00
  -0.14600000E+01           0.00000000E+00
  -0.14500000E+01           0.00000000E+00
  -0.14400000E+01           0.00000000E+00
  -0.14300000E+01           0.00000000E+00
  -0.14200000E+01           0.00000000E+00
  -0.14100000E+01           0.00000000E+00
  -0.14000000E+01           0.00000000E+00
  -0.13900000E+01           0.00000000E+00
  -0.13800000E+01           0.00000000E+00
  -0.13700000E+01           0.00000000E+00
  -0.13600000E+01           0.00000000E+00
  -0.13500000E+01           0.00000000E+00
  -0.13400000E+01           0.00000000E+00
  -0.13300000E+01           0.00000000E+00
  -0.13200000E+01           0.00000000E+00
  -0.13100000E+01           0.00000000E+00
  -0.13000000E+01           0.00000000E+00
  -0.12900000E+01           0.00000000E+00
  -0.12800000E+01           0.00000000E+00
  -0.12700000E+01           0.00000000E+00
  -0.12600000E+01           0.00000000E+00
  -0.12500000E+01           0.00000000E+00
  -0.12400000E+01           0.00000000E+00
  -0.12300000E+01           0.00000000E+00
  -0.12200000E+01           0.00000000E+00
  -0.12100000E+01           0.00000000E+00
  -0.12000000E+01           0.00000000E+00
  -0.11900000E+01           0.00000000E+00
  -0.11800000E+01           0.00000000E+00
  -0.11700000E+01           0.00000000E+00
  -0.11600000E+01           0.00000000E+00
  -0.11500000E+01           0.00000000E+00
  -0.11400000E+01           0.00000000E+00
  -0.11300000E+01           0.00000000E+00
  -0.11200000E+01           0.00000000E+00
  -0.11100000E+01           0.00000000E+00
  -0.11000000E+01           0.00000000E+00
  -0.10900000E+01           0.00000000E+00
  -0.10800000E+01           0.00000000E+00
  -0.10700000E+01           0.00000000E+00
  -0.10600000E+01           0.00000000E+00
  -0.10500000E+01           0.00000000E+00
  -0.10400000E+01           0.00000000E+00
  -0.10300000E+01           0.00000000E+00
  -0.10200000E+01           0.00000000E+00
  -0.10100000E+01           0.00000000E+00
  -0.10000000E+01           0.00000000E+00
  -0.99000000E+00           0.00000000E+00
  -0.98000000E+00           0.00000000E+00
  -0.97000000E+00           0.00000000E+00
  -0.96000000E+00           0.00000000E+00
  -0.95000000E+00           0.00000000E+00
  -0.94000000E+00           0.00000000E+00
  -0.93000000E+00           0.00000000E+00
  -0.92000000E+00           0.00000000E+00
  -0.91000000E+00           0.00000000E+00
  -0.90000000E+00           0.00000000E+00
  -0.89000000E+00           0.00000000E+00
  -0.88000000E+00           0.00000000E+00
  -0.87000000E+00           0.00000000E+00
  -0.86000000E+00           0.00000000E+00
  -0.85000000E+00           0.00000000E+00
  -0.84000000E+00           0.00000000E+00
  -0.83000000E+00           0.00000000E+00
  -0.82000000E+00           0.00000000E+00
  -0.81000000E+00           0.00000000E+00
  -0.80000000E+00           0.00000000E+00
  -0.79000000E+00           0.00000000E+00
  -0.78000000E+00           0.00000000E+00
  -0.77000000E+00           0.00000000E+00
  -0.76000000E+00           0.00000000E+00
  -0.75000000E+00           0.00000000E+00
  -0.74000000E+00           0.00000000E+00
  -0.73000000E+00           0.00000000E+00
  -0.72000000E+00           0.00000000E+00
  -0.71000000E+00           0.00000000E+00
  -0.70000000E+00           0.00000000E+00
  -0.69000000E+00           0.00000000E+00
  -0.68000000E+00           0.00000000E+00
  -0.67000000E+00           0.00000000E+00
  -0.66000000E+00           0.00000000E+00
  -0.65000000E+00           0.00000000E+00
  -0.64000000E+00           0.00000000E+00
  -0.63000000E+00           0.00000000E+00
  -0.62000000E+00           0.00000000E+00
  -0.61000000E+00           0.00000000E+00
  -0.60000000E+00           0.00000000E+00
  -0.59000000E+00           0.00000000E+00
  -0.58000000E+00           0.00000000E+00
  -0.57000000E+00           0.00000000E+00
  -0.56000000E+00           0.00000000E+00
  -0.55000000E+00           0.00000000E+00
  -0.54000000E+00           0.00000000E+00
  -0.53000000E+00           0.00000000E+00
  -0.52000000E+00           0.00000000E+00
  -0.51000000E+00           0.00000000E+00
  -0.50000000E+00           0.00000000E+00
  -0.49000000E+00           0.00000000E+00
  -0.48000000E+00           0.00000000E+00
  -0.47000000E+00           0.00000000E+00
  -0.46000000E+00           0.00000000E+00
  -0.45000000E+00           0.00000000E+00
  -0.44000000E+00           0.00000000E+00
  -0.43000000E+00           0.00000000E+00
  -0.42000000E+00           0.00000000E+00
  -0.41000000E+00           0.00000000E+00
  -0.40000000E+00           0.00000000E+00
  -0.39000000E+00           0.00000000E+00
  -0.38000000E+00           0.00000000E+00
  -0.37000000E+00           0.00000000E+00
  -0.36000000E+00           0.00000000E+00
  -0.35000000E+00           0.00000000E+00
  -0.34000000E+00           0.00000000E+00
  -0.33000000E+00           0.00000000E+00
  -0.32000000E+00           0.00000000E+00
  -0.31000000E+00           0.00000000E+00
  -0.30000000E+00           0.00000000E+00
  -0.29000000E+00           0.00000000E+00
  -0.28000000E+00           0.00000000E+00
  -0.27000000E+00           0.00000000E+00
  -0.26000000E+00           0.00000000E+00
  -0.25000000E+00           0.00000000E+00
  -0.24000000E+00           0.00000000E+00
  -0.23000000E+00           0.00000000E+00
  -0.22000000E+00           0.00000000E+00
  -0.21000000E+00           0.00000000E+00
  -0.20000000E+00           0.00000000E+00
  -0.19000000E+00           0.00000000E+00
  -0.18000000E+00           0.00000000E+00
  -0.17000000E+00           0.00000000E+00
  -0.16000000E+00           0.00000000E+00
  -0.15000000E+00           0.00000000E+00
  -0.14000000E+00           0.00000000E+00
  -0.13000000E+00           0.00000000E+00
  -0.12000000E+00           0.00000000E+00
  -0.11000000E+00           0.00000000E+00
  -0.10000000E+00           0.00000000E+00
  -0.90000000E-01           0.00000000E+00
  -0.80000000E-01           0.00000000E+00
  -0.70000000E-01           0.00000000E+00
  -0.60000000E-01           0.00000000E+00
  -0.50000000E-01           0.00000000E+00
  -0.40000000E-01           0.00000000E+00
  -0.30000000E-01           0.00000000E+00
  -0.20000000E-01           0.00000000E+00
  -0.10000000E-01           0.00000000E+00
   0.00000000E+00           0.53430000E-03
   0.10000000E-01           0.43213000E-02
   0.20000000E-01           0.86364000E-02
   0.30000000E-01           0.12984200E-01
   0.40000000E-01           0.17247800E-01
   0.50000000E-01           0.21578200E-01
   0.60000000E-01           0.25946000E-01
   0.70000000E-01           0.30270000E-01
   0.80000000E-01           0.34567300E-01
   0.90000000E-01           0.38901100E-01
   0.10000000E+00           0.43344900E-01
   0.11000000E+00           0.47555700E-01
   0.12000000E+00           0.51958300E-01
   0.13000000E+00           0.56160100E-01
   0.14000000E+00           0.60680600E-01
   0.15000000E+00           0.64799900E-01
   0.16000000E+00           0.69174800E-01
   0.17000000E+00           0.73763700E-01
   0.18000000E+00           0.77790900E-01
   0.19000000E+00           0.82288900E-01
   0.20000000E+00           0.86490400E-01
   0.21000000E+00           0.91049700E-01
   0.22000000E+00           0.95353700E-01
   0.23000000E+00           0.99707100E-01
   0.24000000E+00           0.10406580E+00
   0.25000000E+00           0.10852940E+00
   0.26000000E+00           0.11278510E+00
   0.27000000E+00           0.11726500E+00
   0.28000000E+00           0.12157980E+00
   0.29000000E+00           0.12587490E+00
   0.30000000E+00           0.13042810E+00
   0.31000000E+00           0.13496480E+00
   0.32000000E+00           0.13924450E+00
   0.33000000E+00           0.14365060E+00
   0.34000000E+00           0.14783590E+00
   0.35000000E+00           0.15270580E+00
   0.36000000E+00           0.15694190E+00
   0.37000000E+00           0.16158860E+00
   0.38000000E+00           0.16598370E+00
   0.39000000E+00           0.17034130E+00
   0.40000000E+00           0.17493940E+00
   0.41000000E+00           0.17924620E+00
   0.42000000E+00           0.18377210E+00
   0.43000000E+00           0.18824530E+00
   0.44000000E+00           0.19278470E+00
   0.45000000E+00           0.19743780E+00
   0.46000000E+00           0.20187110E+00
   0.47000000E+00           0.20606760E+00
   0.48000000E+00           0.21070860E+00
   0.49000000E+00           0.21542960E+00
   0.50000000E+00           0.22000010E+00
   0.51000000E+00           0.22432490E+00
   0.52000000E+00           0.22892100E+00
   0.53000000E+00           0.23357230E+00
   0.54000000E+00           0.23813060E+00
   0.55000000E+00           0.24298460E+00
   0.56000000E+00           0.24741880E+00
   0.57000000E+00           0.25207340E+00
   0.58000000E+00           0.25660150E+00
   0.59000000E+00           0.26126560E+00
   0.60000000E+00           0.26573240E+00
   0.61000000E+00           0.27061980E+00
   0.62000000E+00           0.27540060E+00
   0.63000000E+00           0.28028630E+00
   0.64000000E+00           0.28441760E+00
   0.65000000E+00           0.28936590E+00
   0.66000000E+00           0.29408530E+00
   0.67000000E+00           0.29895790E+00
   0.68000000E+00           0.30391420E+00
   0.69000000E+00           0.30825030E+00
   0.70000000E+00           0.31324080E+00
   0.71000000E+00           0.31800530E+00
   0.72000000E+00           0.32270930E+00
   0.73000000E+00           0.32766130E+00
   0.74000000E+00           0.33276370E+00
   0.75000000E+00           0.33786630E+00
   0.76000000E+00           0.34225590E+00
   0.77000000E+00           0.34708520E+00
   0.78000000E+00           0.35235780E+00
   0.79000000E+00           0.35676950E+00
   0.80000000E+00           0.36142790E+00
   0.81000000E+00           0.36682660E+00
   0.82000000E+00           0.37149150E+00
   0.83000000E+00           0.37686050E+00
   0.84000000E+00           0.38171830E+00
   0.85000000E+00           0.38681830E+00
   0.86000000E+00           0.39183100E+00
   0.87000000E+00           0.39692460E+00
   0.88000000E+00           0.40156290E+00
   0.89000000E+00           0.40666940E+00
   0.90000000E+00           0.41169220E+00
   0.91000000E+00           0.41728910E+00
   0.92000000E+00           0.42219260E+00
   0.93000000E+00           0.42729370E+00
   0.94000000E+00           0.43285130E+00
   0.95000000E+00           0.43748140E+00
   0.96000000E+00           0.44293230E+00
   0.97000000E+00           0.44836690E+00
   0.98000000E+00           0.45352100E+00
   0.99000000E+00           0.45883380E+00
   0.10000000E+01           0.46405870E+00
   0.10100000E+01           0.46937390E+00
   0.10200000E+01           0.47458760E+00
   0.10300000E+01           0.47999630E+00
   0.10400000E+01           0.48549270E+00
   0.10500000E+01           0.49078710E+00
   0.10600000E+01           0.49617920E+00
   0.10700000E+01           0.50180760E+00
   0.10800000E+01           0.50727980E+00
   0.10900000E+01           0.51264140E+00
   0.11000000E+01           0.51810270E+00
   0.11100000E+01           0.52380440E+00
   0.11200000E+01           0.52901980E+00
   0.11300000E+01           0.53432030E+00
   0.11400000E+01           0.54030170E+00
   0.11500000E+01           0.54604650E+00
   0.11600000E+01           0.55136060E+00
   0.11700000E+01           0.55749550E+00
   0.11800000E+01           0.56324660E+00
   0.11900000E+01           0.56860550E+00
   0.12000000E+01           0.57500180E+00
   0.12100000E+01           0.58048800E+00
   0.12200000E+01           0.58596340E+00
   0.12300000E+01           0.59152930E+00
   0.12400000E+01           0.59773140E+00
   0.12500000E+01           0.60399040E+00
   0.12600000E+01           0.60976790E+00
   0.12700000E+01           0.61553350E+00
   0.12800000E+01           0.62203680E+00
   0.12900000E+01           0.62770220E+00
   0.13000000E+01           0.63378910E+00
   0.13100000E+01           0.63983390E+00
   0.13200000E+01           0.64614350E+00
   0.13300000E+01           0.65168820E+00
   0.13400000E+01           0.65801520E+00
   0.13500000E+01           0.66444080E+00
   0.13600000E+01           0.67065380E+00
   0.13700000E+01           0.67692560E+00
   0.13800000E+01           0.68283030E+00
   0.13900000E+01           0.68961620E+00
   0.14000000E+01           0.69561210E+00
   0.14100000E+01           0.70178210E+00
   0.14200000E+01           0.70887530E+00
   0.14300000E+01           0.71492770E+00
   0.14400000E+01           0.72211090E+00
   0.14500000E+01           0.72775830E+00
   0.14600000E+01           0.73459520E+00
   0.14700000E+01           0.74092820E+00
   0.14800000E+01           0.74749330E+00
   0.14900000E+01           0.75425010E+00
   0.15000000E+01           0.76050690E+00
   0.15100000E+01           0.76774150E+00
   0.15200000E+01           0.77439030E+00
   0.15300000E+01           0.78106650E+00
   0.15400000E+01           0.78790520E+00
   0.15500000E+01           0.79470300E+00
   0.15600000E+01           0.80130790E+00
   0.15700000E+01           0.80903750E+00
   0.15800000E+01           0.81617570E+00
   0.15900000E+01           0.82247580E+00
   0.16000000E+01           0.82978640E+00
   0.16100000E+01           0.83698740E+00
   0.16200000E+01           0.84365820E+00
   0.16300000E+01           0.85134670E+00
   0.16400000E+01           0.85829050E+00
   0.16500000E+01           0.86547780E+00
   0.16600000E+01           0.87229000E+00
   0.16700000E+01           0.88027870E+00
   0.16800000E+01           0.88780690E+00
   0.16900000E+01           0.89492970E+00
   0.17000000E+01           0.90253190E+00
   0.17100000E+01           0.91000010E+00
   0.17200000E+01           0.91840750E+00
   0.17300000E+01           0.92530860E+00
   0.17400000E+01           0.93247790E+00
   0.17500000E+01           0.94124020E+00
   0.17600000E+01           0.94823380E+00
   0.17700000E+01           0.95576080E+00
   0.17800000E+01           0.96398690E+00
   0.17900000E+01           0.97227060E+00
   0.18000000E+01           0.97956400E+00
   0.18100000E+01           0.98828920E+00
   0.18200000E+01           0.99622650E+00
   0.18300000E+01           0.10043334E+01
   0.18400000E+01           0.10117311E+01
   0.18500000E+01           0.10202990E+01
   0.18600000E+01           0.10282247E+01
   0.18700000E+01           0.10366165E+01
   0.18800000E+01           0.10455108E+01
   0.18900000E+01           0.10532167E+01
   0.19000000E+01           0.10617818E+01
   0.19100000E+01           0.10706236E+01
   0.19200000E+01           0.10786754E+01
   0.19300000E+01           0.10875062E+01
   0.19400000E+01           0.10962510E+01
   0.19500000E+01           0.11051817E+01
   0.19600000E+01           0.11136453E+01
   0.19700000E+01           0.11229107E+01
   0.19800000E+01           0.11315784E+01
   0.19900000E+01           0.11401704E+01
   0.20000000E+01           0.57374390E+00
