 #written on 30Jul2024 at 18:16:30 
 #----------------------------------------------- MONTECARLO ---------------------------------------------------#
 # Temp      Magnetization     Energy_ave          C_M              Sus              U_E              U_M       #
 #--------------------------------------------------------------------------------------------------------------#
 677.0000   0.11740463E-01  -0.52430251E+03   0.21473757E+01   0.74687433E-04   0.66434773E+00   0.44263901E+00
 678.0000   0.11759090E-01  -0.52220566E+03   0.21513796E+01   0.74862194E-04   0.66431761E+00   0.44256545E+00
 679.0000   0.11778447E-01  -0.52010053E+03   0.21613890E+01   0.74831647E-04   0.66428126E+00   0.44346265E+00
 680.0000   0.11782907E-01  -0.51786413E+03   0.21658021E+01   0.74801808E-04   0.66424916E+00   0.44291966E+00
 681.0000   0.11796058E-01  -0.51573228E+03   0.21715637E+01   0.74705524E-04   0.66421468E+00   0.44320401E+00
 682.0000   0.11805829E-01  -0.51360770E+03   0.21691696E+01   0.74796206E-04   0.66419035E+00   0.44313943E+00
 683.0000   0.11818607E-01  -0.51137638E+03   0.21711499E+01   0.74679003E-04   0.66415831E+00   0.44351931E+00
 684.0000   0.11832019E-01  -0.50917641E+03   0.21894644E+01   0.75054579E-04   0.66410901E+00   0.44269748E+00
 685.0000   0.11851815E-01  -0.50695571E+03   0.22015882E+01   0.75143130E-04   0.66406475E+00   0.44282626E+00
 686.0000   0.11851965E-01  -0.50479651E+03   0.22007570E+01   0.75018845E-04   0.66403597E+00   0.44306491E+00
 687.0000   0.11861844E-01  -0.50266307E+03   0.22061702E+01   0.74996055E-04   0.66399958E+00   0.44312717E+00
 688.0000   0.11888967E-01  -0.50035918E+03   0.22204001E+01   0.75181974E-04   0.66394914E+00   0.44325435E+00
 689.0000   0.11897777E-01  -0.49825298E+03   0.22236978E+01   0.75208240E-04   0.66391490E+00   0.44334259E+00
 690.0000   0.11914794E-01  -0.49594249E+03   0.22284677E+01   0.75441949E-04   0.66387476E+00   0.44219457E+00
 691.0000   0.11925167E-01  -0.49367054E+03   0.22314596E+01   0.75392552E-04   0.66383711E+00   0.44324128E+00
 692.0000   0.11933894E-01  -0.49144558E+03   0.22453042E+01   0.75341575E-04   0.66378640E+00   0.44365587E+00
 693.0000   0.11952608E-01  -0.48926541E+03   0.22485518E+01   0.75378151E-04   0.66374813E+00   0.44353629E+00
 694.0000   0.11956206E-01  -0.48707511E+03   0.22574476E+01   0.75291332E-04   0.66370201E+00   0.44344281E+00
 695.0000   0.11975984E-01  -0.48463316E+03   0.22701135E+01   0.75482854E-04   0.66364630E+00   0.44357265E+00
 696.0000   0.11987220E-01  -0.48250059E+03   0.22706088E+01   0.75678061E-04   0.66361016E+00   0.44317014E+00
 697.0000   0.11990247E-01  -0.48013012E+03   0.22773645E+01   0.75442296E-04   0.66356262E+00   0.44379704E+00
 698.0000   0.12005630E-01  -0.47787508E+03   0.22879988E+01   0.75579518E-04   0.66350979E+00   0.44329059E+00
 699.0000   0.12013619E-01  -0.47565625E+03   0.22887270E+01   0.75668235E-04   0.66347085E+00   0.44292497E+00
 700.0000   0.12028251E-01  -0.47324686E+03   0.22922689E+01   0.75591809E-04   0.66342342E+00   0.44397116E+00
 701.0000   0.12056384E-01  -0.47095804E+03   0.23058340E+01   0.75800152E-04   0.66336329E+00   0.44379260E+00
 702.0000   0.12061703E-01  -0.46873544E+03   0.23164174E+01   0.75776316E-04   0.66330646E+00   0.44383091E+00
 703.0000   0.12075875E-01  -0.46640522E+03   0.23207703E+01   0.75702228E-04   0.66325689E+00   0.44367648E+00
 704.0000   0.12096253E-01  -0.46405537E+03   0.23392347E+01   0.75890551E-04   0.66318721E+00   0.44415818E+00
 705.0000   0.12104510E-01  -0.46165351E+03   0.23343817E+01   0.75884091E-04   0.66314757E+00   0.44369266E+00
 706.0000   0.12116758E-01  -0.45934243E+03   0.23523907E+01   0.76046376E-04   0.66307597E+00   0.44361211E+00
 707.0000   0.12131834E-01  -0.45709800E+03   0.23558967E+01   0.76246275E-04   0.66302383E+00   0.44320575E+00
 708.0000   0.12142509E-01  -0.45468342E+03   0.23603074E+01   0.75977586E-04   0.66296824E+00   0.44426856E+00
 709.0000   0.12161365E-01  -0.45228993E+03   0.23620949E+01   0.76334562E-04   0.66291534E+00   0.44337429E+00
 710.0000   0.12171666E-01  -0.44996326E+03   0.23847696E+01   0.76130725E-04   0.66283035E+00   0.44411777E+00
 711.0000   0.12171741E-01  -0.44763096E+03   0.23866961E+01   0.76255296E-04   0.66277708E+00   0.44371268E+00
 712.0000   0.12191442E-01  -0.44526305E+03   0.23931208E+01   0.76261713E-04   0.66271412E+00   0.44423464E+00
 713.0000   0.12207218E-01  -0.44281782E+03   0.23978158E+01   0.76458087E-04   0.66265155E+00   0.44362481E+00
 714.0000   0.12211412E-01  -0.44029685E+03   0.24122383E+01   0.76479235E-04   0.66257097E+00   0.44306464E+00
 715.0000   0.12236374E-01  -0.43794765E+03   0.24118535E+01   0.76414444E-04   0.66251588E+00   0.44413797E+00
 716.0000   0.12239401E-01  -0.43558635E+03   0.24126810E+01   0.76407880E-04   0.66245601E+00   0.44397887E+00
 717.0000   0.12259399E-01  -0.43320085E+03   0.24218604E+01   0.76560619E-04   0.66238215E+00   0.44404781E+00
 718.0000   0.12275927E-01  -0.43078769E+03   0.24288362E+01   0.76607974E-04   0.66230934E+00   0.44437752E+00
 719.0000   0.12287656E-01  -0.42834120E+03   0.24461113E+01   0.76845641E-04   0.66221642E+00   0.44340812E+00
 720.0000   0.12300904E-01  -0.42587104E+03   0.24505021E+01   0.76869844E-04   0.66214327E+00   0.44365259E+00
 721.0000   0.12310376E-01  -0.42343687E+03   0.24570918E+01   0.76913887E-04   0.66206708E+00   0.44380820E+00
 722.0000   0.12325162E-01  -0.42087316E+03   0.24574873E+01   0.76759141E-04   0.66199792E+00   0.44420221E+00
 723.0000   0.12341219E-01  -0.41839413E+03   0.24691467E+01   0.76804743E-04   0.66190812E+00   0.44462559E+00
 724.0000   0.12345457E-01  -0.41597846E+03   0.24712771E+01   0.76743228E-04   0.66183369E+00   0.44429578E+00
 725.0000   0.12362480E-01  -0.41350300E+03   0.24747583E+01   0.76972566E-04   0.66175554E+00   0.44381380E+00
 726.0000   0.12385020E-01  -0.41104133E+03   0.24828155E+01   0.77174245E-04   0.66166587E+00   0.44398004E+00
 727.0000   0.12390527E-01  -0.40857948E+03   0.24864202E+01   0.76987081E-04   0.66158275E+00   0.44448252E+00
 728.0000   0.12406173E-01  -0.40603629E+03   0.24883807E+01   0.77315153E-04   0.66150366E+00   0.44367454E+00
 729.0000   0.12415922E-01  -0.40359594E+03   0.24905528E+01   0.77125277E-04   0.66141976E+00   0.44429827E+00
 730.0000   0.12422052E-01  -0.40104474E+03   0.24919599E+01   0.77115941E-04   0.66133617E+00   0.44424771E+00
 731.0000   0.12444547E-01  -0.39855026E+03   0.24937539E+01   0.77276297E-04   0.66124727E+00   0.44457031E+00
 732.0000   0.12449612E-01  -0.39615158E+03   0.24892523E+01   0.77320649E-04   0.66117707E+00   0.44404889E+00
 733.0000   0.12459447E-01  -0.39365098E+03   0.24882790E+01   0.77349663E-04   0.66109043E+00   0.44388856E+00
 734.0000   0.12480250E-01  -0.39114719E+03   0.24796895E+01   0.77420514E-04   0.66102046E+00   0.44431818E+00
 735.0000   0.12486636E-01  -0.38877015E+03   0.24877344E+01   0.77528914E-04   0.66091797E+00   0.44355095E+00
 736.0000   0.12502908E-01  -0.38622614E+03   0.24657228E+01   0.77349534E-04   0.66087373E+00   0.44472161E+00
 737.0000   0.12504090E-01  -0.38383305E+03   0.24638081E+01   0.77388906E-04   0.66078949E+00   0.44454089E+00
 738.0000   0.12534456E-01  -0.38129664E+03   0.24566735E+01   0.77583032E-04   0.66070934E+00   0.44467800E+00
 739.0000   0.12545010E-01  -0.37892422E+03   0.24478319E+01   0.77649999E-04   0.66063695E+00   0.44449634E+00
 740.0000   0.12555275E-01  -0.37642400E+03   0.24278211E+01   0.77770276E-04   0.66058426E+00   0.44414648E+00
 741.0000   0.12574764E-01  -0.37391228E+03   0.24087673E+01   0.77804317E-04   0.66053286E+00   0.44488865E+00
 742.0000   0.12582784E-01  -0.37150469E+03   0.24019734E+01   0.77911395E-04   0.66044914E+00   0.44438222E+00
 743.0000   0.12596897E-01  -0.36918694E+03   0.23690821E+01   0.77922212E-04   0.66043469E+00   0.44449922E+00
 744.0000   0.12609809E-01  -0.36671945E+03   0.23458694E+01   0.77942451E-04   0.66039153E+00   0.44394323E+00
 745.0000   0.12620100E-01  -0.36440075E+03   0.23271126E+01   0.77731908E-04   0.66034303E+00   0.44533273E+00
 746.0000   0.12630103E-01  -0.36217639E+03   0.23033901E+01   0.78040649E-04   0.66030904E+00   0.44443565E+00
 747.0000   0.12642190E-01  -0.35993160E+03   0.22742450E+01   0.78101566E-04   0.66028800E+00   0.44412790E+00
 748.0000   0.12654636E-01  -0.35774391E+03   0.22361730E+01   0.78214709E-04   0.66029480E+00   0.44382866E+00
 749.0000   0.12659558E-01  -0.35542630E+03   0.22171383E+01   0.78268948E-04   0.66024510E+00   0.44354372E+00
 750.0000   0.12682104E-01  -0.35317412E+03   0.21768748E+01   0.78365607E-04   0.66025966E+00   0.44390866E+00
 751.0000   0.12688793E-01  -0.35094229E+03   0.21510562E+01   0.78103321E-04   0.66023430E+00   0.44470333E+00
 752.0000   0.12701412E-01  -0.34893499E+03   0.21094935E+01   0.78242117E-04   0.66026449E+00   0.44406678E+00
 753.0000   0.12713330E-01  -0.34681093E+03   0.20766686E+01   0.78224435E-04   0.66026432E+00   0.44467398E+00
 754.0000   0.12718232E-01  -0.34480198E+03   0.20466058E+01   0.78362954E-04   0.66025982E+00   0.44390113E+00
 755.0000   0.12735463E-01  -0.34268673E+03   0.20012248E+01   0.78275110E-04   0.66030704E+00   0.44453876E+00
 756.0000   0.12752148E-01  -0.34063988E+03   0.19631005E+01   0.78453273E-04   0.66032745E+00   0.44418930E+00
