 #written on 30Jul2024 at 18:16:30 
 #----------------- MONTECARLO -------------------#
 #        M                      P(M)             #
 #------------------------------------------------#
 #T=   677.0000
  -0.40000000E+01           0.00000000E+00
  -0.39900000E+01           0.00000000E+00
  -0.39800000E+01           0.00000000E+00
  -0.39700000E+01           0.00000000E+00
  -0.39600000E+01           0.00000000E+00
  -0.39500000E+01           0.00000000E+00
  -0.39400000E+01           0.00000000E+00
  -0.39300000E+01           0.00000000E+00
  -0.39200000E+01           0.00000000E+00
  -0.39100000E+01           0.00000000E+00
  -0.39000000E+01           0.00000000E+00
  -0.38900000E+01           0.00000000E+00
  -0.38800000E+01           0.00000000E+00
  -0.38700000E+01           0.00000000E+00
  -0.38600000E+01           0.00000000E+00
  -0.38500000E+01           0.00000000E+00
  -0.38400000E+01           0.00000000E+00
  -0.38300000E+01           0.00000000E+00
  -0.38200000E+01           0.00000000E+00
  -0.38100000E+01           0.00000000E+00
  -0.38000000E+01           0.00000000E+00
  -0.37900000E+01           0.00000000E+00
  -0.37800000E+01           0.00000000E+00
  -0.37700000E+01           0.00000000E+00
  -0.37600000E+01           0.00000000E+00
  -0.37500000E+01           0.00000000E+00
  -0.37400000E+01           0.00000000E+00
  -0.37300000E+01           0.00000000E+00
  -0.37200000E+01           0.00000000E+00
  -0.37100000E+01           0.00000000E+00
  -0.37000000E+01           0.00000000E+00
  -0.36900000E+01           0.00000000E+00
  -0.36800000E+01           0.00000000E+00
  -0.36700000E+01           0.00000000E+00
  -0.36600000E+01           0.00000000E+00
  -0.36500000E+01           0.00000000E+00
  -0.36400000E+01           0.00000000E+00
  -0.36300000E+01           0.00000000E+00
  -0.36200000E+01           0.00000000E+00
  -0.36100000E+01           0.00000000E+00
  -0.36000000E+01           0.00000000E+00
  -0.35900000E+01           0.00000000E+00
  -0.35800000E+01           0.00000000E+00
  -0.35700000E+01           0.00000000E+00
  -0.35600000E+01           0.00000000E+00
  -0.35500000E+01           0.00000000E+00
  -0.35400000E+01           0.00000000E+00
  -0.35300000E+01           0.00000000E+00
  -0.35200000E+01           0.00000000E+00
  -0.35100000E+01           0.00000000E+00
  -0.35000000E+01           0.00000000E+00
  -0.34900000E+01           0.00000000E+00
  -0.34800000E+01           0.00000000E+00
  -0.34700000E+01           0.00000000E+00
  -0.34600000E+01           0.00000000E+00
  -0.34500000E+01           0.00000000E+00
  -0.34400000E+01           0.00000000E+00
  -0.34300000E+01           0.00000000E+00
  -0.34200000E+01           0.00000000E+00
  -0.34100000E+01           0.00000000E+00
  -0.34000000E+01           0.00000000E+00
  -0.33900000E+01           0.00000000E+00
  -0.33800000E+01           0.00000000E+00
  -0.33700000E+01           0.00000000E+00
  -0.33600000E+01           0.00000000E+00
  -0.33500000E+01           0.00000000E+00
  -0.33400000E+01           0.00000000E+00
  -0.33300000E+01           0.00000000E+00
  -0.33200000E+01           0.00000000E+00
  -0.33100000E+01           0.00000000E+00
  -0.33000000E+01           0.00000000E+00
  -0.32900000E+01           0.00000000E+00
  -0.32800000E+01           0.00000000E+00
  -0.32700000E+01           0.00000000E+00
  -0.32600000E+01           0.00000000E+00
  -0.32500000E+01           0.00000000E+00
  -0.32400000E+01           0.00000000E+00
  -0.32300000E+01           0.00000000E+00
  -0.32200000E+01           0.00000000E+00
  -0.32100000E+01           0.00000000E+00
  -0.32000000E+01           0.00000000E+00
  -0.31900000E+01           0.00000000E+00
  -0.31800000E+01           0.00000000E+00
  -0.31700000E+01           0.00000000E+00
  -0.31600000E+01           0.00000000E+00
  -0.31500000E+01           0.00000000E+00
  -0.31400000E+01           0.00000000E+00
  -0.31300000E+01           0.00000000E+00
  -0.31200000E+01           0.00000000E+00
  -0.31100000E+01           0.00000000E+00
  -0.31000000E+01           0.00000000E+00
  -0.30900000E+01           0.00000000E+00
  -0.30800000E+01           0.00000000E+00
  -0.30700000E+01           0.00000000E+00
  -0.30600000E+01           0.00000000E+00
  -0.30500000E+01           0.00000000E+00
  -0.30400000E+01           0.00000000E+00
  -0.30300000E+01           0.00000000E+00
  -0.30200000E+01           0.00000000E+00
  -0.30100000E+01           0.00000000E+00
  -0.30000000E+01           0.00000000E+00
  -0.29900000E+01           0.00000000E+00
  -0.29800000E+01           0.00000000E+00
  -0.29700000E+01           0.00000000E+00
  -0.29600000E+01           0.00000000E+00
  -0.29500000E+01           0.00000000E+00
  -0.29400000E+01           0.00000000E+00
  -0.29300000E+01           0.00000000E+00
  -0.29200000E+01           0.00000000E+00
  -0.29100000E+01           0.00000000E+00
  -0.29000000E+01           0.00000000E+00
  -0.28900000E+01           0.00000000E+00
  -0.28800000E+01           0.00000000E+00
  -0.28700000E+01           0.00000000E+00
  -0.28600000E+01           0.00000000E+00
  -0.28500000E+01           0.00000000E+00
  -0.28400000E+01           0.00000000E+00
  -0.28300000E+01           0.00000000E+00
  -0.28200000E+01           0.00000000E+00
  -0.28100000E+01           0.00000000E+00
  -0.28000000E+01           0.00000000E+00
  -0.27900000E+01           0.00000000E+00
  -0.27800000E+01           0.00000000E+00
  -0.27700000E+01           0.00000000E+00
  -0.27600000E+01           0.00000000E+00
  -0.27500000E+01           0.00000000E+00
  -0.27400000E+01           0.00000000E+00
  -0.27300000E+01           0.00000000E+00
  -0.27200000E+01           0.00000000E+00
  -0.27100000E+01           0.00000000E+00
  -0.27000000E+01           0.00000000E+00
  -0.26900000E+01           0.00000000E+00
  -0.26800000E+01           0.00000000E+00
  -0.26700000E+01           0.00000000E+00
  -0.26600000E+01           0.00000000E+00
  -0.26500000E+01           0.00000000E+00
  -0.26400000E+01           0.00000000E+00
  -0.26300000E+01           0.00000000E+00
  -0.26200000E+01           0.00000000E+00
  -0.26100000E+01           0.00000000E+00
  -0.26000000E+01           0.00000000E+00
  -0.25900000E+01           0.00000000E+00
  -0.25800000E+01           0.00000000E+00
  -0.25700000E+01           0.00000000E+00
  -0.25600000E+01           0.00000000E+00
  -0.25500000E+01           0.00000000E+00
  -0.25400000E+01           0.00000000E+00
  -0.25300000E+01           0.00000000E+00
  -0.25200000E+01           0.00000000E+00
  -0.25100000E+01           0.00000000E+00
  -0.25000000E+01           0.00000000E+00
  -0.24900000E+01           0.00000000E+00
  -0.24800000E+01           0.00000000E+00
  -0.24700000E+01           0.00000000E+00
  -0.24600000E+01           0.00000000E+00
  -0.24500000E+01           0.00000000E+00
  -0.24400000E+01           0.00000000E+00
  -0.24300000E+01           0.00000000E+00
  -0.24200000E+01           0.00000000E+00
  -0.24100000E+01           0.00000000E+00
  -0.24000000E+01           0.00000000E+00
  -0.23900000E+01           0.00000000E+00
  -0.23800000E+01           0.00000000E+00
  -0.23700000E+01           0.00000000E+00
  -0.23600000E+01           0.00000000E+00
  -0.23500000E+01           0.00000000E+00
  -0.23400000E+01           0.00000000E+00
  -0.23300000E+01           0.00000000E+00
  -0.23200000E+01           0.00000000E+00
  -0.23100000E+01           0.00000000E+00
  -0.23000000E+01           0.00000000E+00
  -0.22900000E+01           0.00000000E+00
  -0.22800000E+01           0.00000000E+00
  -0.22700000E+01           0.00000000E+00
  -0.22600000E+01           0.00000000E+00
  -0.22500000E+01           0.00000000E+00
  -0.22400000E+01           0.00000000E+00
  -0.22300000E+01           0.00000000E+00
  -0.22200000E+01           0.00000000E+00
  -0.22100000E+01           0.00000000E+00
  -0.22000000E+01           0.00000000E+00
  -0.21900000E+01           0.00000000E+00
  -0.21800000E+01           0.00000000E+00
  -0.21700000E+01           0.00000000E+00
  -0.21600000E+01           0.00000000E+00
  -0.21500000E+01           0.00000000E+00
  -0.21400000E+01           0.00000000E+00
  -0.21300000E+01           0.00000000E+00
  -0.21200000E+01           0.00000000E+00
  -0.21100000E+01           0.00000000E+00
  -0.21000000E+01           0.00000000E+00
  -0.20900000E+01           0.00000000E+00
  -0.20800000E+01           0.00000000E+00
  -0.20700000E+01           0.00000000E+00
  -0.20600000E+01           0.00000000E+00
  -0.20500000E+01           0.00000000E+00
  -0.20400000E+01           0.00000000E+00
  -0.20300000E+01           0.00000000E+00
  -0.20200000E+01           0.00000000E+00
  -0.20100000E+01           0.00000000E+00
  -0.20000000E+01           0.00000000E+00
  -0.19900000E+01           0.00000000E+00
  -0.19800000E+01           0.00000000E+00
  -0.19700000E+01           0.00000000E+00
  -0.19600000E+01           0.00000000E+00
  -0.19500000E+01           0.00000000E+00
  -0.19400000E+01           0.00000000E+00
  -0.19300000E+01           0.00000000E+00
  -0.19200000E+01           0.00000000E+00
  -0.19100000E+01           0.00000000E+00
  -0.19000000E+01           0.00000000E+00
  -0.18900000E+01           0.00000000E+00
  -0.18800000E+01           0.00000000E+00
  -0.18700000E+01           0.00000000E+00
  -0.18600000E+01           0.00000000E+00
  -0.18500000E+01           0.00000000E+00
  -0.18400000E+01           0.00000000E+00
  -0.18300000E+01           0.00000000E+00
  -0.18200000E+01           0.00000000E+00
  -0.18100000E+01           0.00000000E+00
  -0.18000000E+01           0.00000000E+00
  -0.17900000E+01           0.00000000E+00
  -0.17800000E+01           0.00000000E+00
  -0.17700000E+01           0.00000000E+00
  -0.17600000E+01           0.00000000E+00
  -0.17500000E+01           0.00000000E+00
  -0.17400000E+01           0.00000000E+00
  -0.17300000E+01           0.00000000E+00
  -0.17200000E+01           0.00000000E+00
  -0.17100000E+01           0.00000000E+00
  -0.17000000E+01           0.00000000E+00
  -0.16900000E+01           0.00000000E+00
  -0.16800000E+01           0.00000000E+00
  -0.16700000E+01           0.00000000E+00
  -0.16600000E+01           0.00000000E+00
  -0.16500000E+01           0.00000000E+00
  -0.16400000E+01           0.00000000E+00
  -0.16300000E+01           0.00000000E+00
  -0.16200000E+01           0.00000000E+00
  -0.16100000E+01           0.00000000E+00
  -0.16000000E+01           0.00000000E+00
  -0.15900000E+01           0.00000000E+00
  -0.15800000E+01           0.00000000E+00
  -0.15700000E+01           0.00000000E+00
  -0.15600000E+01           0.00000000E+00
  -0.15500000E+01           0.00000000E+00
  -0.15400000E+01           0.00000000E+00
  -0.15300000E+01           0.00000000E+00
  -0.15200000E+01           0.00000000E+00
  -0.15100000E+01           0.00000000E+00
  -0.15000000E+01           0.00000000E+00
  -0.14900000E+01           0.00000000E+00
  -0.14800000E+01           0.00000000E+00
  -0.14700000E+01           0.00000000E+00
  -0.14600000E+01           0.00000000E+00
  -0.14500000E+01           0.00000000E+00
  -0.14400000E+01           0.00000000E+00
  -0.14300000E+01           0.00000000E+00
  -0.14200000E+01           0.00000000E+00
  -0.14100000E+01           0.00000000E+00
  -0.14000000E+01           0.00000000E+00
  -0.13900000E+01           0.00000000E+00
  -0.13800000E+01           0.00000000E+00
  -0.13700000E+01           0.00000000E+00
  -0.13600000E+01           0.00000000E+00
  -0.13500000E+01           0.00000000E+00
  -0.13400000E+01           0.00000000E+00
  -0.13300000E+01           0.00000000E+00
  -0.13200000E+01           0.00000000E+00
  -0.13100000E+01           0.00000000E+00
  -0.13000000E+01           0.00000000E+00
  -0.12900000E+01           0.00000000E+00
  -0.12800000E+01           0.00000000E+00
  -0.12700000E+01           0.00000000E+00
  -0.12600000E+01           0.00000000E+00
  -0.12500000E+01           0.00000000E+00
  -0.12400000E+01           0.00000000E+00
  -0.12300000E+01           0.00000000E+00
  -0.12200000E+01           0.00000000E+00
  -0.12100000E+01           0.00000000E+00
  -0.12000000E+01           0.00000000E+00
  -0.11900000E+01           0.00000000E+00
  -0.11800000E+01           0.00000000E+00
  -0.11700000E+01           0.00000000E+00
  -0.11600000E+01           0.00000000E+00
  -0.11500000E+01           0.00000000E+00
  -0.11400000E+01           0.00000000E+00
  -0.11300000E+01           0.00000000E+00
  -0.11200000E+01           0.00000000E+00
  -0.11100000E+01           0.00000000E+00
  -0.11000000E+01           0.00000000E+00
  -0.10900000E+01           0.00000000E+00
  -0.10800000E+01           0.00000000E+00
  -0.10700000E+01           0.00000000E+00
  -0.10600000E+01           0.00000000E+00
  -0.10500000E+01           0.00000000E+00
  -0.10400000E+01           0.00000000E+00
  -0.10300000E+01           0.00000000E+00
  -0.10200000E+01           0.00000000E+00
  -0.10100000E+01           0.00000000E+00
  -0.10000000E+01           0.00000000E+00
  -0.99000000E+00           0.00000000E+00
  -0.98000000E+00           0.00000000E+00
  -0.97000000E+00           0.00000000E+00
  -0.96000000E+00           0.00000000E+00
  -0.95000000E+00           0.00000000E+00
  -0.94000000E+00           0.00000000E+00
  -0.93000000E+00           0.00000000E+00
  -0.92000000E+00           0.00000000E+00
  -0.91000000E+00           0.00000000E+00
  -0.90000000E+00           0.00000000E+00
  -0.89000000E+00           0.00000000E+00
  -0.88000000E+00           0.00000000E+00
  -0.87000000E+00           0.00000000E+00
  -0.86000000E+00           0.00000000E+00
  -0.85000000E+00           0.00000000E+00
  -0.84000000E+00           0.00000000E+00
  -0.83000000E+00           0.00000000E+00
  -0.82000000E+00           0.00000000E+00
  -0.81000000E+00           0.00000000E+00
  -0.80000000E+00           0.00000000E+00
  -0.79000000E+00           0.00000000E+00
  -0.78000000E+00           0.00000000E+00
  -0.77000000E+00           0.00000000E+00
  -0.76000000E+00           0.00000000E+00
  -0.75000000E+00           0.00000000E+00
  -0.74000000E+00           0.00000000E+00
  -0.73000000E+00           0.00000000E+00
  -0.72000000E+00           0.00000000E+00
  -0.71000000E+00           0.00000000E+00
  -0.70000000E+00           0.00000000E+00
  -0.69000000E+00           0.00000000E+00
  -0.68000000E+00           0.00000000E+00
  -0.67000000E+00           0.00000000E+00
  -0.66000000E+00           0.00000000E+00
  -0.65000000E+00           0.00000000E+00
  -0.64000000E+00           0.00000000E+00
  -0.63000000E+00           0.00000000E+00
  -0.62000000E+00           0.00000000E+00
  -0.61000000E+00           0.00000000E+00
  -0.60000000E+00           0.00000000E+00
  -0.59000000E+00           0.00000000E+00
  -0.58000000E+00           0.00000000E+00
  -0.57000000E+00           0.00000000E+00
  -0.56000000E+00           0.00000000E+00
  -0.55000000E+00           0.00000000E+00
  -0.54000000E+00           0.00000000E+00
  -0.53000000E+00           0.00000000E+00
  -0.52000000E+00           0.00000000E+00
  -0.51000000E+00           0.00000000E+00
  -0.50000000E+00           0.00000000E+00
  -0.49000000E+00           0.00000000E+00
  -0.48000000E+00           0.00000000E+00
  -0.47000000E+00           0.00000000E+00
  -0.46000000E+00           0.00000000E+00
  -0.45000000E+00           0.00000000E+00
  -0.44000000E+00           0.00000000E+00
  -0.43000000E+00           0.00000000E+00
  -0.42000000E+00           0.00000000E+00
  -0.41000000E+00           0.00000000E+00
  -0.40000000E+00           0.00000000E+00
  -0.39000000E+00           0.00000000E+00
  -0.38000000E+00           0.00000000E+00
  -0.37000000E+00           0.00000000E+00
  -0.36000000E+00           0.00000000E+00
  -0.35000000E+00           0.00000000E+00
  -0.34000000E+00           0.00000000E+00
  -0.33000000E+00           0.00000000E+00
  -0.32000000E+00           0.00000000E+00
  -0.31000000E+00           0.00000000E+00
  -0.30000000E+00           0.00000000E+00
  -0.29000000E+00           0.00000000E+00
  -0.28000000E+00           0.00000000E+00
  -0.27000000E+00           0.00000000E+00
  -0.26000000E+00           0.00000000E+00
  -0.25000000E+00           0.00000000E+00
  -0.24000000E+00           0.00000000E+00
  -0.23000000E+00           0.00000000E+00
  -0.22000000E+00           0.00000000E+00
  -0.21000000E+00           0.00000000E+00
  -0.20000000E+00           0.00000000E+00
  -0.19000000E+00           0.00000000E+00
  -0.18000000E+00           0.00000000E+00
  -0.17000000E+00           0.00000000E+00
  -0.16000000E+00           0.00000000E+00
  -0.15000000E+00           0.00000000E+00
  -0.14000000E+00           0.00000000E+00
  -0.13000000E+00           0.00000000E+00
  -0.12000000E+00           0.00000000E+00
  -0.11000000E+00           0.00000000E+00
  -0.10000000E+00           0.00000000E+00
  -0.90000000E-01           0.00000000E+00
  -0.80000000E-01           0.00000000E+00
  -0.70000000E-01           0.00000000E+00
  -0.60000000E-01           0.00000000E+00
  -0.50000000E-01           0.00000000E+00
  -0.40000000E-01           0.00000000E+00
  -0.30000000E-01           0.00000000E+00
  -0.20000000E-01           0.00000000E+00
  -0.10000000E-01           0.00000000E+00
   0.00000000E+00           0.56640625E-05
   0.10000000E-01           0.11855469E-03
   0.20000000E-01           0.42050781E-03
   0.30000000E-01           0.98437500E-03
   0.40000000E-01           0.16470703E-02
   0.50000000E-01           0.26375000E-02
   0.60000000E-01           0.37144531E-02
   0.70000000E-01           0.50294922E-02
   0.80000000E-01           0.64980469E-02
   0.90000000E-01           0.81373047E-02
   0.10000000E+00           0.10051367E-01
   0.11000000E+00           0.12078320E-01
   0.12000000E+00           0.14160352E-01
   0.13000000E+00           0.16541016E-01
   0.14000000E+00           0.19015234E-01
   0.15000000E+00           0.21571484E-01
   0.16000000E+00           0.24556641E-01
   0.17000000E+00           0.27270898E-01
   0.18000000E+00           0.30396680E-01
   0.19000000E+00           0.33713086E-01
   0.20000000E+00           0.36801562E-01
   0.21000000E+00           0.40315234E-01
   0.22000000E+00           0.43988477E-01
   0.23000000E+00           0.47731250E-01
   0.24000000E+00           0.51473047E-01
   0.25000000E+00           0.55196484E-01
   0.26000000E+00           0.59377148E-01
   0.27000000E+00           0.63183789E-01
   0.28000000E+00           0.67645703E-01
   0.29000000E+00           0.71934961E-01
   0.30000000E+00           0.76364062E-01
   0.31000000E+00           0.80888867E-01
   0.32000000E+00           0.85065820E-01
   0.33000000E+00           0.90116406E-01
   0.34000000E+00           0.95035352E-01
   0.35000000E+00           0.99774219E-01
   0.36000000E+00           0.10484102E+00
   0.37000000E+00           0.10909180E+00
   0.38000000E+00           0.11454902E+00
   0.39000000E+00           0.11937246E+00
   0.40000000E+00           0.12475312E+00
   0.41000000E+00           0.12972812E+00
   0.42000000E+00           0.13509766E+00
   0.43000000E+00           0.14032793E+00
   0.44000000E+00           0.14549258E+00
   0.45000000E+00           0.15120664E+00
   0.46000000E+00           0.15656367E+00
   0.47000000E+00           0.16219590E+00
   0.48000000E+00           0.16793770E+00
   0.49000000E+00           0.17314844E+00
   0.50000000E+00           0.17863496E+00
   0.51000000E+00           0.18445820E+00
   0.52000000E+00           0.18951387E+00
   0.53000000E+00           0.19525098E+00
   0.54000000E+00           0.20107422E+00
   0.55000000E+00           0.20673945E+00
   0.56000000E+00           0.21232500E+00
   0.57000000E+00           0.21832871E+00
   0.58000000E+00           0.22380410E+00
   0.59000000E+00           0.22967148E+00
   0.60000000E+00           0.23525820E+00
   0.61000000E+00           0.24128027E+00
   0.62000000E+00           0.24678379E+00
   0.63000000E+00           0.25236055E+00
   0.64000000E+00           0.25819316E+00
   0.65000000E+00           0.26432402E+00
   0.66000000E+00           0.26997578E+00
   0.67000000E+00           0.27528770E+00
   0.68000000E+00           0.28126699E+00
   0.69000000E+00           0.28655918E+00
   0.70000000E+00           0.29221621E+00
   0.71000000E+00           0.29793223E+00
   0.72000000E+00           0.30366953E+00
   0.73000000E+00           0.30956348E+00
   0.74000000E+00           0.31524160E+00
   0.75000000E+00           0.32028418E+00
   0.76000000E+00           0.32639844E+00
   0.77000000E+00           0.33216406E+00
   0.78000000E+00           0.33666367E+00
   0.79000000E+00           0.34198945E+00
   0.80000000E+00           0.34738984E+00
   0.81000000E+00           0.35269355E+00
   0.82000000E+00           0.35833203E+00
   0.83000000E+00           0.36362695E+00
   0.84000000E+00           0.36908125E+00
   0.85000000E+00           0.37402754E+00
   0.86000000E+00           0.37943809E+00
   0.87000000E+00           0.38369316E+00
   0.88000000E+00           0.38934785E+00
   0.89000000E+00           0.39401172E+00
   0.90000000E+00           0.39905801E+00
   0.91000000E+00           0.40417754E+00
   0.92000000E+00           0.40903105E+00
   0.93000000E+00           0.41419004E+00
   0.94000000E+00           0.41907539E+00
   0.95000000E+00           0.42311621E+00
   0.96000000E+00           0.42761914E+00
   0.97000000E+00           0.43202578E+00
   0.98000000E+00           0.43687285E+00
   0.99000000E+00           0.44109902E+00
   0.10000000E+01           0.44534687E+00
   0.10100000E+01           0.45016641E+00
   0.10200000E+01           0.45406562E+00
   0.10300000E+01           0.45834785E+00
   0.10400000E+01           0.46244316E+00
   0.10500000E+01           0.46645098E+00
   0.10600000E+01           0.46981406E+00
   0.10700000E+01           0.47367988E+00
   0.10800000E+01           0.47758301E+00
   0.10900000E+01           0.48189570E+00
   0.11000000E+01           0.48530234E+00
   0.11100000E+01           0.48883066E+00
   0.11200000E+01           0.49223223E+00
   0.11300000E+01           0.49563359E+00
   0.11400000E+01           0.49897988E+00
   0.11500000E+01           0.50213711E+00
   0.11600000E+01           0.50473809E+00
   0.11700000E+01           0.50827324E+00
   0.11800000E+01           0.51136680E+00
   0.11900000E+01           0.51393418E+00
   0.12000000E+01           0.51710137E+00
   0.12100000E+01           0.51990605E+00
   0.12200000E+01           0.52293125E+00
   0.12300000E+01           0.52485039E+00
   0.12400000E+01           0.52718223E+00
   0.12500000E+01           0.52972871E+00
   0.12600000E+01           0.53207695E+00
   0.12700000E+01           0.53417949E+00
   0.12800000E+01           0.53663984E+00
   0.12900000E+01           0.53889883E+00
   0.13000000E+01           0.54112637E+00
   0.13100000E+01           0.54239277E+00
   0.13200000E+01           0.54436582E+00
   0.13300000E+01           0.54609805E+00
   0.13400000E+01           0.54768984E+00
   0.13500000E+01           0.54860840E+00
   0.13600000E+01           0.55031523E+00
   0.13700000E+01           0.55198691E+00
   0.13800000E+01           0.55334004E+00
   0.13900000E+01           0.55396309E+00
   0.14000000E+01           0.55476699E+00
   0.14100000E+01           0.55635156E+00
   0.14200000E+01           0.55733848E+00
   0.14300000E+01           0.55776328E+00
   0.14400000E+01           0.55901563E+00
   0.14500000E+01           0.55867754E+00
   0.14600000E+01           0.55991094E+00
   0.14700000E+01           0.56055078E+00
   0.14800000E+01           0.56109180E+00
   0.14900000E+01           0.56064453E+00
   0.15000000E+01           0.56024258E+00
   0.15100000E+01           0.56114160E+00
   0.15200000E+01           0.55984648E+00
   0.15300000E+01           0.56040508E+00
   0.15400000E+01           0.56058926E+00
   0.15500000E+01           0.55982695E+00
   0.15600000E+01           0.55944023E+00
   0.15700000E+01           0.55902656E+00
   0.15800000E+01           0.55846270E+00
   0.15900000E+01           0.55697910E+00
   0.16000000E+01           0.55665937E+00
   0.16100000E+01           0.55643301E+00
   0.16200000E+01           0.55528496E+00
   0.16300000E+01           0.55414473E+00
   0.16400000E+01           0.55256230E+00
   0.16500000E+01           0.55180469E+00
   0.16600000E+01           0.55012090E+00
   0.16700000E+01           0.54865898E+00
   0.16800000E+01           0.54739219E+00
   0.16900000E+01           0.54587734E+00
   0.17000000E+01           0.54343008E+00
   0.17100000E+01           0.54183008E+00
   0.17200000E+01           0.54006309E+00
   0.17300000E+01           0.53809434E+00
   0.17400000E+01           0.53599727E+00
   0.17500000E+01           0.53410527E+00
   0.17600000E+01           0.53169180E+00
   0.17700000E+01           0.52934551E+00
   0.17800000E+01           0.52704609E+00
   0.17900000E+01           0.52476777E+00
   0.18000000E+01           0.52198633E+00
   0.18100000E+01           0.51893535E+00
   0.18200000E+01           0.51676699E+00
   0.18300000E+01           0.51360859E+00
   0.18400000E+01           0.51123008E+00
   0.18500000E+01           0.50766855E+00
   0.18600000E+01           0.50471367E+00
   0.18700000E+01           0.50150234E+00
   0.18800000E+01           0.49805527E+00
   0.18900000E+01           0.49474473E+00
   0.19000000E+01           0.49128281E+00
   0.19100000E+01           0.48803633E+00
   0.19200000E+01           0.48485195E+00
   0.19300000E+01           0.48105195E+00
   0.19400000E+01           0.47703789E+00
   0.19500000E+01           0.47356797E+00
   0.19600000E+01           0.46950664E+00
   0.19700000E+01           0.46585273E+00
   0.19800000E+01           0.46215508E+00
   0.19900000E+01           0.45735371E+00
   0.20000000E+01           0.45386426E+00
   0.20100000E+01           0.44948965E+00
   0.20200000E+01           0.44454531E+00
   0.20300000E+01           0.44076895E+00
   0.20400000E+01           0.43705820E+00
   0.20500000E+01           0.43257598E+00
   0.20600000E+01           0.42822754E+00
   0.20700000E+01           0.42425742E+00
   0.20800000E+01           0.42017793E+00
   0.20900000E+01           0.41524277E+00
   0.21000000E+01           0.41116445E+00
   0.21100000E+01           0.40730762E+00
   0.21200000E+01           0.40279434E+00
   0.21300000E+01           0.39830859E+00
   0.21400000E+01           0.39438945E+00
   0.21500000E+01           0.39004043E+00
   0.21600000E+01           0.38614883E+00
   0.21700000E+01           0.38214512E+00
   0.21800000E+01           0.37773730E+00
   0.21900000E+01           0.37331250E+00
   0.22000000E+01           0.36917305E+00
   0.22100000E+01           0.36440117E+00
   0.22200000E+01           0.36027734E+00
   0.22300000E+01           0.35621309E+00
   0.22400000E+01           0.35227871E+00
   0.22500000E+01           0.34840469E+00
   0.22600000E+01           0.34382637E+00
   0.22700000E+01           0.33954746E+00
   0.22800000E+01           0.33569766E+00
   0.22900000E+01           0.33159727E+00
   0.23000000E+01           0.32796562E+00
   0.23100000E+01           0.32314590E+00
   0.23200000E+01           0.31914863E+00
   0.23300000E+01           0.31512441E+00
   0.23400000E+01           0.31099941E+00
   0.23500000E+01           0.30685859E+00
   0.23600000E+01           0.30257988E+00
   0.23700000E+01           0.29887168E+00
   0.23800000E+01           0.29484980E+00
   0.23900000E+01           0.29102930E+00
   0.24000000E+01           0.28718555E+00
   0.24100000E+01           0.28291230E+00
   0.24200000E+01           0.27888184E+00
   0.24300000E+01           0.27495254E+00
   0.24400000E+01           0.27157109E+00
   0.24500000E+01           0.26739414E+00
   0.24600000E+01           0.26348281E+00
   0.24700000E+01           0.25990098E+00
   0.24800000E+01           0.25628945E+00
   0.24900000E+01           0.25230840E+00
   0.25000000E+01           0.24854355E+00
   0.25100000E+01           0.24459062E+00
   0.25200000E+01           0.24100527E+00
   0.25300000E+01           0.23676172E+00
   0.25400000E+01           0.23372070E+00
   0.25500000E+01           0.22962598E+00
   0.25600000E+01           0.22619180E+00
   0.25700000E+01           0.22271172E+00
   0.25800000E+01           0.21899824E+00
   0.25900000E+01           0.21524902E+00
   0.26000000E+01           0.21211660E+00
   0.26100000E+01           0.20849258E+00
   0.26200000E+01           0.20468398E+00
   0.26300000E+01           0.20136465E+00
   0.26400000E+01           0.19818047E+00
   0.26500000E+01           0.19483555E+00
   0.26600000E+01           0.19148418E+00
   0.26700000E+01           0.18830801E+00
   0.26800000E+01           0.18475098E+00
   0.26900000E+01           0.18126133E+00
   0.27000000E+01           0.17796758E+00
   0.27100000E+01           0.17482305E+00
   0.27200000E+01           0.17168223E+00
   0.27300000E+01           0.16854473E+00
   0.27400000E+01           0.16514141E+00
   0.27500000E+01           0.16223047E+00
   0.27600000E+01           0.15916445E+00
   0.27700000E+01           0.15618184E+00
   0.27800000E+01           0.15325176E+00
   0.27900000E+01           0.14986582E+00
   0.28000000E+01           0.14717344E+00
   0.28100000E+01           0.14408691E+00
   0.28200000E+01           0.14125781E+00
   0.28300000E+01           0.13836074E+00
   0.28400000E+01           0.13569687E+00
   0.28500000E+01           0.13302715E+00
   0.28600000E+01           0.12991680E+00
   0.28700000E+01           0.12737637E+00
   0.28800000E+01           0.12433789E+00
   0.28900000E+01           0.12209434E+00
   0.29000000E+01           0.11943770E+00
   0.29100000E+01           0.11682656E+00
   0.29200000E+01           0.11426816E+00
   0.29300000E+01           0.11146562E+00
   0.29400000E+01           0.10917207E+00
   0.29500000E+01           0.10676250E+00
   0.29600000E+01           0.10435742E+00
   0.29700000E+01           0.10190762E+00
   0.29800000E+01           0.99477930E-01
   0.29900000E+01           0.96921484E-01
   0.30000000E+01           0.94575781E-01
   0.30100000E+01           0.92502930E-01
   0.30200000E+01           0.90270117E-01
   0.30300000E+01           0.87772461E-01
   0.30400000E+01           0.85892773E-01
   0.30500000E+01           0.83718555E-01
   0.30600000E+01           0.81304102E-01
   0.30700000E+01           0.79129687E-01
   0.30800000E+01           0.77068555E-01
   0.30900000E+01           0.75313477E-01
   0.31000000E+01           0.73207422E-01
   0.31100000E+01           0.71228711E-01
   0.31200000E+01           0.69350781E-01
   0.31300000E+01           0.67366602E-01
   0.31400000E+01           0.65723828E-01
   0.31500000E+01           0.63702148E-01
   0.31600000E+01           0.61742969E-01
   0.31700000E+01           0.60049023E-01
   0.31800000E+01           0.58352539E-01
   0.31900000E+01           0.56606055E-01
   0.32000000E+01           0.55038477E-01
   0.32100000E+01           0.53317383E-01
   0.32200000E+01           0.51610937E-01
   0.32300000E+01           0.49994531E-01
   0.32400000E+01           0.48606250E-01
   0.32500000E+01           0.46899609E-01
   0.32600000E+01           0.45646289E-01
   0.32700000E+01           0.44074805E-01
   0.32800000E+01           0.42754687E-01
   0.32900000E+01           0.40994141E-01
   0.33000000E+01           0.39801562E-01
   0.33100000E+01           0.38511523E-01
   0.33200000E+01           0.37250391E-01
   0.33300000E+01           0.35858789E-01
   0.33400000E+01           0.34530664E-01
   0.33500000E+01           0.33188086E-01
   0.33600000E+01           0.31870117E-01
   0.33700000E+01           0.30789453E-01
   0.33800000E+01           0.29800000E-01
   0.33900000E+01           0.28666797E-01
   0.34000000E+01           0.27353320E-01
   0.34100000E+01           0.26419531E-01
   0.34200000E+01           0.25400781E-01
   0.34300000E+01           0.24455859E-01
   0.34400000E+01           0.23235547E-01
   0.34500000E+01           0.22280859E-01
   0.34600000E+01           0.21404102E-01
   0.34700000E+01           0.20438281E-01
   0.34800000E+01           0.19523437E-01
   0.34900000E+01           0.18655469E-01
   0.35000000E+01           0.17776562E-01
   0.35100000E+01           0.16911328E-01
   0.35200000E+01           0.16157813E-01
   0.35300000E+01           0.15405273E-01
   0.35400000E+01           0.14652930E-01
   0.35500000E+01           0.13828125E-01
   0.35600000E+01           0.13282617E-01
   0.35700000E+01           0.12467187E-01
   0.35800000E+01           0.11918945E-01
   0.35900000E+01           0.11208008E-01
   0.36000000E+01           0.10659766E-01
   0.36100000E+01           0.10071289E-01
   0.36200000E+01           0.94421875E-02
   0.36300000E+01           0.88839844E-02
   0.36400000E+01           0.83578125E-02
   0.36500000E+01           0.78230469E-02
   0.36600000E+01           0.73138672E-02
   0.36700000E+01           0.68000000E-02
   0.36800000E+01           0.63384766E-02
   0.36900000E+01           0.58949219E-02
   0.37000000E+01           0.54523437E-02
   0.37100000E+01           0.51451172E-02
   0.37200000E+01           0.47550781E-02
   0.37300000E+01           0.43798828E-02
   0.37400000E+01           0.40523437E-02
   0.37500000E+01           0.36835937E-02
   0.37600000E+01           0.33294922E-02
   0.37700000E+01           0.30865234E-02
   0.37800000E+01           0.27949219E-02
   0.37900000E+01           0.24958984E-02
   0.38000000E+01           0.22621094E-02
   0.38100000E+01           0.20083984E-02
   0.38200000E+01           0.17945312E-02
   0.38300000E+01           0.15818359E-02
   0.38400000E+01           0.13873047E-02
   0.38500000E+01           0.12150391E-02
   0.38600000E+01           0.10226562E-02
   0.38700000E+01           0.89589844E-03
   0.38800000E+01           0.77890625E-03
   0.38900000E+01           0.62812500E-03
   0.39000000E+01           0.53789062E-03
   0.39100000E+01           0.42968750E-03
   0.39200000E+01           0.31503906E-03
   0.39300000E+01           0.24511719E-03
   0.39400000E+01           0.17500000E-03
   0.39500000E+01           0.12246094E-03
   0.39600000E+01           0.74804688E-04
   0.39700000E+01           0.38671875E-04
   0.39800000E+01           0.20507812E-04
   0.39900000E+01           0.39062500E-05
   0.40000000E+01           0.00000000E+00
 #T=   678.0000
  -0.40000000E+01           0.00000000E+00
  -0.39900000E+01           0.00000000E+00
  -0.39800000E+01           0.00000000E+00
  -0.39700000E+01           0.00000000E+00
  -0.39600000E+01           0.00000000E+00
  -0.39500000E+01           0.00000000E+00
  -0.39400000E+01           0.00000000E+00
  -0.39300000E+01           0.00000000E+00
  -0.39200000E+01           0.00000000E+00
  -0.39100000E+01           0.00000000E+00
  -0.39000000E+01           0.00000000E+00
  -0.38900000E+01           0.00000000E+00
  -0.38800000E+01           0.00000000E+00
  -0.38700000E+01           0.00000000E+00
  -0.38600000E+01           0.00000000E+00
  -0.38500000E+01           0.00000000E+00
  -0.38400000E+01           0.00000000E+00
  -0.38300000E+01           0.00000000E+00
  -0.38200000E+01           0.00000000E+00
  -0.38100000E+01           0.00000000E+00
  -0.38000000E+01           0.00000000E+00
  -0.37900000E+01           0.00000000E+00
  -0.37800000E+01           0.00000000E+00
  -0.37700000E+01           0.00000000E+00
  -0.37600000E+01           0.00000000E+00
  -0.37500000E+01           0.00000000E+00
  -0.37400000E+01           0.00000000E+00
  -0.37300000E+01           0.00000000E+00
  -0.37200000E+01           0.00000000E+00
  -0.37100000E+01           0.00000000E+00
  -0.37000000E+01           0.00000000E+00
  -0.36900000E+01           0.00000000E+00
  -0.36800000E+01           0.00000000E+00
  -0.36700000E+01           0.00000000E+00
  -0.36600000E+01           0.00000000E+00
  -0.36500000E+01           0.00000000E+00
  -0.36400000E+01           0.00000000E+00
  -0.36300000E+01           0.00000000E+00
  -0.36200000E+01           0.00000000E+00
  -0.36100000E+01           0.00000000E+00
  -0.36000000E+01           0.00000000E+00
  -0.35900000E+01           0.00000000E+00
  -0.35800000E+01           0.00000000E+00
  -0.35700000E+01           0.00000000E+00
  -0.35600000E+01           0.00000000E+00
  -0.35500000E+01           0.00000000E+00
  -0.35400000E+01           0.00000000E+00
  -0.35300000E+01           0.00000000E+00
  -0.35200000E+01           0.00000000E+00
  -0.35100000E+01           0.00000000E+00
  -0.35000000E+01           0.00000000E+00
  -0.34900000E+01           0.00000000E+00
  -0.34800000E+01           0.00000000E+00
  -0.34700000E+01           0.00000000E+00
  -0.34600000E+01           0.00000000E+00
  -0.34500000E+01           0.00000000E+00
  -0.34400000E+01           0.00000000E+00
  -0.34300000E+01           0.00000000E+00
  -0.34200000E+01           0.00000000E+00
  -0.34100000E+01           0.00000000E+00
  -0.34000000E+01           0.00000000E+00
  -0.33900000E+01           0.00000000E+00
  -0.33800000E+01           0.00000000E+00
  -0.33700000E+01           0.00000000E+00
  -0.33600000E+01           0.00000000E+00
  -0.33500000E+01           0.00000000E+00
  -0.33400000E+01           0.00000000E+00
  -0.33300000E+01           0.00000000E+00
  -0.33200000E+01           0.00000000E+00
  -0.33100000E+01           0.00000000E+00
  -0.33000000E+01           0.00000000E+00
  -0.32900000E+01           0.00000000E+00
  -0.32800000E+01           0.00000000E+00
  -0.32700000E+01           0.00000000E+00
  -0.32600000E+01           0.00000000E+00
  -0.32500000E+01           0.00000000E+00
  -0.32400000E+01           0.00000000E+00
  -0.32300000E+01           0.00000000E+00
  -0.32200000E+01           0.00000000E+00
  -0.32100000E+01           0.00000000E+00
  -0.32000000E+01           0.00000000E+00
  -0.31900000E+01           0.00000000E+00
  -0.31800000E+01           0.00000000E+00
  -0.31700000E+01           0.00000000E+00
  -0.31600000E+01           0.00000000E+00
  -0.31500000E+01           0.00000000E+00
  -0.31400000E+01           0.00000000E+00
  -0.31300000E+01           0.00000000E+00
  -0.31200000E+01           0.00000000E+00
  -0.31100000E+01           0.00000000E+00
  -0.31000000E+01           0.00000000E+00
  -0.30900000E+01           0.00000000E+00
  -0.30800000E+01           0.00000000E+00
  -0.30700000E+01           0.00000000E+00
  -0.30600000E+01           0.00000000E+00
  -0.30500000E+01           0.00000000E+00
  -0.30400000E+01           0.00000000E+00
  -0.30300000E+01           0.00000000E+00
  -0.30200000E+01           0.00000000E+00
  -0.30100000E+01           0.00000000E+00
  -0.30000000E+01           0.00000000E+00
  -0.29900000E+01           0.00000000E+00
  -0.29800000E+01           0.00000000E+00
  -0.29700000E+01           0.00000000E+00
  -0.29600000E+01           0.00000000E+00
  -0.29500000E+01           0.00000000E+00
  -0.29400000E+01           0.00000000E+00
  -0.29300000E+01           0.00000000E+00
  -0.29200000E+01           0.00000000E+00
  -0.29100000E+01           0.00000000E+00
  -0.29000000E+01           0.00000000E+00
  -0.28900000E+01           0.00000000E+00
  -0.28800000E+01           0.00000000E+00
  -0.28700000E+01           0.00000000E+00
  -0.28600000E+01           0.00000000E+00
  -0.28500000E+01           0.00000000E+00
  -0.28400000E+01           0.00000000E+00
  -0.28300000E+01           0.00000000E+00
  -0.28200000E+01           0.00000000E+00
  -0.28100000E+01           0.00000000E+00
  -0.28000000E+01           0.00000000E+00
  -0.27900000E+01           0.00000000E+00
  -0.27800000E+01           0.00000000E+00
  -0.27700000E+01           0.00000000E+00
  -0.27600000E+01           0.00000000E+00
  -0.27500000E+01           0.00000000E+00
  -0.27400000E+01           0.00000000E+00
  -0.27300000E+01           0.00000000E+00
  -0.27200000E+01           0.00000000E+00
  -0.27100000E+01           0.00000000E+00
  -0.27000000E+01           0.00000000E+00
  -0.26900000E+01           0.00000000E+00
  -0.26800000E+01           0.00000000E+00
  -0.26700000E+01           0.00000000E+00
  -0.26600000E+01           0.00000000E+00
  -0.26500000E+01           0.00000000E+00
  -0.26400000E+01           0.00000000E+00
  -0.26300000E+01           0.00000000E+00
  -0.26200000E+01           0.00000000E+00
  -0.26100000E+01           0.00000000E+00
  -0.26000000E+01           0.00000000E+00
  -0.25900000E+01           0.00000000E+00
  -0.25800000E+01           0.00000000E+00
  -0.25700000E+01           0.00000000E+00
  -0.25600000E+01           0.00000000E+00
  -0.25500000E+01           0.00000000E+00
  -0.25400000E+01           0.00000000E+00
  -0.25300000E+01           0.00000000E+00
  -0.25200000E+01           0.00000000E+00
  -0.25100000E+01           0.00000000E+00
  -0.25000000E+01           0.00000000E+00
  -0.24900000E+01           0.00000000E+00
  -0.24800000E+01           0.00000000E+00
  -0.24700000E+01           0.00000000E+00
  -0.24600000E+01           0.00000000E+00
  -0.24500000E+01           0.00000000E+00
  -0.24400000E+01           0.00000000E+00
  -0.24300000E+01           0.00000000E+00
  -0.24200000E+01           0.00000000E+00
  -0.24100000E+01           0.00000000E+00
  -0.24000000E+01           0.00000000E+00
  -0.23900000E+01           0.00000000E+00
  -0.23800000E+01           0.00000000E+00
  -0.23700000E+01           0.00000000E+00
  -0.23600000E+01           0.00000000E+00
  -0.23500000E+01           0.00000000E+00
  -0.23400000E+01           0.00000000E+00
  -0.23300000E+01           0.00000000E+00
  -0.23200000E+01           0.00000000E+00
  -0.23100000E+01           0.00000000E+00
  -0.23000000E+01           0.00000000E+00
  -0.22900000E+01           0.00000000E+00
  -0.22800000E+01           0.00000000E+00
  -0.22700000E+01           0.00000000E+00
  -0.22600000E+01           0.00000000E+00
  -0.22500000E+01           0.00000000E+00
  -0.22400000E+01           0.00000000E+00
  -0.22300000E+01           0.00000000E+00
  -0.22200000E+01           0.00000000E+00
  -0.22100000E+01           0.00000000E+00
  -0.22000000E+01           0.00000000E+00
  -0.21900000E+01           0.00000000E+00
  -0.21800000E+01           0.00000000E+00
  -0.21700000E+01           0.00000000E+00
  -0.21600000E+01           0.00000000E+00
  -0.21500000E+01           0.00000000E+00
  -0.21400000E+01           0.00000000E+00
  -0.21300000E+01           0.00000000E+00
  -0.21200000E+01           0.00000000E+00
  -0.21100000E+01           0.00000000E+00
  -0.21000000E+01           0.00000000E+00
  -0.20900000E+01           0.00000000E+00
  -0.20800000E+01           0.00000000E+00
  -0.20700000E+01           0.00000000E+00
  -0.20600000E+01           0.00000000E+00
  -0.20500000E+01           0.00000000E+00
  -0.20400000E+01           0.00000000E+00
  -0.20300000E+01           0.00000000E+00
  -0.20200000E+01           0.00000000E+00
  -0.20100000E+01           0.00000000E+00
  -0.20000000E+01           0.00000000E+00
  -0.19900000E+01           0.00000000E+00
  -0.19800000E+01           0.00000000E+00
  -0.19700000E+01           0.00000000E+00
  -0.19600000E+01           0.00000000E+00
  -0.19500000E+01           0.00000000E+00
  -0.19400000E+01           0.00000000E+00
  -0.19300000E+01           0.00000000E+00
  -0.19200000E+01           0.00000000E+00
  -0.19100000E+01           0.00000000E+00
  -0.19000000E+01           0.00000000E+00
  -0.18900000E+01           0.00000000E+00
  -0.18800000E+01           0.00000000E+00
  -0.18700000E+01           0.00000000E+00
  -0.18600000E+01           0.00000000E+00
  -0.18500000E+01           0.00000000E+00
  -0.18400000E+01           0.00000000E+00
  -0.18300000E+01           0.00000000E+00
  -0.18200000E+01           0.00000000E+00
  -0.18100000E+01           0.00000000E+00
  -0.18000000E+01           0.00000000E+00
  -0.17900000E+01           0.00000000E+00
  -0.17800000E+01           0.00000000E+00
  -0.17700000E+01           0.00000000E+00
  -0.17600000E+01           0.00000000E+00
  -0.17500000E+01           0.00000000E+00
  -0.17400000E+01           0.00000000E+00
  -0.17300000E+01           0.00000000E+00
  -0.17200000E+01           0.00000000E+00
  -0.17100000E+01           0.00000000E+00
  -0.17000000E+01           0.00000000E+00
  -0.16900000E+01           0.00000000E+00
  -0.16800000E+01           0.00000000E+00
  -0.16700000E+01           0.00000000E+00
  -0.16600000E+01           0.00000000E+00
  -0.16500000E+01           0.00000000E+00
  -0.16400000E+01           0.00000000E+00
  -0.16300000E+01           0.00000000E+00
  -0.16200000E+01           0.00000000E+00
  -0.16100000E+01           0.00000000E+00
  -0.16000000E+01           0.00000000E+00
  -0.15900000E+01           0.00000000E+00
  -0.15800000E+01           0.00000000E+00
  -0.15700000E+01           0.00000000E+00
  -0.15600000E+01           0.00000000E+00
  -0.15500000E+01           0.00000000E+00
  -0.15400000E+01           0.00000000E+00
  -0.15300000E+01           0.00000000E+00
  -0.15200000E+01           0.00000000E+00
  -0.15100000E+01           0.00000000E+00
  -0.15000000E+01           0.00000000E+00
  -0.14900000E+01           0.00000000E+00
  -0.14800000E+01           0.00000000E+00
  -0.14700000E+01           0.00000000E+00
  -0.14600000E+01           0.00000000E+00
  -0.14500000E+01           0.00000000E+00
  -0.14400000E+01           0.00000000E+00
  -0.14300000E+01           0.00000000E+00
  -0.14200000E+01           0.00000000E+00
  -0.14100000E+01           0.00000000E+00
  -0.14000000E+01           0.00000000E+00
  -0.13900000E+01           0.00000000E+00
  -0.13800000E+01           0.00000000E+00
  -0.13700000E+01           0.00000000E+00
  -0.13600000E+01           0.00000000E+00
  -0.13500000E+01           0.00000000E+00
  -0.13400000E+01           0.00000000E+00
  -0.13300000E+01           0.00000000E+00
  -0.13200000E+01           0.00000000E+00
  -0.13100000E+01           0.00000000E+00
  -0.13000000E+01           0.00000000E+00
  -0.12900000E+01           0.00000000E+00
  -0.12800000E+01           0.00000000E+00
  -0.12700000E+01           0.00000000E+00
  -0.12600000E+01           0.00000000E+00
  -0.12500000E+01           0.00000000E+00
  -0.12400000E+01           0.00000000E+00
  -0.12300000E+01           0.00000000E+00
  -0.12200000E+01           0.00000000E+00
  -0.12100000E+01           0.00000000E+00
  -0.12000000E+01           0.00000000E+00
  -0.11900000E+01           0.00000000E+00
  -0.11800000E+01           0.00000000E+00
  -0.11700000E+01           0.00000000E+00
  -0.11600000E+01           0.00000000E+00
  -0.11500000E+01           0.00000000E+00
  -0.11400000E+01           0.00000000E+00
  -0.11300000E+01           0.00000000E+00
  -0.11200000E+01           0.00000000E+00
  -0.11100000E+01           0.00000000E+00
  -0.11000000E+01           0.00000000E+00
  -0.10900000E+01           0.00000000E+00
  -0.10800000E+01           0.00000000E+00
  -0.10700000E+01           0.00000000E+00
  -0.10600000E+01           0.00000000E+00
  -0.10500000E+01           0.00000000E+00
  -0.10400000E+01           0.00000000E+00
  -0.10300000E+01           0.00000000E+00
  -0.10200000E+01           0.00000000E+00
  -0.10100000E+01           0.00000000E+00
  -0.10000000E+01           0.00000000E+00
  -0.99000000E+00           0.00000000E+00
  -0.98000000E+00           0.00000000E+00
  -0.97000000E+00           0.00000000E+00
  -0.96000000E+00           0.00000000E+00
  -0.95000000E+00           0.00000000E+00
  -0.94000000E+00           0.00000000E+00
  -0.93000000E+00           0.00000000E+00
  -0.92000000E+00           0.00000000E+00
  -0.91000000E+00           0.00000000E+00
  -0.90000000E+00           0.00000000E+00
  -0.89000000E+00           0.00000000E+00
  -0.88000000E+00           0.00000000E+00
  -0.87000000E+00           0.00000000E+00
  -0.86000000E+00           0.00000000E+00
  -0.85000000E+00           0.00000000E+00
  -0.84000000E+00           0.00000000E+00
  -0.83000000E+00           0.00000000E+00
  -0.82000000E+00           0.00000000E+00
  -0.81000000E+00           0.00000000E+00
  -0.80000000E+00           0.00000000E+00
  -0.79000000E+00           0.00000000E+00
  -0.78000000E+00           0.00000000E+00
  -0.77000000E+00           0.00000000E+00
  -0.76000000E+00           0.00000000E+00
  -0.75000000E+00           0.00000000E+00
  -0.74000000E+00           0.00000000E+00
  -0.73000000E+00           0.00000000E+00
  -0.72000000E+00           0.00000000E+00
  -0.71000000E+00           0.00000000E+00
  -0.70000000E+00           0.00000000E+00
  -0.69000000E+00           0.00000000E+00
  -0.68000000E+00           0.00000000E+00
  -0.67000000E+00           0.00000000E+00
  -0.66000000E+00           0.00000000E+00
  -0.65000000E+00           0.00000000E+00
  -0.64000000E+00           0.00000000E+00
  -0.63000000E+00           0.00000000E+00
  -0.62000000E+00           0.00000000E+00
  -0.61000000E+00           0.00000000E+00
  -0.60000000E+00           0.00000000E+00
  -0.59000000E+00           0.00000000E+00
  -0.58000000E+00           0.00000000E+00
  -0.57000000E+00           0.00000000E+00
  -0.56000000E+00           0.00000000E+00
  -0.55000000E+00           0.00000000E+00
  -0.54000000E+00           0.00000000E+00
  -0.53000000E+00           0.00000000E+00
  -0.52000000E+00           0.00000000E+00
  -0.51000000E+00           0.00000000E+00
  -0.50000000E+00           0.00000000E+00
  -0.49000000E+00           0.00000000E+00
  -0.48000000E+00           0.00000000E+00
  -0.47000000E+00           0.00000000E+00
  -0.46000000E+00           0.00000000E+00
  -0.45000000E+00           0.00000000E+00
  -0.44000000E+00           0.00000000E+00
  -0.43000000E+00           0.00000000E+00
  -0.42000000E+00           0.00000000E+00
  -0.41000000E+00           0.00000000E+00
  -0.40000000E+00           0.00000000E+00
  -0.39000000E+00           0.00000000E+00
  -0.38000000E+00           0.00000000E+00
  -0.37000000E+00           0.00000000E+00
  -0.36000000E+00           0.00000000E+00
  -0.35000000E+00           0.00000000E+00
  -0.34000000E+00           0.00000000E+00
  -0.33000000E+00           0.00000000E+00
  -0.32000000E+00           0.00000000E+00
  -0.31000000E+00           0.00000000E+00
  -0.30000000E+00           0.00000000E+00
  -0.29000000E+00           0.00000000E+00
  -0.28000000E+00           0.00000000E+00
  -0.27000000E+00           0.00000000E+00
  -0.26000000E+00           0.00000000E+00
  -0.25000000E+00           0.00000000E+00
  -0.24000000E+00           0.00000000E+00
  -0.23000000E+00           0.00000000E+00
  -0.22000000E+00           0.00000000E+00
  -0.21000000E+00           0.00000000E+00
  -0.20000000E+00           0.00000000E+00
  -0.19000000E+00           0.00000000E+00
  -0.18000000E+00           0.00000000E+00
  -0.17000000E+00           0.00000000E+00
  -0.16000000E+00           0.00000000E+00
  -0.15000000E+00           0.00000000E+00
  -0.14000000E+00           0.00000000E+00
  -0.13000000E+00           0.00000000E+00
  -0.12000000E+00           0.00000000E+00
  -0.11000000E+00           0.00000000E+00
  -0.10000000E+00           0.00000000E+00
  -0.90000000E-01           0.00000000E+00
  -0.80000000E-01           0.00000000E+00
  -0.70000000E-01           0.00000000E+00
  -0.60000000E-01           0.00000000E+00
  -0.50000000E-01           0.00000000E+00
  -0.40000000E-01           0.00000000E+00
  -0.30000000E-01           0.00000000E+00
  -0.20000000E-01           0.00000000E+00
  -0.10000000E-01           0.00000000E+00
   0.00000000E+00           0.46875000E-05
   0.10000000E-01           0.10996094E-03
   0.20000000E-01           0.44355469E-03
   0.30000000E-01           0.95410156E-03
   0.40000000E-01           0.16419922E-02
   0.50000000E-01           0.25792969E-02
   0.60000000E-01           0.36958984E-02
   0.70000000E-01           0.49580078E-02
   0.80000000E-01           0.65294922E-02
   0.90000000E-01           0.81460937E-02
   0.10000000E+00           0.10050586E-01
   0.11000000E+00           0.11968164E-01
   0.12000000E+00           0.14145898E-01
   0.13000000E+00           0.16420117E-01
   0.14000000E+00           0.18893359E-01
   0.15000000E+00           0.21482227E-01
   0.16000000E+00           0.24262695E-01
   0.17000000E+00           0.27154492E-01
   0.18000000E+00           0.30219727E-01
   0.19000000E+00           0.33359180E-01
   0.20000000E+00           0.36692383E-01
   0.21000000E+00           0.40207422E-01
   0.22000000E+00           0.43545703E-01
   0.23000000E+00           0.47203906E-01
   0.24000000E+00           0.50986914E-01
   0.25000000E+00           0.55019531E-01
   0.26000000E+00           0.58697656E-01
   0.27000000E+00           0.63266992E-01
   0.28000000E+00           0.67095898E-01
   0.29000000E+00           0.71660937E-01
   0.30000000E+00           0.75807227E-01
   0.31000000E+00           0.80358008E-01
   0.32000000E+00           0.84839258E-01
   0.33000000E+00           0.89559570E-01
   0.34000000E+00           0.94302930E-01
   0.35000000E+00           0.99174805E-01
   0.36000000E+00           0.10401406E+00
   0.37000000E+00           0.10897812E+00
   0.38000000E+00           0.11391016E+00
   0.39000000E+00           0.11859805E+00
   0.40000000E+00           0.12419668E+00
   0.41000000E+00           0.12929570E+00
   0.42000000E+00           0.13462012E+00
   0.43000000E+00           0.13942168E+00
   0.44000000E+00           0.14508926E+00
   0.45000000E+00           0.15084043E+00
   0.46000000E+00           0.15570508E+00
   0.47000000E+00           0.16109902E+00
   0.48000000E+00           0.16652852E+00
   0.49000000E+00           0.17203477E+00
   0.50000000E+00           0.17778066E+00
   0.51000000E+00           0.18338496E+00
   0.52000000E+00           0.18887441E+00
   0.53000000E+00           0.19438574E+00
   0.54000000E+00           0.19998828E+00
   0.55000000E+00           0.20584727E+00
   0.56000000E+00           0.21136250E+00
   0.57000000E+00           0.21719297E+00
   0.58000000E+00           0.22239687E+00
   0.59000000E+00           0.22829473E+00
   0.60000000E+00           0.23418516E+00
   0.61000000E+00           0.24016406E+00
   0.62000000E+00           0.24556191E+00
   0.63000000E+00           0.25111934E+00
   0.64000000E+00           0.25745742E+00
   0.65000000E+00           0.26291016E+00
   0.66000000E+00           0.26861094E+00
   0.67000000E+00           0.27408340E+00
   0.68000000E+00           0.28005508E+00
   0.69000000E+00           0.28550312E+00
   0.70000000E+00           0.29134844E+00
   0.71000000E+00           0.29664883E+00
   0.72000000E+00           0.30226230E+00
   0.73000000E+00           0.30822637E+00
   0.74000000E+00           0.31364980E+00
   0.75000000E+00           0.31911758E+00
   0.76000000E+00           0.32451699E+00
   0.77000000E+00           0.33027754E+00
   0.78000000E+00           0.33529648E+00
   0.79000000E+00           0.34125020E+00
   0.80000000E+00           0.34645703E+00
   0.81000000E+00           0.35166543E+00
   0.82000000E+00           0.35709609E+00
   0.83000000E+00           0.36261543E+00
   0.84000000E+00           0.36765332E+00
   0.85000000E+00           0.37256211E+00
   0.86000000E+00           0.37776172E+00
   0.87000000E+00           0.38282324E+00
   0.88000000E+00           0.38806445E+00
   0.89000000E+00           0.39301328E+00
   0.90000000E+00           0.39843926E+00
   0.91000000E+00           0.40247910E+00
   0.92000000E+00           0.40711230E+00
   0.93000000E+00           0.41292051E+00
   0.94000000E+00           0.41659355E+00
   0.95000000E+00           0.42151016E+00
   0.96000000E+00           0.42635801E+00
   0.97000000E+00           0.43114551E+00
   0.98000000E+00           0.43545137E+00
   0.99000000E+00           0.43976895E+00
   0.10000000E+01           0.44386484E+00
   0.10100000E+01           0.44874824E+00
   0.10200000E+01           0.45266680E+00
   0.10300000E+01           0.45712637E+00
   0.10400000E+01           0.46034219E+00
   0.10500000E+01           0.46528828E+00
   0.10600000E+01           0.46864687E+00
   0.10700000E+01           0.47311289E+00
   0.10800000E+01           0.47666367E+00
   0.10900000E+01           0.48061016E+00
   0.11000000E+01           0.48400645E+00
   0.11100000E+01           0.48754297E+00
   0.11200000E+01           0.49151191E+00
   0.11300000E+01           0.49456777E+00
   0.11400000E+01           0.49787832E+00
   0.11500000E+01           0.50120293E+00
   0.11600000E+01           0.50438652E+00
   0.11700000E+01           0.50721660E+00
   0.11800000E+01           0.50980664E+00
   0.11900000E+01           0.51341387E+00
   0.12000000E+01           0.51626016E+00
   0.12100000E+01           0.51915020E+00
   0.12200000E+01           0.52095234E+00
   0.12300000E+01           0.52373164E+00
   0.12400000E+01           0.52684609E+00
   0.12500000E+01           0.52896191E+00
   0.12600000E+01           0.53117969E+00
   0.12700000E+01           0.53332637E+00
   0.12800000E+01           0.53573574E+00
   0.12900000E+01           0.53780801E+00
   0.13000000E+01           0.53976973E+00
   0.13100000E+01           0.54145586E+00
   0.13200000E+01           0.54398105E+00
   0.13300000E+01           0.54516621E+00
   0.13400000E+01           0.54708457E+00
   0.13500000E+01           0.54881504E+00
   0.13600000E+01           0.55008457E+00
   0.13700000E+01           0.55161680E+00
   0.13800000E+01           0.55242734E+00
   0.13900000E+01           0.55342422E+00
   0.14000000E+01           0.55464590E+00
   0.14100000E+01           0.55608340E+00
   0.14200000E+01           0.55684043E+00
   0.14300000E+01           0.55740293E+00
   0.14400000E+01           0.55813086E+00
   0.14500000E+01           0.55893457E+00
   0.14600000E+01           0.55893457E+00
   0.14700000E+01           0.55947363E+00
   0.14800000E+01           0.56009687E+00
   0.14900000E+01           0.56122051E+00
   0.15000000E+01           0.56092168E+00
   0.15100000E+01           0.56064023E+00
   0.15200000E+01           0.55996777E+00
   0.15300000E+01           0.56019961E+00
   0.15400000E+01           0.56033320E+00
   0.15500000E+01           0.56005762E+00
   0.15600000E+01           0.55937305E+00
   0.15700000E+01           0.55849375E+00
   0.15800000E+01           0.55815859E+00
   0.15900000E+01           0.55729434E+00
   0.16000000E+01           0.55630937E+00
   0.16100000E+01           0.55515742E+00
   0.16200000E+01           0.55487031E+00
   0.16300000E+01           0.55416230E+00
   0.16400000E+01           0.55268008E+00
   0.16500000E+01           0.55151621E+00
   0.16600000E+01           0.54925313E+00
   0.16700000E+01           0.54858105E+00
   0.16800000E+01           0.54723516E+00
   0.16900000E+01           0.54605547E+00
   0.17000000E+01           0.54362969E+00
   0.17100000E+01           0.54247832E+00
   0.17200000E+01           0.54030000E+00
   0.17300000E+01           0.53859121E+00
   0.17400000E+01           0.53662793E+00
   0.17500000E+01           0.53438984E+00
   0.17600000E+01           0.53283027E+00
   0.17700000E+01           0.53002227E+00
   0.17800000E+01           0.52704512E+00
   0.17900000E+01           0.52505273E+00
   0.18000000E+01           0.52273320E+00
   0.18100000E+01           0.51999551E+00
   0.18200000E+01           0.51666953E+00
   0.18300000E+01           0.51430254E+00
   0.18400000E+01           0.51089219E+00
   0.18500000E+01           0.50793750E+00
   0.18600000E+01           0.50527539E+00
   0.18700000E+01           0.50220391E+00
   0.18800000E+01           0.49842383E+00
   0.18900000E+01           0.49569648E+00
   0.19000000E+01           0.49250898E+00
   0.19100000E+01           0.48864687E+00
   0.19200000E+01           0.48458066E+00
   0.19300000E+01           0.48189805E+00
   0.19400000E+01           0.47754512E+00
   0.19500000E+01           0.47402812E+00
   0.19600000E+01           0.47023535E+00
   0.19700000E+01           0.46655273E+00
   0.19800000E+01           0.46163281E+00
   0.19900000E+01           0.45817676E+00
   0.20000000E+01           0.45429687E+00
   0.20100000E+01           0.44969434E+00
   0.20200000E+01           0.44566543E+00
   0.20300000E+01           0.44152324E+00
   0.20400000E+01           0.43741230E+00
   0.20500000E+01           0.43309941E+00
   0.20600000E+01           0.42864590E+00
   0.20700000E+01           0.42466523E+00
   0.20800000E+01           0.42079160E+00
   0.20900000E+01           0.41675137E+00
   0.21000000E+01           0.41237363E+00
   0.21100000E+01           0.40775840E+00
   0.21200000E+01           0.40343711E+00
   0.21300000E+01           0.39985352E+00
   0.21400000E+01           0.39496875E+00
   0.21500000E+01           0.39074805E+00
   0.21600000E+01           0.38665918E+00
   0.21700000E+01           0.38263887E+00
   0.21800000E+01           0.37780371E+00
   0.21900000E+01           0.37361113E+00
   0.22000000E+01           0.36990527E+00
   0.22100000E+01           0.36601133E+00
   0.22200000E+01           0.36113809E+00
   0.22300000E+01           0.35740488E+00
   0.22400000E+01           0.35313457E+00
   0.22500000E+01           0.34927441E+00
   0.22600000E+01           0.34480215E+00
   0.22700000E+01           0.34071172E+00
   0.22800000E+01           0.33660410E+00
   0.22900000E+01           0.33201152E+00
   0.23000000E+01           0.32835605E+00
   0.23100000E+01           0.32458262E+00
   0.23200000E+01           0.32005312E+00
   0.23300000E+01           0.31610332E+00
   0.23400000E+01           0.31165156E+00
   0.23500000E+01           0.30797949E+00
   0.23600000E+01           0.30434707E+00
   0.23700000E+01           0.29961934E+00
   0.23800000E+01           0.29581055E+00
   0.23900000E+01           0.29245137E+00
   0.24000000E+01           0.28798555E+00
   0.24100000E+01           0.28355410E+00
   0.24200000E+01           0.27981152E+00
   0.24300000E+01           0.27615293E+00
   0.24400000E+01           0.27205547E+00
   0.24500000E+01           0.26844375E+00
   0.24600000E+01           0.26449258E+00
   0.24700000E+01           0.26084453E+00
   0.24800000E+01           0.25701211E+00
   0.24900000E+01           0.25282637E+00
   0.25000000E+01           0.24907246E+00
   0.25100000E+01           0.24600000E+00
   0.25200000E+01           0.24157539E+00
   0.25300000E+01           0.23818145E+00
   0.25400000E+01           0.23450859E+00
   0.25500000E+01           0.23068516E+00
   0.25600000E+01           0.22712227E+00
   0.25700000E+01           0.22375273E+00
   0.25800000E+01           0.22013691E+00
   0.25900000E+01           0.21650996E+00
   0.26000000E+01           0.21294648E+00
   0.26100000E+01           0.20919668E+00
   0.26200000E+01           0.20593691E+00
   0.26300000E+01           0.20209102E+00
   0.26400000E+01           0.19908047E+00
   0.26500000E+01           0.19572266E+00
   0.26600000E+01           0.19231855E+00
   0.26700000E+01           0.18841895E+00
   0.26800000E+01           0.18530273E+00
   0.26900000E+01           0.18268105E+00
   0.27000000E+01           0.17876367E+00
   0.27100000E+01           0.17589863E+00
   0.27200000E+01           0.17251582E+00
   0.27300000E+01           0.16925645E+00
   0.27400000E+01           0.16610957E+00
   0.27500000E+01           0.16309121E+00
   0.27600000E+01           0.16025000E+00
   0.27700000E+01           0.15711836E+00
   0.27800000E+01           0.15377324E+00
   0.27900000E+01           0.15125352E+00
   0.28000000E+01           0.14809805E+00
   0.28100000E+01           0.14495781E+00
   0.28200000E+01           0.14188535E+00
   0.28300000E+01           0.13946973E+00
   0.28400000E+01           0.13630273E+00
   0.28500000E+01           0.13394219E+00
   0.28600000E+01           0.13090410E+00
   0.28700000E+01           0.12822090E+00
   0.28800000E+01           0.12572168E+00
   0.28900000E+01           0.12291563E+00
   0.29000000E+01           0.11994082E+00
   0.29100000E+01           0.11732832E+00
   0.29200000E+01           0.11490996E+00
   0.29300000E+01           0.11241094E+00
   0.29400000E+01           0.10998379E+00
   0.29500000E+01           0.10730762E+00
   0.29600000E+01           0.10510723E+00
   0.29700000E+01           0.10235937E+00
   0.29800000E+01           0.10029316E+00
   0.29900000E+01           0.97988086E-01
   0.30000000E+01           0.95414258E-01
   0.30100000E+01           0.92874805E-01
   0.30200000E+01           0.90824609E-01
   0.30300000E+01           0.88405664E-01
   0.30400000E+01           0.86566016E-01
   0.30500000E+01           0.83857812E-01
   0.30600000E+01           0.82249805E-01
   0.30700000E+01           0.79816797E-01
   0.30800000E+01           0.77866406E-01
   0.30900000E+01           0.75828906E-01
   0.31000000E+01           0.73835156E-01
   0.31100000E+01           0.71843164E-01
   0.31200000E+01           0.69859570E-01
   0.31300000E+01           0.68092187E-01
   0.31400000E+01           0.66159570E-01
   0.31500000E+01           0.64189258E-01
   0.31600000E+01           0.62519531E-01
   0.31700000E+01           0.60674414E-01
   0.31800000E+01           0.58773047E-01
   0.31900000E+01           0.57002930E-01
   0.32000000E+01           0.55327539E-01
   0.32100000E+01           0.53666602E-01
   0.32200000E+01           0.52142773E-01
   0.32300000E+01           0.50767187E-01
   0.32400000E+01           0.49127344E-01
   0.32500000E+01           0.47343750E-01
   0.32600000E+01           0.45958398E-01
   0.32700000E+01           0.44663867E-01
   0.32800000E+01           0.43052148E-01
   0.32900000E+01           0.41459961E-01
   0.33000000E+01           0.40138867E-01
   0.33100000E+01           0.38955078E-01
   0.33200000E+01           0.37468945E-01
   0.33300000E+01           0.36047266E-01
   0.33400000E+01           0.34925977E-01
   0.33500000E+01           0.33567383E-01
   0.33600000E+01           0.32446875E-01
   0.33700000E+01           0.31276172E-01
   0.33800000E+01           0.30046875E-01
   0.33900000E+01           0.28907227E-01
   0.34000000E+01           0.27780273E-01
   0.34100000E+01           0.26710742E-01
   0.34200000E+01           0.25688867E-01
   0.34300000E+01           0.24649609E-01
   0.34400000E+01           0.23695898E-01
   0.34500000E+01           0.22707031E-01
   0.34600000E+01           0.21604883E-01
   0.34700000E+01           0.20740234E-01
   0.34800000E+01           0.19764453E-01
   0.34900000E+01           0.18829102E-01
   0.35000000E+01           0.18060547E-01
   0.35100000E+01           0.17178320E-01
   0.35200000E+01           0.16327734E-01
   0.35300000E+01           0.15571484E-01
   0.35400000E+01           0.14926953E-01
   0.35500000E+01           0.14115820E-01
   0.35600000E+01           0.13308594E-01
   0.35700000E+01           0.12694922E-01
   0.35800000E+01           0.11983008E-01
   0.35900000E+01           0.11353320E-01
   0.36000000E+01           0.10710742E-01
   0.36100000E+01           0.10162305E-01
   0.36200000E+01           0.95996094E-02
   0.36300000E+01           0.90421875E-02
   0.36400000E+01           0.84572266E-02
   0.36500000E+01           0.78972656E-02
   0.36600000E+01           0.73685547E-02
   0.36700000E+01           0.69398437E-02
   0.36800000E+01           0.64662109E-02
   0.36900000E+01           0.60212891E-02
   0.37000000E+01           0.56169922E-02
   0.37100000E+01           0.51802734E-02
   0.37200000E+01           0.48628906E-02
   0.37300000E+01           0.44136719E-02
   0.37400000E+01           0.40724609E-02
   0.37500000E+01           0.37435547E-02
   0.37600000E+01           0.33875000E-02
   0.37700000E+01           0.31298828E-02
   0.37800000E+01           0.28230469E-02
   0.37900000E+01           0.25171875E-02
   0.38000000E+01           0.22652344E-02
   0.38100000E+01           0.20587891E-02
   0.38200000E+01           0.18298828E-02
   0.38300000E+01           0.16025391E-02
   0.38400000E+01           0.14166016E-02
   0.38500000E+01           0.12595703E-02
   0.38600000E+01           0.10199219E-02
   0.38700000E+01           0.90781250E-03
   0.38800000E+01           0.77460938E-03
   0.38900000E+01           0.65117187E-03
   0.39000000E+01           0.52421875E-03
   0.39100000E+01           0.43046875E-03
   0.39200000E+01           0.33144531E-03
   0.39300000E+01           0.25214844E-03
   0.39400000E+01           0.18789062E-03
   0.39500000E+01           0.11914062E-03
   0.39600000E+01           0.77539062E-04
   0.39700000E+01           0.45507812E-04
   0.39800000E+01           0.20312500E-04
   0.39900000E+01           0.52734375E-05
   0.40000000E+01           0.00000000E+00
 #T=   679.0000
  -0.40000000E+01           0.00000000E+00
  -0.39900000E+01           0.00000000E+00
  -0.39800000E+01           0.00000000E+00
  -0.39700000E+01           0.00000000E+00
  -0.39600000E+01           0.00000000E+00
  -0.39500000E+01           0.00000000E+00
  -0.39400000E+01           0.00000000E+00
  -0.39300000E+01           0.00000000E+00
  -0.39200000E+01           0.00000000E+00
  -0.39100000E+01           0.00000000E+00
  -0.39000000E+01           0.00000000E+00
  -0.38900000E+01           0.00000000E+00
  -0.38800000E+01           0.00000000E+00
  -0.38700000E+01           0.00000000E+00
  -0.38600000E+01           0.00000000E+00
  -0.38500000E+01           0.00000000E+00
  -0.38400000E+01           0.00000000E+00
  -0.38300000E+01           0.00000000E+00
  -0.38200000E+01           0.00000000E+00
  -0.38100000E+01           0.00000000E+00
  -0.38000000E+01           0.00000000E+00
  -0.37900000E+01           0.00000000E+00
  -0.37800000E+01           0.00000000E+00
  -0.37700000E+01           0.00000000E+00
  -0.37600000E+01           0.00000000E+00
  -0.37500000E+01           0.00000000E+00
  -0.37400000E+01           0.00000000E+00
  -0.37300000E+01           0.00000000E+00
  -0.37200000E+01           0.00000000E+00
  -0.37100000E+01           0.00000000E+00
  -0.37000000E+01           0.00000000E+00
  -0.36900000E+01           0.00000000E+00
  -0.36800000E+01           0.00000000E+00
  -0.36700000E+01           0.00000000E+00
  -0.36600000E+01           0.00000000E+00
  -0.36500000E+01           0.00000000E+00
  -0.36400000E+01           0.00000000E+00
  -0.36300000E+01           0.00000000E+00
  -0.36200000E+01           0.00000000E+00
  -0.36100000E+01           0.00000000E+00
  -0.36000000E+01           0.00000000E+00
  -0.35900000E+01           0.00000000E+00
  -0.35800000E+01           0.00000000E+00
  -0.35700000E+01           0.00000000E+00
  -0.35600000E+01           0.00000000E+00
  -0.35500000E+01           0.00000000E+00
  -0.35400000E+01           0.00000000E+00
  -0.35300000E+01           0.00000000E+00
  -0.35200000E+01           0.00000000E+00
  -0.35100000E+01           0.00000000E+00
  -0.35000000E+01           0.00000000E+00
  -0.34900000E+01           0.00000000E+00
  -0.34800000E+01           0.00000000E+00
  -0.34700000E+01           0.00000000E+00
  -0.34600000E+01           0.00000000E+00
  -0.34500000E+01           0.00000000E+00
  -0.34400000E+01           0.00000000E+00
  -0.34300000E+01           0.00000000E+00
  -0.34200000E+01           0.00000000E+00
  -0.34100000E+01           0.00000000E+00
  -0.34000000E+01           0.00000000E+00
  -0.33900000E+01           0.00000000E+00
  -0.33800000E+01           0.00000000E+00
  -0.33700000E+01           0.00000000E+00
  -0.33600000E+01           0.00000000E+00
  -0.33500000E+01           0.00000000E+00
  -0.33400000E+01           0.00000000E+00
  -0.33300000E+01           0.00000000E+00
  -0.33200000E+01           0.00000000E+00
  -0.33100000E+01           0.00000000E+00
  -0.33000000E+01           0.00000000E+00
  -0.32900000E+01           0.00000000E+00
  -0.32800000E+01           0.00000000E+00
  -0.32700000E+01           0.00000000E+00
  -0.32600000E+01           0.00000000E+00
  -0.32500000E+01           0.00000000E+00
  -0.32400000E+01           0.00000000E+00
  -0.32300000E+01           0.00000000E+00
  -0.32200000E+01           0.00000000E+00
  -0.32100000E+01           0.00000000E+00
  -0.32000000E+01           0.00000000E+00
  -0.31900000E+01           0.00000000E+00
  -0.31800000E+01           0.00000000E+00
  -0.31700000E+01           0.00000000E+00
  -0.31600000E+01           0.00000000E+00
  -0.31500000E+01           0.00000000E+00
  -0.31400000E+01           0.00000000E+00
  -0.31300000E+01           0.00000000E+00
  -0.31200000E+01           0.00000000E+00
  -0.31100000E+01           0.00000000E+00
  -0.31000000E+01           0.00000000E+00
  -0.30900000E+01           0.00000000E+00
  -0.30800000E+01           0.00000000E+00
  -0.30700000E+01           0.00000000E+00
  -0.30600000E+01           0.00000000E+00
  -0.30500000E+01           0.00000000E+00
  -0.30400000E+01           0.00000000E+00
  -0.30300000E+01           0.00000000E+00
  -0.30200000E+01           0.00000000E+00
  -0.30100000E+01           0.00000000E+00
  -0.30000000E+01           0.00000000E+00
  -0.29900000E+01           0.00000000E+00
  -0.29800000E+01           0.00000000E+00
  -0.29700000E+01           0.00000000E+00
  -0.29600000E+01           0.00000000E+00
  -0.29500000E+01           0.00000000E+00
  -0.29400000E+01           0.00000000E+00
  -0.29300000E+01           0.00000000E+00
  -0.29200000E+01           0.00000000E+00
  -0.29100000E+01           0.00000000E+00
  -0.29000000E+01           0.00000000E+00
  -0.28900000E+01           0.00000000E+00
  -0.28800000E+01           0.00000000E+00
  -0.28700000E+01           0.00000000E+00
  -0.28600000E+01           0.00000000E+00
  -0.28500000E+01           0.00000000E+00
  -0.28400000E+01           0.00000000E+00
  -0.28300000E+01           0.00000000E+00
  -0.28200000E+01           0.00000000E+00
  -0.28100000E+01           0.00000000E+00
  -0.28000000E+01           0.00000000E+00
  -0.27900000E+01           0.00000000E+00
  -0.27800000E+01           0.00000000E+00
  -0.27700000E+01           0.00000000E+00
  -0.27600000E+01           0.00000000E+00
  -0.27500000E+01           0.00000000E+00
  -0.27400000E+01           0.00000000E+00
  -0.27300000E+01           0.00000000E+00
  -0.27200000E+01           0.00000000E+00
  -0.27100000E+01           0.00000000E+00
  -0.27000000E+01           0.00000000E+00
  -0.26900000E+01           0.00000000E+00
  -0.26800000E+01           0.00000000E+00
  -0.26700000E+01           0.00000000E+00
  -0.26600000E+01           0.00000000E+00
  -0.26500000E+01           0.00000000E+00
  -0.26400000E+01           0.00000000E+00
  -0.26300000E+01           0.00000000E+00
  -0.26200000E+01           0.00000000E+00
  -0.26100000E+01           0.00000000E+00
  -0.26000000E+01           0.00000000E+00
  -0.25900000E+01           0.00000000E+00
  -0.25800000E+01           0.00000000E+00
  -0.25700000E+01           0.00000000E+00
  -0.25600000E+01           0.00000000E+00
  -0.25500000E+01           0.00000000E+00
  -0.25400000E+01           0.00000000E+00
  -0.25300000E+01           0.00000000E+00
  -0.25200000E+01           0.00000000E+00
  -0.25100000E+01           0.00000000E+00
  -0.25000000E+01           0.00000000E+00
  -0.24900000E+01           0.00000000E+00
  -0.24800000E+01           0.00000000E+00
  -0.24700000E+01           0.00000000E+00
  -0.24600000E+01           0.00000000E+00
  -0.24500000E+01           0.00000000E+00
  -0.24400000E+01           0.00000000E+00
  -0.24300000E+01           0.00000000E+00
  -0.24200000E+01           0.00000000E+00
  -0.24100000E+01           0.00000000E+00
  -0.24000000E+01           0.00000000E+00
  -0.23900000E+01           0.00000000E+00
  -0.23800000E+01           0.00000000E+00
  -0.23700000E+01           0.00000000E+00
  -0.23600000E+01           0.00000000E+00
  -0.23500000E+01           0.00000000E+00
  -0.23400000E+01           0.00000000E+00
  -0.23300000E+01           0.00000000E+00
  -0.23200000E+01           0.00000000E+00
  -0.23100000E+01           0.00000000E+00
  -0.23000000E+01           0.00000000E+00
  -0.22900000E+01           0.00000000E+00
  -0.22800000E+01           0.00000000E+00
  -0.22700000E+01           0.00000000E+00
  -0.22600000E+01           0.00000000E+00
  -0.22500000E+01           0.00000000E+00
  -0.22400000E+01           0.00000000E+00
  -0.22300000E+01           0.00000000E+00
  -0.22200000E+01           0.00000000E+00
  -0.22100000E+01           0.00000000E+00
  -0.22000000E+01           0.00000000E+00
  -0.21900000E+01           0.00000000E+00
  -0.21800000E+01           0.00000000E+00
  -0.21700000E+01           0.00000000E+00
  -0.21600000E+01           0.00000000E+00
  -0.21500000E+01           0.00000000E+00
  -0.21400000E+01           0.00000000E+00
  -0.21300000E+01           0.00000000E+00
  -0.21200000E+01           0.00000000E+00
  -0.21100000E+01           0.00000000E+00
  -0.21000000E+01           0.00000000E+00
  -0.20900000E+01           0.00000000E+00
  -0.20800000E+01           0.00000000E+00
  -0.20700000E+01           0.00000000E+00
  -0.20600000E+01           0.00000000E+00
  -0.20500000E+01           0.00000000E+00
  -0.20400000E+01           0.00000000E+00
  -0.20300000E+01           0.00000000E+00
  -0.20200000E+01           0.00000000E+00
  -0.20100000E+01           0.00000000E+00
  -0.20000000E+01           0.00000000E+00
  -0.19900000E+01           0.00000000E+00
  -0.19800000E+01           0.00000000E+00
  -0.19700000E+01           0.00000000E+00
  -0.19600000E+01           0.00000000E+00
  -0.19500000E+01           0.00000000E+00
  -0.19400000E+01           0.00000000E+00
  -0.19300000E+01           0.00000000E+00
  -0.19200000E+01           0.00000000E+00
  -0.19100000E+01           0.00000000E+00
  -0.19000000E+01           0.00000000E+00
  -0.18900000E+01           0.00000000E+00
  -0.18800000E+01           0.00000000E+00
  -0.18700000E+01           0.00000000E+00
  -0.18600000E+01           0.00000000E+00
  -0.18500000E+01           0.00000000E+00
  -0.18400000E+01           0.00000000E+00
  -0.18300000E+01           0.00000000E+00
  -0.18200000E+01           0.00000000E+00
  -0.18100000E+01           0.00000000E+00
  -0.18000000E+01           0.00000000E+00
  -0.17900000E+01           0.00000000E+00
  -0.17800000E+01           0.00000000E+00
  -0.17700000E+01           0.00000000E+00
  -0.17600000E+01           0.00000000E+00
  -0.17500000E+01           0.00000000E+00
  -0.17400000E+01           0.00000000E+00
  -0.17300000E+01           0.00000000E+00
  -0.17200000E+01           0.00000000E+00
  -0.17100000E+01           0.00000000E+00
  -0.17000000E+01           0.00000000E+00
  -0.16900000E+01           0.00000000E+00
  -0.16800000E+01           0.00000000E+00
  -0.16700000E+01           0.00000000E+00
  -0.16600000E+01           0.00000000E+00
  -0.16500000E+01           0.00000000E+00
  -0.16400000E+01           0.00000000E+00
  -0.16300000E+01           0.00000000E+00
  -0.16200000E+01           0.00000000E+00
  -0.16100000E+01           0.00000000E+00
  -0.16000000E+01           0.00000000E+00
  -0.15900000E+01           0.00000000E+00
  -0.15800000E+01           0.00000000E+00
  -0.15700000E+01           0.00000000E+00
  -0.15600000E+01           0.00000000E+00
  -0.15500000E+01           0.00000000E+00
  -0.15400000E+01           0.00000000E+00
  -0.15300000E+01           0.00000000E+00
  -0.15200000E+01           0.00000000E+00
  -0.15100000E+01           0.00000000E+00
  -0.15000000E+01           0.00000000E+00
  -0.14900000E+01           0.00000000E+00
[...]
  -0.64000000E+00           0.00000000E+00
  -0.63000000E+00           0.00000000E+00
  -0.62000000E+00           0.00000000E+00
  -0.61000000E+00           0.00000000E+00
  -0.60000000E+00           0.00000000E+00
  -0.59000000E+00           0.00000000E+00
  -0.58000000E+00           0.00000000E+00
  -0.57000000E+00           0.00000000E+00
  -0.56000000E+00           0.00000000E+00
  -0.55000000E+00           0.00000000E+00
  -0.54000000E+00           0.00000000E+00
  -0.53000000E+00           0.00000000E+00
  -0.52000000E+00           0.00000000E+00
  -0.51000000E+00           0.00000000E+00
  -0.50000000E+00           0.00000000E+00
  -0.49000000E+00           0.00000000E+00
  -0.48000000E+00           0.00000000E+00
  -0.47000000E+00           0.00000000E+00
  -0.46000000E+00           0.00000000E+00
  -0.45000000E+00           0.00000000E+00
  -0.44000000E+00           0.00000000E+00
  -0.43000000E+00           0.00000000E+00
  -0.42000000E+00           0.00000000E+00
  -0.41000000E+00           0.00000000E+00
  -0.40000000E+00           0.00000000E+00
  -0.39000000E+00           0.00000000E+00
  -0.38000000E+00           0.00000000E+00
  -0.37000000E+00           0.00000000E+00
  -0.36000000E+00           0.00000000E+00
  -0.35000000E+00           0.00000000E+00
  -0.34000000E+00           0.00000000E+00
  -0.33000000E+00           0.00000000E+00
  -0.32000000E+00           0.00000000E+00
  -0.31000000E+00           0.00000000E+00
  -0.30000000E+00           0.00000000E+00
  -0.29000000E+00           0.00000000E+00
  -0.28000000E+00           0.00000000E+00
  -0.27000000E+00           0.00000000E+00
  -0.26000000E+00           0.00000000E+00
  -0.25000000E+00           0.00000000E+00
  -0.24000000E+00           0.00000000E+00
  -0.23000000E+00           0.00000000E+00
  -0.22000000E+00           0.00000000E+00
  -0.21000000E+00           0.00000000E+00
  -0.20000000E+00           0.00000000E+00
  -0.19000000E+00           0.00000000E+00
  -0.18000000E+00           0.00000000E+00
  -0.17000000E+00           0.00000000E+00
  -0.16000000E+00           0.00000000E+00
  -0.15000000E+00           0.00000000E+00
  -0.14000000E+00           0.00000000E+00
  -0.13000000E+00           0.00000000E+00
  -0.12000000E+00           0.00000000E+00
  -0.11000000E+00           0.00000000E+00
  -0.10000000E+00           0.00000000E+00
  -0.90000000E-01           0.00000000E+00
  -0.80000000E-01           0.00000000E+00
  -0.70000000E-01           0.00000000E+00
  -0.60000000E-01           0.00000000E+00
  -0.50000000E-01           0.00000000E+00
  -0.40000000E-01           0.00000000E+00
  -0.30000000E-01           0.00000000E+00
  -0.20000000E-01           0.00000000E+00
  -0.10000000E-01           0.00000000E+00
   0.00000000E+00           0.17578125E-05
   0.10000000E-01           0.62500000E-04
   0.20000000E-01           0.25156250E-03
   0.30000000E-01           0.52558594E-03
   0.40000000E-01           0.96914062E-03
   0.50000000E-01           0.14615234E-02
   0.60000000E-01           0.21080078E-02
   0.70000000E-01           0.28869141E-02
   0.80000000E-01           0.37552734E-02
   0.90000000E-01           0.46650391E-02
   0.10000000E+00           0.58021484E-02
   0.11000000E+00           0.69794922E-02
   0.12000000E+00           0.82464844E-02
   0.13000000E+00           0.96314453E-02
   0.14000000E+00           0.11088867E-01
   0.15000000E+00           0.12693359E-01
   0.16000000E+00           0.14346875E-01
   0.17000000E+00           0.16032813E-01
   0.18000000E+00           0.17995898E-01
   0.19000000E+00           0.19801758E-01
   0.20000000E+00           0.21913867E-01
   0.21000000E+00           0.24060156E-01
   0.22000000E+00           0.26289258E-01
   0.23000000E+00           0.28538477E-01
   0.24000000E+00           0.30955469E-01
   0.25000000E+00           0.33572656E-01
   0.26000000E+00           0.35989258E-01
   0.27000000E+00           0.38628711E-01
   0.28000000E+00           0.41259961E-01
   0.29000000E+00           0.43991797E-01
   0.30000000E+00           0.46878906E-01
   0.31000000E+00           0.49879102E-01
   0.32000000E+00           0.52619141E-01
   0.33000000E+00           0.55826172E-01
   0.34000000E+00           0.59066406E-01
   0.35000000E+00           0.62400000E-01
   0.36000000E+00           0.65308398E-01
   0.37000000E+00           0.68848047E-01
   0.38000000E+00           0.71813281E-01
   0.39000000E+00           0.75606641E-01
   0.40000000E+00           0.78932031E-01
   0.41000000E+00           0.82439844E-01
   0.42000000E+00           0.86160937E-01
   0.43000000E+00           0.89751953E-01
   0.44000000E+00           0.93334375E-01
   0.45000000E+00           0.97031836E-01
   0.46000000E+00           0.10095156E+00
   0.47000000E+00           0.10498145E+00
   0.48000000E+00           0.10889492E+00
   0.49000000E+00           0.11294082E+00
   0.50000000E+00           0.11681816E+00
   0.51000000E+00           0.12080723E+00
   0.52000000E+00           0.12481523E+00
   0.53000000E+00           0.12901211E+00
   0.54000000E+00           0.13307520E+00
   0.55000000E+00           0.13748008E+00
   0.56000000E+00           0.14151035E+00
   0.57000000E+00           0.14571641E+00
   0.58000000E+00           0.14988516E+00
   0.59000000E+00           0.15437500E+00
   0.60000000E+00           0.15851582E+00
   0.61000000E+00           0.16325000E+00
   0.62000000E+00           0.16763340E+00
   0.63000000E+00           0.17191953E+00
   0.64000000E+00           0.17633047E+00
   0.65000000E+00           0.18065137E+00
   0.66000000E+00           0.18535996E+00
   0.67000000E+00           0.18950645E+00
   0.68000000E+00           0.19427891E+00
   0.69000000E+00           0.19893711E+00
   0.70000000E+00           0.20338672E+00
   0.71000000E+00           0.20829902E+00
   0.72000000E+00           0.21302520E+00
   0.73000000E+00           0.21741563E+00
   0.74000000E+00           0.22172266E+00
   0.75000000E+00           0.22642559E+00
   0.76000000E+00           0.23109785E+00
   0.77000000E+00           0.23580723E+00
   0.78000000E+00           0.24038262E+00
   0.79000000E+00           0.24531895E+00
   0.80000000E+00           0.24973828E+00
   0.81000000E+00           0.25473848E+00
   0.82000000E+00           0.25900508E+00
   0.83000000E+00           0.26377637E+00
   0.84000000E+00           0.26854707E+00
   0.85000000E+00           0.27327422E+00
   0.86000000E+00           0.27765781E+00
   0.87000000E+00           0.28249043E+00
   0.88000000E+00           0.28695332E+00
   0.89000000E+00           0.29179043E+00
   0.90000000E+00           0.29595273E+00
   0.91000000E+00           0.30122363E+00
   0.92000000E+00           0.30546309E+00
   0.93000000E+00           0.31028613E+00
   0.94000000E+00           0.31466816E+00
   0.95000000E+00           0.31881855E+00
   0.96000000E+00           0.32381152E+00
   0.97000000E+00           0.32790625E+00
   0.98000000E+00           0.33323125E+00
   0.99000000E+00           0.33738984E+00
   0.10000000E+01           0.34182246E+00
   0.10100000E+01           0.34585195E+00
   0.10200000E+01           0.35057715E+00
   0.10300000E+01           0.35503457E+00
   0.10400000E+01           0.35977363E+00
   0.10500000E+01           0.36370273E+00
   0.10600000E+01           0.36782324E+00
   0.10700000E+01           0.37208926E+00
   0.10800000E+01           0.37656016E+00
   0.10900000E+01           0.38124570E+00
   0.11000000E+01           0.38580430E+00
   0.11100000E+01           0.38832637E+00
   0.11200000E+01           0.39292129E+00
   0.11300000E+01           0.39713223E+00
   0.11400000E+01           0.40175801E+00
   0.11500000E+01           0.40491211E+00
   0.11600000E+01           0.40897012E+00
   0.11700000E+01           0.41293672E+00
   0.11800000E+01           0.41724023E+00
   0.11900000E+01           0.42103398E+00
   0.12000000E+01           0.42522754E+00
   0.12100000E+01           0.42844277E+00
   0.12200000E+01           0.43202090E+00
   0.12300000E+01           0.43594258E+00
   0.12400000E+01           0.43943301E+00
   0.12500000E+01           0.44237148E+00
   0.12600000E+01           0.44541719E+00
   0.12700000E+01           0.45002813E+00
   0.12800000E+01           0.45300586E+00
   0.12900000E+01           0.45658535E+00
   0.13000000E+01           0.45969863E+00
   0.13100000E+01           0.46299277E+00
   0.13200000E+01           0.46617148E+00
   0.13300000E+01           0.46893965E+00
   0.13400000E+01           0.47218242E+00
   0.13500000E+01           0.47524219E+00
   0.13600000E+01           0.47862207E+00
   0.13700000E+01           0.48095566E+00
   0.13800000E+01           0.48400000E+00
   0.13900000E+01           0.48652090E+00
   0.14000000E+01           0.48939727E+00
   0.14100000E+01           0.49203730E+00
   0.14200000E+01           0.49464121E+00
   0.14300000E+01           0.49712461E+00
   0.14400000E+01           0.49879805E+00
   0.14500000E+01           0.50192500E+00
   0.14600000E+01           0.50381953E+00
   0.14700000E+01           0.50635937E+00
   0.14800000E+01           0.50850996E+00
   0.14900000E+01           0.51054297E+00
   0.15000000E+01           0.51278066E+00
   0.15100000E+01           0.51464512E+00
   0.15200000E+01           0.51606152E+00
   0.15300000E+01           0.51756152E+00
   0.15400000E+01           0.51978164E+00
   0.15500000E+01           0.52125762E+00
   0.15600000E+01           0.52348711E+00
   0.15700000E+01           0.52391328E+00
   0.15800000E+01           0.52497480E+00
   0.15900000E+01           0.52669961E+00
   0.16000000E+01           0.52811445E+00
   0.16100000E+01           0.52863535E+00
   0.16200000E+01           0.53043125E+00
   0.16300000E+01           0.53125469E+00
   0.16400000E+01           0.53176465E+00
   0.16500000E+01           0.53232227E+00
   0.16600000E+01           0.53327969E+00
   0.16700000E+01           0.53375859E+00
   0.16800000E+01           0.53430605E+00
   0.16900000E+01           0.53532383E+00
   0.17000000E+01           0.53525254E+00
   0.17100000E+01           0.53516953E+00
   0.17200000E+01           0.53571895E+00
   0.17300000E+01           0.53481055E+00
   0.17400000E+01           0.53479277E+00
   0.17500000E+01           0.53425410E+00
   0.17600000E+01           0.53443008E+00
   0.17700000E+01           0.53418359E+00
   0.17800000E+01           0.53314355E+00
   0.17900000E+01           0.53366797E+00
   0.18000000E+01           0.53205234E+00
   0.18100000E+01           0.53122910E+00
   0.18200000E+01           0.53063848E+00
   0.18300000E+01           0.53008125E+00
   0.18400000E+01           0.52788477E+00
   0.18500000E+01           0.52741016E+00
   0.18600000E+01           0.52584590E+00
   0.18700000E+01           0.52459414E+00
   0.18800000E+01           0.52286328E+00
   0.18900000E+01           0.52074941E+00
   0.19000000E+01           0.51936113E+00
   0.19100000E+01           0.51737461E+00
   0.19200000E+01           0.51572344E+00
   0.19300000E+01           0.51318066E+00
   0.19400000E+01           0.51114082E+00
   0.19500000E+01           0.50920391E+00
   0.19600000E+01           0.50638145E+00
   0.19700000E+01           0.50384531E+00
   0.19800000E+01           0.50101953E+00
   0.19900000E+01           0.49840488E+00
   0.20000000E+01           0.49579414E+00
   0.20100000E+01           0.49313008E+00
   0.20200000E+01           0.48924961E+00
   0.20300000E+01           0.48656152E+00
   0.20400000E+01           0.48336367E+00
   0.20500000E+01           0.48027520E+00
   0.20600000E+01           0.47730312E+00
   0.20700000E+01           0.47400586E+00
   0.20800000E+01           0.47061172E+00
   0.20900000E+01           0.46715879E+00
   0.21000000E+01           0.46462578E+00
   0.21100000E+01           0.46109062E+00
   0.21200000E+01           0.45799082E+00
   0.21300000E+01           0.45447676E+00
   0.21400000E+01           0.45149414E+00
   0.21500000E+01           0.44859629E+00
   0.21600000E+01           0.44436914E+00
   0.21700000E+01           0.44163613E+00
   0.21800000E+01           0.43839453E+00
   0.21900000E+01           0.43568906E+00
   0.22000000E+01           0.43165566E+00
   0.22100000E+01           0.42820684E+00
   0.22200000E+01           0.42499258E+00
   0.22300000E+01           0.42144121E+00
   0.22400000E+01           0.41846543E+00
   0.22500000E+01           0.41492324E+00
   0.22600000E+01           0.41192246E+00
   0.22700000E+01           0.40848164E+00
   0.22800000E+01           0.40503320E+00
   0.22900000E+01           0.40147363E+00
   0.23000000E+01           0.39802539E+00
   0.23100000E+01           0.39405059E+00
   0.23200000E+01           0.39097344E+00
   0.23300000E+01           0.38745059E+00
   0.23400000E+01           0.38425215E+00
   0.23500000E+01           0.38084160E+00
   0.23600000E+01           0.37697461E+00
   0.23700000E+01           0.37403496E+00
   0.23800000E+01           0.37032617E+00
   0.23900000E+01           0.36648457E+00
   0.24000000E+01           0.36318066E+00
   0.24100000E+01           0.35940312E+00
   0.24200000E+01           0.35599570E+00
   0.24300000E+01           0.35271211E+00
   0.24400000E+01           0.34854062E+00
   0.24500000E+01           0.34532051E+00
   0.24600000E+01           0.34201055E+00
   0.24700000E+01           0.33827285E+00
   0.24800000E+01           0.33547168E+00
   0.24900000E+01           0.33154023E+00
   0.25000000E+01           0.32800898E+00
   0.25100000E+01           0.32453086E+00
   0.25200000E+01           0.32092734E+00
   0.25300000E+01           0.31733535E+00
   0.25400000E+01           0.31384160E+00
   0.25500000E+01           0.31062227E+00
   0.25600000E+01           0.30682871E+00
   0.25700000E+01           0.30322539E+00
   0.25800000E+01           0.29993262E+00
   0.25900000E+01           0.29689922E+00
   0.26000000E+01           0.29309355E+00
   0.26100000E+01           0.28958965E+00
   0.26200000E+01           0.28593145E+00
   0.26300000E+01           0.28275742E+00
   0.26400000E+01           0.27886309E+00
   0.26500000E+01           0.27505410E+00
   0.26600000E+01           0.27245234E+00
   0.26700000E+01           0.26885605E+00
   0.26800000E+01           0.26557988E+00
   0.26900000E+01           0.26225723E+00
   0.27000000E+01           0.25909922E+00
   0.27100000E+01           0.25502129E+00
   0.27200000E+01           0.25221211E+00
   0.27300000E+01           0.24840156E+00
   0.27400000E+01           0.24462656E+00
   0.27500000E+01           0.24172871E+00
   0.27600000E+01           0.23821855E+00
   0.27700000E+01           0.23514629E+00
   0.27800000E+01           0.23198105E+00
   0.27900000E+01           0.22824922E+00
   0.28000000E+01           0.22502793E+00
   0.28100000E+01           0.22219707E+00
   0.28200000E+01           0.21867988E+00
   0.28300000E+01           0.21536816E+00
   0.28400000E+01           0.21167949E+00
   0.28500000E+01           0.20862676E+00
   0.28600000E+01           0.20549551E+00
   0.28700000E+01           0.20231348E+00
   0.28800000E+01           0.19924395E+00
   0.28900000E+01           0.19569238E+00
   0.29000000E+01           0.19298437E+00
   0.29100000E+01           0.18972168E+00
   0.29200000E+01           0.18662422E+00
   0.29300000E+01           0.18365605E+00
   0.29400000E+01           0.18037598E+00
   0.29500000E+01           0.17758223E+00
   0.29600000E+01           0.17455742E+00
   0.29700000E+01           0.17172793E+00
   0.29800000E+01           0.16823516E+00
   0.29900000E+01           0.16482637E+00
   0.30000000E+01           0.16193770E+00
   0.30100000E+01           0.15959844E+00
   0.30200000E+01           0.15613652E+00
   0.30300000E+01           0.15332520E+00
   0.30400000E+01           0.15054102E+00
   0.30500000E+01           0.14756895E+00
   0.30600000E+01           0.14477109E+00
   0.30700000E+01           0.14195176E+00
   0.30800000E+01           0.13923223E+00
   0.30900000E+01           0.13648418E+00
   0.31000000E+01           0.13360801E+00
   0.31100000E+01           0.13074766E+00
   0.31200000E+01           0.12804531E+00
   0.31300000E+01           0.12545234E+00
   0.31400000E+01           0.12235996E+00
   0.31500000E+01           0.12013223E+00
   0.31600000E+01           0.11718789E+00
   0.31700000E+01           0.11492187E+00
   0.31800000E+01           0.11231348E+00
   0.31900000E+01           0.10982500E+00
   0.32000000E+01           0.10721641E+00
   0.32100000E+01           0.10449844E+00
   0.32200000E+01           0.10209512E+00
   0.32300000E+01           0.99536523E-01
   0.32400000E+01           0.96950586E-01
   0.32500000E+01           0.94808984E-01
   0.32600000E+01           0.92192773E-01
   0.32700000E+01           0.89663867E-01
   0.32800000E+01           0.87541211E-01
   0.32900000E+01           0.85175000E-01
   0.33000000E+01           0.82765820E-01
   0.33100000E+01           0.80796289E-01
   0.33200000E+01           0.78790430E-01
   0.33300000E+01           0.76292187E-01
   0.33400000E+01           0.74200391E-01
   0.33500000E+01           0.71964453E-01
   0.33600000E+01           0.70228516E-01
   0.33700000E+01           0.67696680E-01
   0.33800000E+01           0.65780273E-01
   0.33900000E+01           0.63623828E-01
   0.34000000E+01           0.61620312E-01
   0.34100000E+01           0.59733594E-01
   0.34200000E+01           0.58121094E-01
   0.34300000E+01           0.55722461E-01
   0.34400000E+01           0.54030664E-01
   0.34500000E+01           0.52044531E-01
   0.34600000E+01           0.50306055E-01
   0.34700000E+01           0.48587109E-01
   0.34800000E+01           0.46628516E-01
   0.34900000E+01           0.45111328E-01
   0.35000000E+01           0.43302148E-01
   0.35100000E+01           0.41667969E-01
   0.35200000E+01           0.40041797E-01
   0.35300000E+01           0.38371875E-01
   0.35400000E+01           0.36834961E-01
   0.35500000E+01           0.35133984E-01
   0.35600000E+01           0.33632812E-01
   0.35700000E+01           0.32384375E-01
   0.35800000E+01           0.30807813E-01
   0.35900000E+01           0.29234766E-01
   0.36000000E+01           0.28063477E-01
   0.36100000E+01           0.26601562E-01
   0.36200000E+01           0.25354297E-01
   0.36300000E+01           0.23965625E-01
   0.36400000E+01           0.22645898E-01
   0.36500000E+01           0.21443945E-01
   0.36600000E+01           0.20244727E-01
   0.36700000E+01           0.19134375E-01
   0.36800000E+01           0.17936328E-01
   0.36900000E+01           0.16846094E-01
   0.37000000E+01           0.15815234E-01
   0.37100000E+01           0.14842773E-01
   0.37200000E+01           0.13838672E-01
   0.37300000E+01           0.12888281E-01
   0.37400000E+01           0.12002539E-01
   0.37500000E+01           0.11035352E-01
   0.37600000E+01           0.10161914E-01
   0.37700000E+01           0.94236328E-02
   0.37800000E+01           0.85904297E-02
   0.37900000E+01           0.78548828E-02
   0.38000000E+01           0.70820312E-02
   0.38100000E+01           0.64027344E-02
   0.38200000E+01           0.57716797E-02
   0.38300000E+01           0.51289062E-02
   0.38400000E+01           0.45734375E-02
   0.38500000E+01           0.40009766E-02
   0.38600000E+01           0.34601562E-02
   0.38700000E+01           0.29601562E-02
   0.38800000E+01           0.25425781E-02
   0.38900000E+01           0.21404297E-02
   0.39000000E+01           0.17900391E-02
   0.39100000E+01           0.14636719E-02
   0.39200000E+01           0.11630859E-02
   0.39300000E+01           0.86230469E-03
   0.39400000E+01           0.65136719E-03
   0.39500000E+01           0.43964844E-03
   0.39600000E+01           0.29042969E-03
   0.39700000E+01           0.16699219E-03
   0.39800000E+01           0.74414062E-04
   0.39900000E+01           0.16992187E-04
   0.40000000E+01           0.58593750E-06
