 #written on 19Nov2024 at 10:37:11 
 #----------------- MONTECARLO -------------------#
 #        M                      P(M)             #
 #------------------------------------------------#
 #T=    10.0000
  -0.40000000E+01           0.00000000E+00
  -0.39900000E+01           0.00000000E+00
  -0.39800000E+01           0.00000000E+00
  -0.39700000E+01           0.00000000E+00
  -0.39600000E+01           0.00000000E+00
  -0.39500000E+01           0.00000000E+00
  -0.39400000E+01           0.00000000E+00
  -0.39300000E+01           0.00000000E+00
  -0.39200000E+01           0.00000000E+00
  -0.39100000E+01           0.00000000E+00
  -0.39000000E+01           0.00000000E+00
  -0.38900000E+01           0.00000000E+00
  -0.38800000E+01           0.00000000E+00
  -0.38700000E+01           0.00000000E+00
  -0.38600000E+01           0.00000000E+00
  -0.38500000E+01           0.00000000E+00
  -0.38400000E+01           0.00000000E+00
  -0.38300000E+01           0.00000000E+00
  -0.38200000E+01           0.00000000E+00
  -0.38100000E+01           0.00000000E+00
  -0.38000000E+01           0.00000000E+00
  -0.37900000E+01           0.00000000E+00
  -0.37800000E+01           0.00000000E+00
  -0.37700000E+01           0.00000000E+00
  -0.37600000E+01           0.00000000E+00
  -0.37500000E+01           0.00000000E+00
  -0.37400000E+01           0.00000000E+00
  -0.37300000E+01           0.00000000E+00
  -0.37200000E+01           0.00000000E+00
  -0.37100000E+01           0.00000000E+00
  -0.37000000E+01           0.00000000E+00
  -0.36900000E+01           0.00000000E+00
  -0.36800000E+01           0.00000000E+00
  -0.36700000E+01           0.00000000E+00
  -0.36600000E+01           0.00000000E+00
  -0.36500000E+01           0.00000000E+00
  -0.36400000E+01           0.00000000E+00
  -0.36300000E+01           0.00000000E+00
  -0.36200000E+01           0.00000000E+00
  -0.36100000E+01           0.00000000E+00
  -0.36000000E+01           0.00000000E+00
  -0.35900000E+01           0.00000000E+00
  -0.35800000E+01           0.00000000E+00
  -0.35700000E+01           0.00000000E+00
  -0.35600000E+01           0.00000000E+00
  -0.35500000E+01           0.00000000E+00
  -0.35400000E+01           0.00000000E+00
  -0.35300000E+01           0.00000000E+00
  -0.35200000E+01           0.00000000E+00
  -0.35100000E+01           0.00000000E+00
  -0.35000000E+01           0.00000000E+00
  -0.34900000E+01           0.00000000E+00
  -0.34800000E+01           0.00000000E+00
  -0.34700000E+01           0.00000000E+00
  -0.34600000E+01           0.00000000E+00
  -0.34500000E+01           0.00000000E+00
  -0.34400000E+01           0.00000000E+00
  -0.34300000E+01           0.00000000E+00
  -0.34200000E+01           0.00000000E+00
  -0.34100000E+01           0.00000000E+00
  -0.34000000E+01           0.00000000E+00
  -0.33900000E+01           0.00000000E+00
  -0.33800000E+01           0.00000000E+00
  -0.33700000E+01           0.00000000E+00
  -0.33600000E+01           0.00000000E+00
  -0.33500000E+01           0.00000000E+00
  -0.33400000E+01           0.00000000E+00
  -0.33300000E+01           0.00000000E+00
  -0.33200000E+01           0.00000000E+00
  -0.33100000E+01           0.00000000E+00
  -0.33000000E+01           0.00000000E+00
  -0.32900000E+01           0.00000000E+00
  -0.32800000E+01           0.00000000E+00
  -0.32700000E+01           0.00000000E+00
  -0.32600000E+01           0.00000000E+00
  -0.32500000E+01           0.00000000E+00
  -0.32400000E+01           0.00000000E+00
  -0.32300000E+01           0.00000000E+00
  -0.32200000E+01           0.00000000E+00
  -0.32100000E+01           0.00000000E+00
  -0.32000000E+01           0.00000000E+00
  -0.31900000E+01           0.00000000E+00
  -0.31800000E+01           0.00000000E+00
  -0.31700000E+01           0.00000000E+00
  -0.31600000E+01           0.00000000E+00
  -0.31500000E+01           0.00000000E+00
  -0.31400000E+01           0.00000000E+00
  -0.31300000E+01           0.00000000E+00
  -0.31200000E+01           0.00000000E+00
  -0.31100000E+01           0.00000000E+00
  -0.31000000E+01           0.00000000E+00
  -0.30900000E+01           0.00000000E+00
  -0.30800000E+01           0.00000000E+00
  -0.30700000E+01           0.00000000E+00
  -0.30600000E+01           0.00000000E+00
  -0.30500000E+01           0.00000000E+00
  -0.30400000E+01           0.00000000E+00
  -0.30300000E+01           0.00000000E+00
  -0.30200000E+01           0.00000000E+00
  -0.30100000E+01           0.00000000E+00
  -0.30000000E+01           0.00000000E+00
  -0.29900000E+01           0.00000000E+00
  -0.29800000E+01           0.00000000E+00
  -0.29700000E+01           0.00000000E+00
  -0.29600000E+01           0.00000000E+00
  -0.29500000E+01           0.00000000E+00
  -0.29400000E+01           0.00000000E+00
  -0.29300000E+01           0.00000000E+00
  -0.29200000E+01           0.00000000E+00
  -0.29100000E+01           0.00000000E+00
  -0.29000000E+01           0.00000000E+00
  -0.28900000E+01           0.00000000E+00
  -0.28800000E+01           0.00000000E+00
  -0.28700000E+01           0.00000000E+00
  -0.28600000E+01           0.00000000E+00
  -0.28500000E+01           0.00000000E+00
  -0.28400000E+01           0.00000000E+00
  -0.28300000E+01           0.00000000E+00
  -0.28200000E+01           0.00000000E+00
  -0.28100000E+01           0.00000000E+00
  -0.28000000E+01           0.00000000E+00
  -0.27900000E+01           0.00000000E+00
  -0.27800000E+01           0.00000000E+00
  -0.27700000E+01           0.00000000E+00
  -0.27600000E+01           0.00000000E+00
  -0.27500000E+01           0.00000000E+00
  -0.27400000E+01           0.00000000E+00
  -0.27300000E+01           0.00000000E+00
  -0.27200000E+01           0.00000000E+00
  -0.27100000E+01           0.00000000E+00
  -0.27000000E+01           0.00000000E+00
  -0.26900000E+01           0.00000000E+00
  -0.26800000E+01           0.00000000E+00
  -0.26700000E+01           0.00000000E+00
  -0.26600000E+01           0.00000000E+00
  -0.26500000E+01           0.00000000E+00
  -0.26400000E+01           0.00000000E+00
  -0.26300000E+01           0.00000000E+00
  -0.26200000E+01           0.00000000E+00
  -0.26100000E+01           0.00000000E+00
  -0.26000000E+01           0.00000000E+00
  -0.25900000E+01           0.00000000E+00
  -0.25800000E+01           0.00000000E+00
  -0.25700000E+01           0.00000000E+00
  -0.25600000E+01           0.00000000E+00
  -0.25500000E+01           0.00000000E+00
  -0.25400000E+01           0.00000000E+00
  -0.25300000E+01           0.00000000E+00
  -0.25200000E+01           0.00000000E+00
  -0.25100000E+01           0.00000000E+00
  -0.25000000E+01           0.00000000E+00
  -0.24900000E+01           0.00000000E+00
  -0.24800000E+01           0.00000000E+00
  -0.24700000E+01           0.00000000E+00
  -0.24600000E+01           0.00000000E+00
  -0.24500000E+01           0.00000000E+00
  -0.24400000E+01           0.00000000E+00
  -0.24300000E+01           0.00000000E+00
  -0.24200000E+01           0.00000000E+00
  -0.24100000E+01           0.00000000E+00
  -0.24000000E+01           0.00000000E+00
  -0.23900000E+01           0.00000000E+00
  -0.23800000E+01           0.00000000E+00
  -0.23700000E+01           0.00000000E+00
  -0.23600000E+01           0.00000000E+00
  -0.23500000E+01           0.00000000E+00
  -0.23400000E+01           0.00000000E+00
  -0.23300000E+01           0.00000000E+00
  -0.23200000E+01           0.00000000E+00
  -0.23100000E+01           0.00000000E+00
  -0.23000000E+01           0.00000000E+00
  -0.22900000E+01           0.00000000E+00
  -0.22800000E+01           0.00000000E+00
  -0.22700000E+01           0.00000000E+00
  -0.22600000E+01           0.00000000E+00
  -0.22500000E+01           0.00000000E+00
  -0.22400000E+01           0.00000000E+00
  -0.22300000E+01           0.00000000E+00
  -0.22200000E+01           0.00000000E+00
  -0.22100000E+01           0.00000000E+00
  -0.22000000E+01           0.00000000E+00
  -0.21900000E+01           0.00000000E+00
  -0.21800000E+01           0.00000000E+00
  -0.21700000E+01           0.00000000E+00
  -0.21600000E+01           0.00000000E+00
  -0.21500000E+01           0.00000000E+00
  -0.21400000E+01           0.00000000E+00
  -0.21300000E+01           0.00000000E+00
  -0.21200000E+01           0.00000000E+00
  -0.21100000E+01           0.00000000E+00
  -0.21000000E+01           0.00000000E+00
  -0.20900000E+01           0.00000000E+00
  -0.20800000E+01           0.00000000E+00
  -0.20700000E+01           0.00000000E+00
  -0.20600000E+01           0.00000000E+00
  -0.20500000E+01           0.00000000E+00
  -0.20400000E+01           0.00000000E+00
  -0.20300000E+01           0.00000000E+00
  -0.20200000E+01           0.00000000E+00
  -0.20100000E+01           0.00000000E+00
  -0.20000000E+01           0.00000000E+00
  -0.19900000E+01           0.00000000E+00
  -0.19800000E+01           0.00000000E+00
  -0.19700000E+01           0.00000000E+00
  -0.19600000E+01           0.00000000E+00
  -0.19500000E+01           0.00000000E+00
  -0.19400000E+01           0.00000000E+00
  -0.19300000E+01           0.00000000E+00
  -0.19200000E+01           0.00000000E+00
  -0.19100000E+01           0.00000000E+00
  -0.19000000E+01           0.00000000E+00
  -0.18900000E+01           0.00000000E+00
  -0.18800000E+01           0.00000000E+00
  -0.18700000E+01           0.00000000E+00
  -0.18600000E+01           0.00000000E+00
  -0.18500000E+01           0.00000000E+00
  -0.18400000E+01           0.00000000E+00
  -0.18300000E+01           0.00000000E+00
  -0.18200000E+01           0.00000000E+00
  -0.18100000E+01           0.00000000E+00
  -0.18000000E+01           0.00000000E+00
  -0.17900000E+01           0.00000000E+00
  -0.17800000E+01           0.00000000E+00
  -0.17700000E+01           0.00000000E+00
  -0.17600000E+01           0.00000000E+00
  -0.17500000E+01           0.00000000E+00
  -0.17400000E+01           0.00000000E+00
  -0.17300000E+01           0.00000000E+00
  -0.17200000E+01           0.00000000E+00
  -0.17100000E+01           0.00000000E+00
  -0.17000000E+01           0.00000000E+00
  -0.16900000E+01           0.00000000E+00
  -0.16800000E+01           0.00000000E+00
  -0.16700000E+01           0.00000000E+00
  -0.16600000E+01           0.00000000E+00
  -0.16500000E+01           0.00000000E+00
  -0.16400000E+01           0.00000000E+00
  -0.16300000E+01           0.00000000E+00
  -0.16200000E+01           0.00000000E+00
  -0.16100000E+01           0.00000000E+00
  -0.16000000E+01           0.00000000E+00
  -0.15900000E+01           0.00000000E+00
  -0.15800000E+01           0.00000000E+00
  -0.15700000E+01           0.00000000E+00
  -0.15600000E+01           0.00000000E+00
  -0.15500000E+01           0.00000000E+00
  -0.15400000E+01           0.00000000E+00
  -0.15300000E+01           0.00000000E+00
  -0.15200000E+01           0.00000000E+00
  -0.15100000E+01           0.00000000E+00
  -0.15000000E+01           0.00000000E+00
  -0.14900000E+01           0.00000000E+00
  -0.14800000E+01           0.00000000E+00
  -0.14700000E+01           0.00000000E+00
  -0.14600000E+01           0.00000000E+00
  -0.14500000E+01           0.00000000E+00
  -0.14400000E+01           0.00000000E+00
  -0.14300000E+01           0.00000000E+00
  -0.14200000E+01           0.00000000E+00
  -0.14100000E+01           0.00000000E+00
  -0.14000000E+01           0.00000000E+00
  -0.13900000E+01           0.00000000E+00
  -0.13800000E+01           0.00000000E+00
  -0.13700000E+01           0.00000000E+00
  -0.13600000E+01           0.00000000E+00
  -0.13500000E+01           0.00000000E+00
  -0.13400000E+01           0.00000000E+00
  -0.13300000E+01           0.00000000E+00
  -0.13200000E+01           0.00000000E+00
  -0.13100000E+01           0.00000000E+00
  -0.13000000E+01           0.00000000E+00
  -0.12900000E+01           0.00000000E+00
  -0.12800000E+01           0.00000000E+00
  -0.12700000E+01           0.00000000E+00
  -0.12600000E+01           0.00000000E+00
  -0.12500000E+01           0.00000000E+00
  -0.12400000E+01           0.00000000E+00
  -0.12300000E+01           0.00000000E+00
  -0.12200000E+01           0.00000000E+00
  -0.12100000E+01           0.00000000E+00
  -0.12000000E+01           0.00000000E+00
  -0.11900000E+01           0.00000000E+00
  -0.11800000E+01           0.00000000E+00
  -0.11700000E+01           0.00000000E+00
  -0.11600000E+01           0.00000000E+00
  -0.11500000E+01           0.00000000E+00
  -0.11400000E+01           0.00000000E+00
  -0.11300000E+01           0.00000000E+00
  -0.11200000E+01           0.00000000E+00
  -0.11100000E+01           0.00000000E+00
  -0.11000000E+01           0.00000000E+00
  -0.10900000E+01           0.00000000E+00
  -0.10800000E+01           0.00000000E+00
  -0.10700000E+01           0.00000000E+00
  -0.10600000E+01           0.00000000E+00
  -0.10500000E+01           0.00000000E+00
  -0.10400000E+01           0.00000000E+00
  -0.10300000E+01           0.00000000E+00
  -0.10200000E+01           0.00000000E+00
  -0.10100000E+01           0.00000000E+00
  -0.10000000E+01           0.00000000E+00
  -0.99000000E+00           0.00000000E+00
  -0.98000000E+00           0.00000000E+00
  -0.97000000E+00           0.00000000E+00
  -0.96000000E+00           0.00000000E+00
  -0.95000000E+00           0.00000000E+00
  -0.94000000E+00           0.00000000E+00
  -0.93000000E+00           0.00000000E+00
  -0.92000000E+00           0.00000000E+00
  -0.91000000E+00           0.00000000E+00
  -0.90000000E+00           0.00000000E+00
  -0.89000000E+00           0.00000000E+00
  -0.88000000E+00           0.00000000E+00
  -0.87000000E+00           0.00000000E+00
  -0.86000000E+00           0.00000000E+00
  -0.85000000E+00           0.00000000E+00
  -0.84000000E+00           0.00000000E+00
  -0.83000000E+00           0.00000000E+00
  -0.82000000E+00           0.00000000E+00
  -0.81000000E+00           0.00000000E+00
  -0.80000000E+00           0.00000000E+00
  -0.79000000E+00           0.00000000E+00
  -0.78000000E+00           0.00000000E+00
  -0.77000000E+00           0.00000000E+00
  -0.76000000E+00           0.00000000E+00
  -0.75000000E+00           0.00000000E+00
  -0.74000000E+00           0.00000000E+00
  -0.73000000E+00           0.00000000E+00
  -0.72000000E+00           0.00000000E+00
  -0.71000000E+00           0.00000000E+00
  -0.70000000E+00           0.00000000E+00
  -0.69000000E+00           0.00000000E+00
  -0.68000000E+00           0.00000000E+00
  -0.67000000E+00           0.00000000E+00
  -0.66000000E+00           0.00000000E+00
  -0.65000000E+00           0.00000000E+00
  -0.64000000E+00           0.00000000E+00
  -0.63000000E+00           0.00000000E+00
  -0.62000000E+00           0.00000000E+00
  -0.61000000E+00           0.00000000E+00
  -0.60000000E+00           0.00000000E+00
  -0.59000000E+00           0.00000000E+00
  -0.58000000E+00           0.00000000E+00
  -0.57000000E+00           0.00000000E+00
  -0.56000000E+00           0.00000000E+00
  -0.55000000E+00           0.00000000E+00
  -0.54000000E+00           0.00000000E+00
  -0.53000000E+00           0.00000000E+00
  -0.52000000E+00           0.00000000E+00
  -0.51000000E+00           0.00000000E+00
  -0.50000000E+00           0.00000000E+00
  -0.49000000E+00           0.00000000E+00
  -0.48000000E+00           0.00000000E+00
  -0.47000000E+00           0.00000000E+00
  -0.46000000E+00           0.00000000E+00
  -0.45000000E+00           0.00000000E+00
  -0.44000000E+00           0.00000000E+00
  -0.43000000E+00           0.00000000E+00
  -0.42000000E+00           0.00000000E+00
  -0.41000000E+00           0.00000000E+00
  -0.40000000E+00           0.00000000E+00
  -0.39000000E+00           0.00000000E+00
  -0.38000000E+00           0.00000000E+00
  -0.37000000E+00           0.00000000E+00
  -0.36000000E+00           0.00000000E+00
  -0.35000000E+00           0.00000000E+00
  -0.34000000E+00           0.00000000E+00
  -0.33000000E+00           0.00000000E+00
  -0.32000000E+00           0.00000000E+00
  -0.31000000E+00           0.00000000E+00
  -0.30000000E+00           0.00000000E+00
  -0.29000000E+00           0.00000000E+00
  -0.28000000E+00           0.00000000E+00
  -0.27000000E+00           0.00000000E+00
  -0.26000000E+00           0.00000000E+00
  -0.25000000E+00           0.00000000E+00
  -0.24000000E+00           0.00000000E+00
  -0.23000000E+00           0.00000000E+00
  -0.22000000E+00           0.00000000E+00
  -0.21000000E+00           0.00000000E+00
  -0.20000000E+00           0.00000000E+00
  -0.19000000E+00           0.00000000E+00
  -0.18000000E+00           0.00000000E+00
  -0.17000000E+00           0.00000000E+00
  -0.16000000E+00           0.00000000E+00
  -0.15000000E+00           0.00000000E+00
  -0.14000000E+00           0.00000000E+00
  -0.13000000E+00           0.00000000E+00
  -0.12000000E+00           0.00000000E+00
  -0.11000000E+00           0.00000000E+00
  -0.10000000E+00           0.00000000E+00
  -0.90000000E-01           0.00000000E+00
  -0.80000000E-01           0.00000000E+00
  -0.70000000E-01           0.00000000E+00
  -0.60000000E-01           0.00000000E+00
  -0.50000000E-01           0.00000000E+00
  -0.40000000E-01           0.00000000E+00
  -0.30000000E-01           0.00000000E+00
  -0.20000000E-01           0.00000000E+00
  -0.10000000E-01           0.00000000E+00
   0.00000000E+00           0.00000000E+00
   0.10000000E-01           0.00000000E+00
   0.20000000E-01           0.00000000E+00
   0.30000000E-01           0.00000000E+00
   0.40000000E-01           0.00000000E+00
   0.50000000E-01           0.00000000E+00
   0.60000000E-01           0.00000000E+00
   0.70000000E-01           0.00000000E+00
   0.80000000E-01           0.00000000E+00
   0.90000000E-01           0.00000000E+00
   0.10000000E+00           0.00000000E+00
   0.11000000E+00           0.00000000E+00
   0.12000000E+00           0.00000000E+00
   0.13000000E+00           0.00000000E+00
   0.14000000E+00           0.00000000E+00
   0.15000000E+00           0.00000000E+00
   0.16000000E+00           0.00000000E+00
   0.17000000E+00           0.00000000E+00
   0.18000000E+00           0.00000000E+00
   0.19000000E+00           0.00000000E+00
   0.20000000E+00           0.00000000E+00
   0.21000000E+00           0.00000000E+00
   0.22000000E+00           0.00000000E+00
   0.23000000E+00           0.00000000E+00
   0.24000000E+00           0.00000000E+00
   0.25000000E+00           0.00000000E+00
   0.26000000E+00           0.00000000E+00
   0.27000000E+00           0.00000000E+00
   0.28000000E+00           0.00000000E+00
   0.29000000E+00           0.00000000E+00
   0.30000000E+00           0.00000000E+00
   0.31000000E+00           0.00000000E+00
   0.32000000E+00           0.00000000E+00
   0.33000000E+00           0.00000000E+00
   0.34000000E+00           0.00000000E+00
   0.35000000E+00           0.00000000E+00
   0.36000000E+00           0.00000000E+00
   0.37000000E+00           0.00000000E+00
   0.38000000E+00           0.00000000E+00
   0.39000000E+00           0.54112554E-07
   0.40000000E+00           0.00000000E+00
   0.41000000E+00           0.00000000E+00
   0.42000000E+00           0.00000000E+00
   0.43000000E+00           0.00000000E+00
   0.44000000E+00           0.00000000E+00
   0.45000000E+00           0.00000000E+00
   0.46000000E+00           0.00000000E+00
   0.47000000E+00           0.00000000E+00
   0.48000000E+00           0.00000000E+00
   0.49000000E+00           0.00000000E+00
   0.50000000E+00           0.00000000E+00
   0.51000000E+00           0.00000000E+00
   0.52000000E+00           0.00000000E+00
   0.53000000E+00           0.00000000E+00
   0.54000000E+00           0.00000000E+00
   0.55000000E+00           0.00000000E+00
   0.56000000E+00           0.00000000E+00
   0.57000000E+00           0.54112554E-07
   0.58000000E+00           0.00000000E+00
   0.59000000E+00           0.00000000E+00
   0.60000000E+00           0.00000000E+00
   0.61000000E+00           0.54112554E-07
   0.62000000E+00           0.00000000E+00
   0.63000000E+00           0.00000000E+00
   0.64000000E+00           0.16233766E-06
   0.65000000E+00           0.00000000E+00
   0.66000000E+00           0.27056277E-06
   0.67000000E+00           0.00000000E+00
   0.68000000E+00           0.10822511E-06
   0.69000000E+00           0.48701299E-06
   0.70000000E+00           0.21645022E-06
   0.71000000E+00           0.27056277E-06
   0.72000000E+00           0.70346320E-06
   0.73000000E+00           0.64935065E-06
   0.74000000E+00           0.12445887E-05
   0.75000000E+00           0.97402597E-06
   0.76000000E+00           0.75757576E-06
   0.77000000E+00           0.12987013E-05
   0.78000000E+00           0.23809524E-05
   0.79000000E+00           0.29761905E-05
   0.80000000E+00           0.29220779E-05
   0.81000000E+00           0.39502165E-05
   0.82000000E+00           0.45995671E-05
   0.83000000E+00           0.74134199E-05
   0.84000000E+00           0.87662338E-05
   0.85000000E+00           0.12283550E-04
   0.86000000E+00           0.12500000E-04
   0.87000000E+00           0.18722944E-04
   0.88000000E+00           0.22564935E-04
   0.89000000E+00           0.27218615E-04
   0.90000000E+00           0.40476190E-04
   0.91000000E+00           0.46103896E-04
   0.92000000E+00           0.59740260E-04
   0.93000000E+00           0.76461039E-04
   0.94000000E+00           0.10151515E-03
   0.95000000E+00           0.11390693E-03
   0.96000000E+00           0.14534632E-03
   0.97000000E+00           0.18517316E-03
   0.98000000E+00           0.21953463E-03
   0.99000000E+00           0.29426407E-03
   0.10000000E+01           0.33501082E-03
   0.10100000E+01           0.43138528E-03
   0.10200000E+01           0.51899351E-03
   0.10300000E+01           0.64383117E-03
   0.10400000E+01           0.80762987E-03
   0.10500000E+01           0.99047619E-03
   0.10600000E+01           0.12031385E-02
   0.10700000E+01           0.14740801E-02
   0.10800000E+01           0.17859848E-02
   0.10900000E+01           0.21544913E-02
   0.11000000E+01           0.26700216E-02
   0.11100000E+01           0.32011364E-02
   0.11200000E+01           0.38737554E-02
   0.11300000E+01           0.47554654E-02
   0.11400000E+01           0.56476190E-02
   0.11500000E+01           0.68029221E-02
   0.11600000E+01           0.81290584E-02
   0.11700000E+01           0.98068182E-02
   0.11800000E+01           0.11713690E-01
   0.11900000E+01           0.13842857E-01
   0.12000000E+01           0.16426840E-01
   0.12100000E+01           0.19616071E-01
   0.12200000E+01           0.23132792E-01
   0.12300000E+01           0.27226353E-01
   0.12400000E+01           0.32148864E-01
   0.12500000E+01           0.37461580E-01
   0.12600000E+01           0.44044481E-01
   0.12700000E+01           0.51191071E-01
   0.12800000E+01           0.59536201E-01
   0.12900000E+01           0.69319968E-01
   0.13000000E+01           0.79799784E-01
   0.13100000E+01           0.92279383E-01
   0.13200000E+01           0.10607738E+00
   0.13300000E+01           0.12168236E+00
   0.13400000E+01           0.13883479E+00
   0.13500000E+01           0.15851856E+00
   0.13600000E+01           0.18012213E+00
   0.13700000E+01           0.20456153E+00
   0.13800000E+01           0.23049085E+00
   0.13900000E+01           0.26022744E+00
   0.14000000E+01           0.29237024E+00
   0.14100000E+01           0.32793523E+00
   0.14200000E+01           0.36587798E+00
   0.14300000E+01           0.40707722E+00
   0.14400000E+01           0.45214951E+00
   0.14500000E+01           0.50076071E+00
   0.14600000E+01           0.55246023E+00
   0.14700000E+01           0.60721677E+00
   0.14800000E+01           0.66490395E+00
   0.14900000E+01           0.72793377E+00
   0.15000000E+01           0.79305287E+00
   0.15100000E+01           0.86036288E+00
   0.15200000E+01           0.93210768E+00
   0.15300000E+01           0.10054937E+01
   0.15400000E+01           0.10818175E+01
   0.15500000E+01           0.11600251E+01
   0.15600000E+01           0.12390936E+01
   0.15700000E+01           0.13203202E+01
   0.15800000E+01           0.14030445E+01
   0.15900000E+01           0.14819807E+01
   0.16000000E+01           0.15652753E+01
   0.16100000E+01           0.16458594E+01
   0.16200000E+01           0.17233139E+01
   0.16300000E+01           0.18012831E+01
   0.16400000E+01           0.18734690E+01
   0.16500000E+01           0.19435997E+01
   0.16600000E+01           0.20099745E+01
   0.16700000E+01           0.20709868E+01
   0.16800000E+01           0.21273786E+01
   0.16900000E+01           0.21756951E+01
   0.17000000E+01           0.22199932E+01
   0.17100000E+01           0.22570415E+01
   0.17200000E+01           0.22852245E+01
   0.17300000E+01           0.23085581E+01
   0.17400000E+01           0.23229235E+01
   0.17500000E+01           0.23300548E+01
   0.17600000E+01           0.23274996E+01
   0.17700000E+01           0.23177692E+01
   0.17800000E+01           0.23007778E+01
   0.17900000E+01           0.22753487E+01
   0.18000000E+01           0.22439995E+01
   0.18100000E+01           0.22032708E+01
   0.18200000E+01           0.21569864E+01
   0.18300000E+01           0.21034896E+01
   0.18400000E+01           0.20443670E+01
   0.18500000E+01           0.19797264E+01
   0.18600000E+01           0.19115780E+01
   0.18700000E+01           0.18383108E+01
   0.18800000E+01           0.17614105E+01
   0.18900000E+01           0.16832842E+01
   0.19000000E+01           0.16026272E+01
   0.19100000E+01           0.15191448E+01
   0.19200000E+01           0.14360937E+01
   0.19300000E+01           0.13541554E+01
   0.19400000E+01           0.12702558E+01
   0.19500000E+01           0.11892753E+01
   0.19600000E+01           0.11075910E+01
   0.19700000E+01           0.10289755E+01
   0.19800000E+01           0.95302413E+00
   0.19900000E+01           0.87956569E+00
   0.20000000E+01           0.80859859E+00
   0.20100000E+01           0.74112338E+00
   0.20200000E+01           0.67704789E+00
   0.20300000E+01           0.61498133E+00
   0.20400000E+01           0.55875725E+00
   0.20500000E+01           0.50460866E+00
   0.20600000E+01           0.45484389E+00
   0.20700000E+01           0.40843415E+00
   0.20800000E+01           0.36535904E+00
   0.20900000E+01           0.32496737E+00
   0.21000000E+01           0.28866856E+00
   0.21100000E+01           0.25564724E+00
   0.21200000E+01           0.22543885E+00
   0.21300000E+01           0.19809269E+00
   0.21400000E+01           0.17347630E+00
   0.21500000E+01           0.15154724E+00
   0.21600000E+01           0.13194708E+00
   0.21700000E+01           0.11418490E+00
   0.21800000E+01           0.98578084E-01
   0.21900000E+01           0.84994913E-01
   0.22000000E+01           0.72970455E-01
   0.22100000E+01           0.62338745E-01
   0.22200000E+01           0.53102327E-01
   0.22300000E+01           0.45227543E-01
   0.22400000E+01           0.38175812E-01
   0.22500000E+01           0.32014773E-01
   0.22600000E+01           0.27081006E-01
   0.22700000E+01           0.22658442E-01
   0.22800000E+01           0.19033387E-01
   0.22900000E+01           0.15792695E-01
   0.23000000E+01           0.13088961E-01
   0.23100000E+01           0.10786797E-01
   0.23200000E+01           0.88625541E-02
   0.23300000E+01           0.72439935E-02
   0.23400000E+01           0.59046537E-02
   0.23500000E+01           0.48766234E-02
   0.23600000E+01           0.39345238E-02
   0.23700000E+01           0.31717532E-02
   0.23800000E+01           0.25726190E-02
   0.23900000E+01           0.20570887E-02
   0.24000000E+01           0.16549242E-02
   0.24100000E+01           0.13161255E-02
   0.24200000E+01           0.10302489E-02
   0.24300000E+01           0.81861472E-03
   0.24400000E+01           0.65622294E-03
   0.24500000E+01           0.53317100E-03
   0.24600000E+01           0.39772727E-03
   0.24700000E+01           0.32256494E-03
   0.24800000E+01           0.24567100E-03
   0.24900000E+01           0.17938312E-03
   0.25000000E+01           0.14291126E-03
   0.25100000E+01           0.11174242E-03
   0.25200000E+01           0.84523810E-04
   0.25300000E+01           0.66287879E-04
   0.25400000E+01           0.52164502E-04
   0.25500000E+01           0.34686147E-04
   0.25600000E+01           0.29653680E-04
   0.25700000E+01           0.21320346E-04
   0.25800000E+01           0.17586580E-04
   0.25900000E+01           0.12987013E-04
   0.26000000E+01           0.79004329E-05
   0.26100000E+01           0.74134199E-05
   0.26200000E+01           0.47077922E-05
   0.26300000E+01           0.29220779E-05
   0.26400000E+01           0.33008658E-05
   0.26500000E+01           0.26515152E-05
   0.26600000E+01           0.12445887E-05
   0.26700000E+01           0.10281385E-05
   0.26800000E+01           0.81168831E-06
   0.26900000E+01           0.43290043E-06
   0.27000000E+01           0.81168831E-06
   0.27100000E+01           0.43290043E-06
   0.27200000E+01           0.21645022E-06
   0.27300000E+01           0.00000000E+00
   0.27400000E+01           0.54112554E-07
   0.27500000E+01           0.54112554E-07
   0.27600000E+01           0.00000000E+00
   0.27700000E+01           0.00000000E+00
   0.27800000E+01           0.00000000E+00
   0.27900000E+01           0.00000000E+00
   0.28000000E+01           0.00000000E+00
   0.28100000E+01           0.00000000E+00
   0.28200000E+01           0.00000000E+00
   0.28300000E+01           0.54112554E-07
   0.28400000E+01           0.00000000E+00
   0.28500000E+01           0.00000000E+00
   0.28600000E+01           0.00000000E+00
   0.28700000E+01           0.00000000E+00
   0.28800000E+01           0.00000000E+00
   0.28900000E+01           0.00000000E+00
   0.29000000E+01           0.00000000E+00
   0.29100000E+01           0.00000000E+00
   0.29200000E+01           0.00000000E+00
   0.29300000E+01           0.00000000E+00
   0.29400000E+01           0.00000000E+00
   0.29500000E+01           0.00000000E+00
   0.29600000E+01           0.00000000E+00
   0.29700000E+01           0.00000000E+00
   0.29800000E+01           0.00000000E+00
   0.29900000E+01           0.00000000E+00
   0.30000000E+01           0.00000000E+00
   0.30100000E+01           0.00000000E+00
   0.30200000E+01           0.00000000E+00
   0.30300000E+01           0.00000000E+00
   0.30400000E+01           0.00000000E+00
   0.30500000E+01           0.00000000E+00
   0.30600000E+01           0.00000000E+00
   0.30700000E+01           0.00000000E+00
   0.30800000E+01           0.00000000E+00
   0.30900000E+01           0.00000000E+00
   0.31000000E+01           0.00000000E+00
   0.31100000E+01           0.00000000E+00
   0.31200000E+01           0.00000000E+00
   0.31300000E+01           0.00000000E+00
   0.31400000E+01           0.00000000E+00
   0.31500000E+01           0.00000000E+00
   0.31600000E+01           0.00000000E+00
   0.31700000E+01           0.00000000E+00
   0.31800000E+01           0.00000000E+00
   0.31900000E+01           0.00000000E+00
   0.32000000E+01           0.00000000E+00
   0.32100000E+01           0.00000000E+00
   0.32200000E+01           0.00000000E+00
   0.32300000E+01           0.00000000E+00
   0.32400000E+01           0.00000000E+00
   0.32500000E+01           0.00000000E+00
   0.32600000E+01           0.00000000E+00
   0.32700000E+01           0.00000000E+00
   0.32800000E+01           0.00000000E+00
   0.32900000E+01           0.00000000E+00
   0.33000000E+01           0.00000000E+00
   0.33100000E+01           0.00000000E+00
   0.33200000E+01           0.00000000E+00
   0.33300000E+01           0.00000000E+00
   0.33400000E+01           0.00000000E+00
   0.33500000E+01           0.00000000E+00
   0.33600000E+01           0.00000000E+00
   0.33700000E+01           0.00000000E+00
   0.33800000E+01           0.00000000E+00
   0.33900000E+01           0.00000000E+00
   0.34000000E+01           0.00000000E+00
   0.34100000E+01           0.00000000E+00
   0.34200000E+01           0.00000000E+00
   0.34300000E+01           0.00000000E+00
   0.34400000E+01           0.00000000E+00
   0.34500000E+01           0.00000000E+00
   0.34600000E+01           0.00000000E+00
   0.34700000E+01           0.00000000E+00
   0.34800000E+01           0.00000000E+00
   0.34900000E+01           0.00000000E+00
   0.35000000E+01           0.00000000E+00
   0.35100000E+01           0.00000000E+00
   0.35200000E+01           0.00000000E+00
   0.35300000E+01           0.00000000E+00
   0.35400000E+01           0.00000000E+00
   0.35500000E+01           0.00000000E+00
   0.35600000E+01           0.00000000E+00
   0.35700000E+01           0.00000000E+00
   0.35800000E+01           0.00000000E+00
   0.35900000E+01           0.00000000E+00
   0.36000000E+01           0.00000000E+00
   0.36100000E+01           0.00000000E+00
   0.36200000E+01           0.00000000E+00
   0.36300000E+01           0.00000000E+00
   0.36400000E+01           0.00000000E+00
   0.36500000E+01           0.00000000E+00
   0.36600000E+01           0.00000000E+00
   0.36700000E+01           0.00000000E+00
   0.36800000E+01           0.00000000E+00
   0.36900000E+01           0.00000000E+00
   0.37000000E+01           0.00000000E+00
   0.37100000E+01           0.00000000E+00
   0.37200000E+01           0.00000000E+00
   0.37300000E+01           0.00000000E+00
   0.37400000E+01           0.00000000E+00
   0.37500000E+01           0.00000000E+00
   0.37600000E+01           0.00000000E+00
   0.37700000E+01           0.00000000E+00
   0.37800000E+01           0.00000000E+00
   0.37900000E+01           0.00000000E+00
   0.38000000E+01           0.00000000E+00
   0.38100000E+01           0.00000000E+00
   0.38200000E+01           0.00000000E+00
   0.38300000E+01           0.00000000E+00
   0.38400000E+01           0.00000000E+00
   0.38500000E+01           0.00000000E+00
   0.38600000E+01           0.00000000E+00
   0.38700000E+01           0.00000000E+00
   0.38800000E+01           0.00000000E+00
   0.38900000E+01           0.00000000E+00
   0.39000000E+01           0.00000000E+00
   0.39100000E+01           0.00000000E+00
   0.39200000E+01           0.00000000E+00
   0.39300000E+01           0.00000000E+00
   0.39400000E+01           0.00000000E+00
   0.39500000E+01           0.00000000E+00
   0.39600000E+01           0.00000000E+00
   0.39700000E+01           0.00000000E+00
   0.39800000E+01           0.00000000E+00
   0.39900000E+01           0.00000000E+00
   0.40000000E+01           0.00000000E+00
 #T=    10.7980
  -0.40000000E+01           0.00000000E+00
  -0.39900000E+01           0.00000000E+00
  -0.39800000E+01           0.00000000E+00
  -0.39700000E+01           0.00000000E+00
  -0.39600000E+01           0.00000000E+00
  -0.39500000E+01           0.00000000E+00
  -0.39400000E+01           0.00000000E+00
  -0.39300000E+01           0.00000000E+00
  -0.39200000E+01           0.00000000E+00
  -0.39100000E+01           0.00000000E+00
  -0.39000000E+01           0.00000000E+00
  -0.38900000E+01           0.00000000E+00
  -0.38800000E+01           0.00000000E+00
  -0.38700000E+01           0.00000000E+00
  -0.38600000E+01           0.00000000E+00
  -0.38500000E+01           0.00000000E+00
  -0.38400000E+01           0.00000000E+00
  -0.38300000E+01           0.00000000E+00
  -0.38200000E+01           0.00000000E+00
  -0.38100000E+01           0.00000000E+00
  -0.38000000E+01           0.00000000E+00
  -0.37900000E+01           0.00000000E+00
  -0.37800000E+01           0.00000000E+00
  -0.37700000E+01           0.00000000E+00
  -0.37600000E+01           0.00000000E+00
  -0.37500000E+01           0.00000000E+00
  -0.37400000E+01           0.00000000E+00
  -0.37300000E+01           0.00000000E+00
  -0.37200000E+01           0.00000000E+00
  -0.37100000E+01           0.00000000E+00
  -0.37000000E+01           0.00000000E+00
  -0.36900000E+01           0.00000000E+00
  -0.36800000E+01           0.00000000E+00
  -0.36700000E+01           0.00000000E+00
  -0.36600000E+01           0.00000000E+00
  -0.36500000E+01           0.00000000E+00
  -0.36400000E+01           0.00000000E+00
  -0.36300000E+01           0.00000000E+00
  -0.36200000E+01           0.00000000E+00
  -0.36100000E+01           0.00000000E+00
  -0.36000000E+01           0.00000000E+00
  -0.35900000E+01           0.00000000E+00
  -0.35800000E+01           0.00000000E+00
  -0.35700000E+01           0.00000000E+00
  -0.35600000E+01           0.00000000E+00
  -0.35500000E+01           0.00000000E+00
  -0.35400000E+01           0.00000000E+00
  -0.35300000E+01           0.00000000E+00
  -0.35200000E+01           0.00000000E+00
  -0.35100000E+01           0.00000000E+00
  -0.35000000E+01           0.00000000E+00
  -0.34900000E+01           0.00000000E+00
  -0.34800000E+01           0.00000000E+00
  -0.34700000E+01           0.00000000E+00
  -0.34600000E+01           0.00000000E+00
  -0.34500000E+01           0.00000000E+00
  -0.34400000E+01           0.00000000E+00
  -0.34300000E+01           0.00000000E+00
  -0.34200000E+01           0.00000000E+00
  -0.34100000E+01           0.00000000E+00
  -0.34000000E+01           0.00000000E+00
  -0.33900000E+01           0.00000000E+00
  -0.33800000E+01           0.00000000E+00
  -0.33700000E+01           0.00000000E+00
  -0.33600000E+01           0.00000000E+00
  -0.33500000E+01           0.00000000E+00
  -0.33400000E+01           0.00000000E+00
  -0.33300000E+01           0.00000000E+00
  -0.33200000E+01           0.00000000E+00
  -0.33100000E+01           0.00000000E+00
  -0.33000000E+01           0.00000000E+00
  -0.32900000E+01           0.00000000E+00
  -0.32800000E+01           0.00000000E+00
  -0.32700000E+01           0.00000000E+00
  -0.32600000E+01           0.00000000E+00
  -0.32500000E+01           0.00000000E+00
  -0.32400000E+01           0.00000000E+00
  -0.32300000E+01           0.00000000E+00
  -0.32200000E+01           0.00000000E+00
  -0.32100000E+01           0.00000000E+00
  -0.32000000E+01           0.00000000E+00
  -0.31900000E+01           0.00000000E+00
  -0.31800000E+01           0.00000000E+00
  -0.31700000E+01           0.00000000E+00
  -0.31600000E+01           0.00000000E+00
  -0.31500000E+01           0.00000000E+00
  -0.31400000E+01           0.00000000E+00
  -0.31300000E+01           0.00000000E+00
  -0.31200000E+01           0.00000000E+00
  -0.31100000E+01           0.00000000E+00
  -0.31000000E+01           0.00000000E+00
  -0.30900000E+01           0.00000000E+00
  -0.30800000E+01           0.00000000E+00
  -0.30700000E+01           0.00000000E+00
  -0.30600000E+01           0.00000000E+00
  -0.30500000E+01           0.00000000E+00
  -0.30400000E+01           0.00000000E+00
  -0.30300000E+01           0.00000000E+00
  -0.30200000E+01           0.00000000E+00
  -0.30100000E+01           0.00000000E+00
  -0.30000000E+01           0.00000000E+00
  -0.29900000E+01           0.00000000E+00
  -0.29800000E+01           0.00000000E+00
  -0.29700000E+01           0.00000000E+00
  -0.29600000E+01           0.00000000E+00
  -0.29500000E+01           0.00000000E+00
  -0.29400000E+01           0.00000000E+00
  -0.29300000E+01           0.00000000E+00
  -0.29200000E+01           0.00000000E+00
  -0.29100000E+01           0.00000000E+00
  -0.29000000E+01           0.00000000E+00
  -0.28900000E+01           0.00000000E+00
  -0.28800000E+01           0.00000000E+00
  -0.28700000E+01           0.00000000E+00
  -0.28600000E+01           0.00000000E+00
  -0.28500000E+01           0.00000000E+00
  -0.28400000E+01           0.00000000E+00
  -0.28300000E+01           0.00000000E+00
  -0.28200000E+01           0.00000000E+00
  -0.28100000E+01           0.00000000E+00
  -0.28000000E+01           0.00000000E+00
  -0.27900000E+01           0.00000000E+00
  -0.27800000E+01           0.00000000E+00
  -0.27700000E+01           0.00000000E+00
  -0.27600000E+01           0.00000000E+00
  -0.27500000E+01           0.00000000E+00
  -0.27400000E+01           0.00000000E+00
  -0.27300000E+01           0.00000000E+00
  -0.27200000E+01           0.00000000E+00
  -0.27100000E+01           0.00000000E+00
  -0.27000000E+01           0.00000000E+00
  -0.26900000E+01           0.00000000E+00
  -0.26800000E+01           0.00000000E+00
  -0.26700000E+01           0.00000000E+00
  -0.26600000E+01           0.00000000E+00
  -0.26500000E+01           0.00000000E+00
  -0.26400000E+01           0.00000000E+00
  -0.26300000E+01           0.00000000E+00
  -0.26200000E+01           0.00000000E+00
  -0.26100000E+01           0.00000000E+00
  -0.26000000E+01           0.00000000E+00
  -0.25900000E+01           0.00000000E+00
  -0.25800000E+01           0.00000000E+00
  -0.25700000E+01           0.00000000E+00
  -0.25600000E+01           0.00000000E+00
  -0.25500000E+01           0.00000000E+00
  -0.25400000E+01           0.00000000E+00
  -0.25300000E+01           0.00000000E+00
  -0.25200000E+01           0.00000000E+00
  -0.25100000E+01           0.00000000E+00
  -0.25000000E+01           0.00000000E+00
  -0.24900000E+01           0.00000000E+00
  -0.24800000E+01           0.00000000E+00
  -0.24700000E+01           0.00000000E+00
  -0.24600000E+01           0.00000000E+00
  -0.24500000E+01           0.00000000E+00
  -0.24400000E+01           0.00000000E+00
  -0.24300000E+01           0.00000000E+00
  -0.24200000E+01           0.00000000E+00
  -0.24100000E+01           0.00000000E+00
  -0.24000000E+01           0.00000000E+00
  -0.23900000E+01           0.00000000E+00
  -0.23800000E+01           0.00000000E+00
  -0.23700000E+01           0.00000000E+00
  -0.23600000E+01           0.00000000E+00
  -0.23500000E+01           0.00000000E+00
  -0.23400000E+01           0.00000000E+00
  -0.23300000E+01           0.00000000E+00
  -0.23200000E+01           0.00000000E+00
  -0.23100000E+01           0.00000000E+00
  -0.23000000E+01           0.00000000E+00
  -0.22900000E+01           0.00000000E+00
  -0.22800000E+01           0.00000000E+00
  -0.22700000E+01           0.00000000E+00
  -0.22600000E+01           0.00000000E+00
  -0.22500000E+01           0.00000000E+00
  -0.22400000E+01           0.00000000E+00
  -0.22300000E+01           0.00000000E+00
  -0.22200000E+01           0.00000000E+00
  -0.22100000E+01           0.00000000E+00
  -0.22000000E+01           0.00000000E+00
  -0.21900000E+01           0.00000000E+00
  -0.21800000E+01           0.00000000E+00
  -0.21700000E+01           0.00000000E+00
  -0.21600000E+01           0.00000000E+00
  -0.21500000E+01           0.00000000E+00
  -0.21400000E+01           0.00000000E+00
  -0.21300000E+01           0.00000000E+00
  -0.21200000E+01           0.00000000E+00
  -0.21100000E+01           0.00000000E+00
  -0.21000000E+01           0.00000000E+00
  -0.20900000E+01           0.00000000E+00
  -0.20800000E+01           0.00000000E+00
  -0.20700000E+01           0.00000000E+00
  -0.20600000E+01           0.00000000E+00
  -0.20500000E+01           0.00000000E+00
  -0.20400000E+01           0.00000000E+00
  -0.20300000E+01           0.00000000E+00
  -0.20200000E+01           0.00000000E+00
  -0.20100000E+01           0.00000000E+00
  -0.20000000E+01           0.00000000E+00
  -0.19900000E+01           0.00000000E+00
  -0.19800000E+01           0.00000000E+00
  -0.19700000E+01           0.00000000E+00
  -0.19600000E+01           0.00000000E+00
  -0.19500000E+01           0.00000000E+00
  -0.19400000E+01           0.00000000E+00
  -0.19300000E+01           0.00000000E+00
  -0.19200000E+01           0.00000000E+00
  -0.19100000E+01           0.00000000E+00
  -0.19000000E+01           0.00000000E+00
  -0.18900000E+01           0.00000000E+00
  -0.18800000E+01           0.00000000E+00
  -0.18700000E+01           0.00000000E+00
  -0.18600000E+01           0.00000000E+00
  -0.18500000E+01           0.00000000E+00
  -0.18400000E+01           0.00000000E+00
  -0.18300000E+01           0.00000000E+00
  -0.18200000E+01           0.00000000E+00
  -0.18100000E+01           0.00000000E+00
  -0.18000000E+01           0.00000000E+00
  -0.17900000E+01           0.00000000E+00
  -0.17800000E+01           0.00000000E+00
  -0.17700000E+01           0.00000000E+00
  -0.17600000E+01           0.00000000E+00
  -0.17500000E+01           0.00000000E+00
  -0.17400000E+01           0.00000000E+00
  -0.17300000E+01           0.00000000E+00
  -0.17200000E+01           0.00000000E+00
  -0.17100000E+01           0.00000000E+00
  -0.17000000E+01           0.00000000E+00
  -0.16900000E+01           0.00000000E+00
  -0.16800000E+01           0.00000000E+00
  -0.16700000E+01           0.00000000E+00
  -0.16600000E+01           0.00000000E+00
  -0.16500000E+01           0.00000000E+00
  -0.16400000E+01           0.00000000E+00
  -0.16300000E+01           0.00000000E+00
  -0.16200000E+01           0.00000000E+00
  -0.16100000E+01           0.00000000E+00
  -0.16000000E+01           0.00000000E+00
  -0.15900000E+01           0.00000000E+00
  -0.15800000E+01           0.00000000E+00
  -0.15700000E+01           0.00000000E+00
  -0.15600000E+01           0.00000000E+00
  -0.15500000E+01           0.00000000E+00
  -0.15400000E+01           0.00000000E+00
  -0.15300000E+01           0.00000000E+00
  -0.15200000E+01           0.00000000E+00
  -0.15100000E+01           0.00000000E+00
  -0.15000000E+01           0.00000000E+00
  -0.14900000E+01           0.00000000E+00
  -0.14800000E+01           0.00000000E+00
  -0.14700000E+01           0.00000000E+00
  -0.14600000E+01           0.00000000E+00
  -0.14500000E+01           0.00000000E+00
  -0.14400000E+01           0.00000000E+00
  -0.14300000E+01           0.00000000E+00
  -0.14200000E+01           0.00000000E+00
  -0.14100000E+01           0.00000000E+00
  -0.14000000E+01           0.00000000E+00
  -0.13900000E+01           0.00000000E+00
  -0.13800000E+01           0.00000000E+00
  -0.13700000E+01           0.00000000E+00
  -0.13600000E+01           0.00000000E+00
  -0.13500000E+01           0.00000000E+00
  -0.13400000E+01           0.00000000E+00
  -0.13300000E+01           0.00000000E+00
  -0.13200000E+01           0.00000000E+00
  -0.13100000E+01           0.00000000E+00
  -0.13000000E+01           0.00000000E+00
  -0.12900000E+01           0.00000000E+00
  -0.12800000E+01           0.00000000E+00
  -0.12700000E+01           0.00000000E+00
  -0.12600000E+01           0.00000000E+00
  -0.12500000E+01           0.00000000E+00
  -0.12400000E+01           0.00000000E+00
  -0.12300000E+01           0.00000000E+00
  -0.12200000E+01           0.00000000E+00
  -0.12100000E+01           0.00000000E+00
  -0.12000000E+01           0.00000000E+00
  -0.11900000E+01           0.00000000E+00
  -0.11800000E+01           0.00000000E+00
  -0.11700000E+01           0.00000000E+00
  -0.11600000E+01           0.00000000E+00
  -0.11500000E+01           0.00000000E+00
  -0.11400000E+01           0.00000000E+00
  -0.11300000E+01           0.00000000E+00
  -0.11200000E+01           0.00000000E+00
  -0.11100000E+01           0.00000000E+00
  -0.11000000E+01           0.00000000E+00
  -0.10900000E+01           0.00000000E+00
  -0.10800000E+01           0.00000000E+00
  -0.10700000E+01           0.00000000E+00
  -0.10600000E+01           0.00000000E+00
  -0.10500000E+01           0.00000000E+00
  -0.10400000E+01           0.00000000E+00
  -0.10300000E+01           0.00000000E+00
  -0.10200000E+01           0.00000000E+00
  -0.10100000E+01           0.00000000E+00
  -0.10000000E+01           0.00000000E+00
  -0.99000000E+00           0.00000000E+00
  -0.98000000E+00           0.00000000E+00
  -0.97000000E+00           0.00000000E+00
  -0.96000000E+00           0.00000000E+00
  -0.95000000E+00           0.00000000E+00
  -0.94000000E+00           0.00000000E+00
  -0.93000000E+00           0.00000000E+00
  -0.92000000E+00           0.00000000E+00
  -0.91000000E+00           0.00000000E+00
  -0.90000000E+00           0.00000000E+00
  -0.89000000E+00           0.00000000E+00
  -0.88000000E+00           0.00000000E+00
  -0.87000000E+00           0.00000000E+00
  -0.86000000E+00           0.00000000E+00
  -0.85000000E+00           0.00000000E+00
  -0.84000000E+00           0.00000000E+00
  -0.83000000E+00           0.00000000E+00
  -0.82000000E+00           0.00000000E+00
  -0.81000000E+00           0.00000000E+00
  -0.80000000E+00           0.00000000E+00
  -0.79000000E+00           0.00000000E+00
  -0.78000000E+00           0.00000000E+00
  -0.77000000E+00           0.00000000E+00
  -0.76000000E+00           0.00000000E+00
  -0.75000000E+00           0.00000000E+00
  -0.74000000E+00           0.00000000E+00
  -0.73000000E+00           0.00000000E+00
  -0.72000000E+00           0.00000000E+00
  -0.71000000E+00           0.00000000E+00
  -0.70000000E+00           0.00000000E+00
  -0.69000000E+00           0.00000000E+00
  -0.68000000E+00           0.00000000E+00
  -0.67000000E+00           0.00000000E+00
  -0.66000000E+00           0.00000000E+00
  -0.65000000E+00           0.00000000E+00
  -0.64000000E+00           0.00000000E+00
  -0.63000000E+00           0.00000000E+00
  -0.62000000E+00           0.00000000E+00
  -0.61000000E+00           0.00000000E+00
  -0.60000000E+00           0.00000000E+00
  -0.59000000E+00           0.00000000E+00
  -0.58000000E+00           0.00000000E+00
  -0.57000000E+00           0.00000000E+00
  -0.56000000E+00           0.00000000E+00
  -0.55000000E+00           0.00000000E+00
  -0.54000000E+00           0.00000000E+00
  -0.53000000E+00           0.00000000E+00
  -0.52000000E+00           0.00000000E+00
  -0.51000000E+00           0.00000000E+00
  -0.50000000E+00           0.00000000E+00
  -0.49000000E+00           0.00000000E+00
  -0.48000000E+00           0.00000000E+00
  -0.47000000E+00           0.00000000E+00
  -0.46000000E+00           0.00000000E+00
  -0.45000000E+00           0.00000000E+00
  -0.44000000E+00           0.00000000E+00
  -0.43000000E+00           0.00000000E+00
  -0.42000000E+00           0.00000000E+00
  -0.41000000E+00           0.00000000E+00
  -0.40000000E+00           0.00000000E+00
  -0.39000000E+00           0.00000000E+00
  -0.38000000E+00           0.00000000E+00
  -0.37000000E+00           0.00000000E+00
  -0.36000000E+00           0.00000000E+00
  -0.35000000E+00           0.00000000E+00
  -0.34000000E+00           0.00000000E+00
  -0.33000000E+00           0.00000000E+00
  -0.32000000E+00           0.00000000E+00
  -0.31000000E+00           0.00000000E+00
  -0.30000000E+00           0.00000000E+00
  -0.29000000E+00           0.00000000E+00
  -0.28000000E+00           0.00000000E+00
  -0.27000000E+00           0.00000000E+00
  -0.26000000E+00           0.00000000E+00
  -0.25000000E+00           0.00000000E+00
  -0.24000000E+00           0.00000000E+00
  -0.23000000E+00           0.00000000E+00
  -0.22000000E+00           0.00000000E+00
  -0.21000000E+00           0.00000000E+00
  -0.20000000E+00           0.00000000E+00
  -0.19000000E+00           0.00000000E+00
  -0.18000000E+00           0.00000000E+00
  -0.17000000E+00           0.00000000E+00
  -0.16000000E+00           0.00000000E+00
  -0.15000000E+00           0.00000000E+00
  -0.14000000E+00           0.00000000E+00
  -0.13000000E+00           0.00000000E+00
  -0.12000000E+00           0.00000000E+00
  -0.11000000E+00           0.00000000E+00
  -0.10000000E+00           0.00000000E+00
  -0.90000000E-01           0.00000000E+00
  -0.80000000E-01           0.00000000E+00
  -0.70000000E-01           0.00000000E+00
  -0.60000000E-01           0.00000000E+00
  -0.50000000E-01           0.00000000E+00
  -0.40000000E-01           0.00000000E+00
  -0.30000000E-01           0.00000000E+00
  -0.20000000E-01           0.00000000E+00
  -0.10000000E-01           0.00000000E+00
   0.00000000E+00           0.00000000E+00
   0.10000000E-01           0.00000000E+00
   0.20000000E-01           0.00000000E+00
   0.30000000E-01           0.00000000E+00
   0.40000000E-01           0.00000000E+00
   0.50000000E-01           0.00000000E+00
   0.60000000E-01           0.00000000E+00
   0.70000000E-01           0.00000000E+00
   0.80000000E-01           0.00000000E+00
   0.90000000E-01           0.00000000E+00
   0.10000000E+00           0.00000000E+00
   0.11000000E+00           0.00000000E+00
   0.12000000E+00           0.00000000E+00
   0.13000000E+00           0.00000000E+00
   0.14000000E+00           0.00000000E+00
   0.15000000E+00           0.00000000E+00
   0.16000000E+00           0.00000000E+00
   0.17000000E+00           0.00000000E+00
   0.18000000E+00           0.00000000E+00
   0.19000000E+00           0.00000000E+00
   0.20000000E+00           0.00000000E+00
   0.21000000E+00           0.00000000E+00
   0.22000000E+00           0.00000000E+00
   0.23000000E+00           0.00000000E+00
   0.24000000E+00           0.00000000E+00
   0.25000000E+00           0.00000000E+00
   0.26000000E+00           0.00000000E+00
   0.27000000E+00           0.00000000E+00
   0.28000000E+00           0.00000000E+00
   0.29000000E+00           0.00000000E+00
   0.30000000E+00           0.00000000E+00
   0.31000000E+00           0.00000000E+00
   0.32000000E+00           0.00000000E+00
   0.33000000E+00           0.00000000E+00
   0.34000000E+00           0.00000000E+00
   0.35000000E+00           0.00000000E+00
   0.36000000E+00           0.00000000E+00
   0.37000000E+00           0.00000000E+00
   0.38000000E+00           0.00000000E+00
   0.39000000E+00           0.00000000E+00
   0.40000000E+00           0.00000000E+00
   0.41000000E+00           0.00000000E+00
   0.42000000E+00           0.00000000E+00
   0.43000000E+00           0.00000000E+00
   0.44000000E+00           0.00000000E+00
   0.45000000E+00           0.00000000E+00
   0.46000000E+00           0.00000000E+00
   0.47000000E+00           0.00000000E+00
   0.48000000E+00           0.00000000E+00
   0.49000000E+00           0.10822511E-06
   0.50000000E+00           0.00000000E+00
   0.51000000E+00           0.00000000E+00
   0.52000000E+00           0.54112554E-07
   0.53000000E+00           0.10822511E-06
   0.54000000E+00           0.00000000E+00
   0.55000000E+00           0.00000000E+00
   0.56000000E+00           0.10822511E-06
   0.57000000E+00           0.00000000E+00
   0.58000000E+00           0.00000000E+00
   0.59000000E+00           0.00000000E+00
   0.60000000E+00           0.54112554E-07
   0.61000000E+00           0.54112554E-07
   0.62000000E+00           0.00000000E+00
   0.63000000E+00           0.16233766E-06
   0.64000000E+00           0.10822511E-06
   0.65000000E+00           0.54112554E-07
   0.66000000E+00           0.43290043E-06
   0.67000000E+00           0.70346320E-06
   0.68000000E+00           0.37878788E-06
   0.69000000E+00           0.91991342E-06
   0.70000000E+00           0.91991342E-06
   0.71000000E+00           0.11904762E-05
   0.72000000E+00           0.15151515E-05
   0.73000000E+00           0.16774892E-05
   0.74000000E+00           0.20021645E-05
   0.75000000E+00           0.30844156E-05
   0.76000000E+00           0.34090909E-05
   0.77000000E+00           0.48701299E-05
   0.78000000E+00           0.39502165E-05
   0.79000000E+00           0.87121212E-05
   0.80000000E+00           0.87662338E-05
   0.81000000E+00           0.95238095E-05
   0.82000000E+00           0.15151515E-04
   0.83000000E+00           0.17153680E-04
   0.84000000E+00           0.23484848E-04
   0.85000000E+00           0.29599567E-04
   0.86000000E+00           0.35443723E-04
   0.87000000E+00           0.39935065E-04
   0.88000000E+00           0.56709957E-04
   0.89000000E+00           0.64989177E-04
   0.90000000E+00           0.80248918E-04
   0.91000000E+00           0.10476190E-03
   0.92000000E+00           0.12391775E-03
   0.93000000E+00           0.15854978E-03
   0.94000000E+00           0.19291126E-03
   0.95000000E+00           0.23322511E-03
   0.96000000E+00           0.29924242E-03
   0.97000000E+00           0.36206710E-03
   0.98000000E+00           0.43582251E-03
   0.99000000E+00           0.52575758E-03
   0.10000000E+01           0.64274892E-03
   0.10100000E+01           0.79485931E-03
   0.10200000E+01           0.96596320E-03
   0.10300000E+01           0.11587121E-02
   0.10400000E+01           0.13939394E-02
   0.10500000E+01           0.17176948E-02
   0.10600000E+01           0.20701840E-02
   0.10700000E+01           0.24489177E-02
   0.10800000E+01           0.29788420E-02
   0.10900000E+01           0.35708333E-02
   0.11000000E+01           0.42494048E-02
   0.11100000E+01           0.51248377E-02
   0.11200000E+01           0.61553030E-02
   0.11300000E+01           0.72569805E-02
   0.11400000E+01           0.86460498E-02
   0.11500000E+01           0.10229058E-01
   0.11600000E+01           0.12110714E-01
   0.11700000E+01           0.14318182E-01
   0.11800000E+01           0.16904167E-01
   0.11900000E+01           0.19814665E-01
   0.12000000E+01           0.23194372E-01
   0.12100000E+01           0.27111959E-01
   0.12200000E+01           0.31706764E-01
   0.12300000E+01           0.36815368E-01
   0.12400000E+01           0.42806277E-01
   0.12500000E+01           0.49568290E-01
   0.12600000E+01           0.57389881E-01
   0.12700000E+01           0.66192370E-01
   0.12800000E+01           0.76052543E-01
   0.12900000E+01           0.87032955E-01
   0.13000000E+01           0.99312987E-01
   0.13100000E+01           0.11353977E+00
   0.13200000E+01           0.12951748E+00
   0.13300000E+01           0.14673377E+00
   0.13400000E+01           0.16603766E+00
   0.13500000E+01           0.18739486E+00
   0.13600000E+01           0.21081759E+00
   0.13700000E+01           0.23699134E+00
   0.13800000E+01           0.26566764E+00
   0.13900000E+01           0.29638404E+00
   0.14000000E+01           0.33027235E+00
   0.14100000E+01           0.36648761E+00
   0.14200000E+01           0.40623323E+00
   0.14300000E+01           0.44860871E+00
   0.14400000E+01           0.49448019E+00
   0.14500000E+01           0.54280682E+00
   0.14600000E+01           0.59482078E+00
   0.14700000E+01           0.64856234E+00
   0.14800000E+01           0.70633003E+00
   0.14900000E+01           0.76740503E+00
   0.15000000E+01           0.82959172E+00
   0.15100000E+01           0.89589854E+00
   0.15200000E+01           0.96427900E+00
   0.15300000E+01           0.10332791E+01
   0.15400000E+01           0.11051683E+01
   0.15500000E+01           0.11802022E+01
   0.15600000E+01           0.12551826E+01
   0.15700000E+01           0.13309707E+01
   0.15800000E+01           0.14063701E+01
   0.15900000E+01           0.14822767E+01
   0.16000000E+01           0.15550918E+01
   0.16100000E+01           0.16302196E+01
   0.16200000E+01           0.17012701E+01
   0.16300000E+01           0.17699641E+01
   0.16400000E+01           0.18381761E+01
   0.16500000E+01           0.19004334E+01
   0.16600000E+01           0.19585221E+01
   0.16700000E+01           0.20145243E+01
   0.16800000E+01           0.20658883E+01
   0.16900000E+01           0.21104077E+01
   0.17000000E+01           0.21471245E+01
   0.17100000E+01           0.21801951E+01
   0.17200000E+01           0.22072205E+01
   0.17300000E+01           0.22243685E+01
   0.17400000E+01           0.22377991E+01
   0.17500000E+01           0.22437323E+01
   0.17600000E+01           0.22421121E+01
   0.17700000E+01           0.22318401E+01
   0.17800000E+01           0.22163666E+01
   0.17900000E+01           0.21931919E+01
   0.18000000E+01           0.21631122E+01
   0.18100000E+01           0.21269957E+01
   0.18200000E+01           0.20827001E+01
   0.18300000E+01           0.20359431E+01
   0.18400000E+01           0.19831937E+01
   0.18500000E+01           0.19257026E+01
   0.18600000E+01           0.18612488E+01
   0.18700000E+01           0.17955337E+01
   0.18800000E+01           0.17263468E+01
   0.18900000E+01           0.16524466E+01
   0.19000000E+01           0.15786535E+01
   0.19100000E+01           0.15047567E+01
   0.19200000E+01           0.14281795E+01
   0.19300000E+01           0.13500184E+01
   0.19400000E+01           0.12719393E+01
   0.19500000E+01           0.11963062E+01
   0.19600000E+01           0.11202192E+01
   0.19700000E+01           0.10454667E+01
   0.19800000E+01           0.97332246E+00
   0.19900000E+01           0.90266683E+00
   0.20000000E+01           0.83472338E+00
   0.20100000E+01           0.76938782E+00
   0.20200000E+01           0.70709286E+00
   0.20300000E+01           0.64777771E+00
   0.20400000E+01           0.59136932E+00
   0.20500000E+01           0.53808496E+00
   0.20600000E+01           0.48837927E+00
   0.20700000E+01           0.44128231E+00
   0.20800000E+01           0.39790871E+00
   0.20900000E+01           0.35743945E+00
   0.21000000E+01           0.32025584E+00
   0.21100000E+01           0.28592971E+00
   0.21200000E+01           0.25472646E+00
   0.21300000E+01           0.22567397E+00
   0.21400000E+01           0.19939123E+00
   0.21500000E+01           0.17580211E+00
   0.21600000E+01           0.15445287E+00
   0.21700000E+01           0.13532213E+00
   0.21800000E+01           0.11825005E+00
   0.21900000E+01           0.10277570E+00
   0.22000000E+01           0.89148864E-01
   0.22100000E+01           0.77256818E-01
   0.22200000E+01           0.66424459E-01
   0.22300000E+01           0.57003139E-01
   0.22400000E+01           0.48660877E-01
   0.22500000E+01           0.41698160E-01
   0.22600000E+01           0.35526407E-01
   0.22700000E+01           0.30067208E-01
   0.22800000E+01           0.25461580E-01
   0.22900000E+01           0.21408712E-01
   0.23000000E+01           0.17928896E-01
   0.23100000E+01           0.15092045E-01
   0.23200000E+01           0.12529762E-01
   0.23300000E+01           0.10485011E-01
   0.23400000E+01           0.86885823E-02
   0.23500000E+01           0.72236472E-02
   0.23600000E+01           0.58919913E-02
   0.23700000E+01           0.48824675E-02
   0.23800000E+01           0.39972403E-02
   0.23900000E+01           0.32753247E-02
   0.24000000E+01           0.26419913E-02
   0.24100000E+01           0.21436688E-02
   0.24200000E+01           0.17037338E-02
   0.24300000E+01           0.13758117E-02
   0.24400000E+01           0.11212662E-02
   0.24500000E+01           0.89718615E-03
   0.24600000E+01           0.72240260E-03
   0.24700000E+01           0.56358225E-03
   0.24800000E+01           0.45167749E-03
   0.24900000E+01           0.33901515E-03
   0.25000000E+01           0.28290043E-03
   0.25100000E+01           0.22077922E-03
   0.25200000E+01           0.17397186E-03
   0.25300000E+01           0.13998918E-03
   0.25400000E+01           0.10129870E-03
   0.25500000E+01           0.82142857E-04
   0.25600000E+01           0.60335498E-04
   0.25700000E+01           0.48376623E-04
   0.25800000E+01           0.41396104E-04
   0.25900000E+01           0.27976190E-04
   0.26000000E+01           0.18722944E-04
   0.26100000E+01           0.17857143E-04
   0.26200000E+01           0.11634199E-04
   0.26300000E+01           0.95238095E-05
   0.26400000E+01           0.60064935E-05
   0.26500000E+01           0.61147186E-05
   0.26600000E+01           0.45454545E-05
   0.26700000E+01           0.24891775E-05
   0.26800000E+01           0.25974026E-05
   0.26900000E+01           0.15692641E-05
   0.27000000E+01           0.10281385E-05
   0.27100000E+01           0.12445887E-05
   0.27200000E+01           0.54112554E-06
   0.27300000E+01           0.54112554E-06
   0.27400000E+01           0.27056277E-06
   0.27500000E+01           0.37878788E-06
   0.27600000E+01           0.54112554E-07
   0.27700000E+01           0.10822511E-06
   0.27800000E+01           0.00000000E+00
   0.27900000E+01           0.00000000E+00
   0.28000000E+01           0.54112554E-07
   0.28100000E+01           0.00000000E+00
   0.28200000E+01           0.00000000E+00
   0.28300000E+01           0.54112554E-07
   0.28400000E+01           0.00000000E+00
   0.28500000E+01           0.00000000E+00
   0.28600000E+01           0.00000000E+00
   0.28700000E+01           0.00000000E+00
   0.28800000E+01           0.00000000E+00
   0.28900000E+01           0.00000000E+00
   0.29000000E+01           0.00000000E+00
   0.29100000E+01           0.00000000E+00
   0.29200000E+01           0.00000000E+00
   0.29300000E+01           0.00000000E+00
   0.29400000E+01           0.00000000E+00
   0.29500000E+01           0.00000000E+00
   0.29600000E+01           0.00000000E+00
   0.29700000E+01           0.00000000E+00
   0.29800000E+01           0.00000000E+00
   0.29900000E+01           0.00000000E+00
   0.30000000E+01           0.00000000E+00
   0.30100000E+01           0.00000000E+00
   0.30200000E+01           0.00000000E+00
   0.30300000E+01           0.00000000E+00
   0.30400000E+01           0.00000000E+00
   0.30500000E+01           0.00000000E+00
   0.30600000E+01           0.00000000E+00
   0.30700000E+01           0.00000000E+00
   0.30800000E+01           0.00000000E+00
   0.30900000E+01           0.00000000E+00
   0.31000000E+01           0.00000000E+00
   0.31100000E+01           0.00000000E+00
   0.31200000E+01           0.00000000E+00
   0.31300000E+01           0.00000000E+00
   0.31400000E+01           0.00000000E+00
   0.31500000E+01           0.00000000E+00
   0.31600000E+01           0.00000000E+00
   0.31700000E+01           0.00000000E+00
   0.31800000E+01           0.00000000E+00
   0.31900000E+01           0.00000000E+00
   0.32000000E+01           0.00000000E+00
   0.32100000E+01           0.00000000E+00
   0.32200000E+01           0.00000000E+00
   0.32300000E+01           0.00000000E+00
   0.32400000E+01           0.00000000E+00
   0.32500000E+01           0.00000000E+00
   0.32600000E+01           0.00000000E+00
   0.32700000E+01           0.00000000E+00
   0.32800000E+01           0.00000000E+00
   0.32900000E+01           0.00000000E+00
   0.33000000E+01           0.00000000E+00
   0.33100000E+01           0.00000000E+00
   0.33200000E+01           0.00000000E+00
   0.33300000E+01           0.00000000E+00
   0.33400000E+01           0.00000000E+00
   0.33500000E+01           0.00000000E+00
   0.33600000E+01           0.00000000E+00
   0.33700000E+01           0.00000000E+00
   0.33800000E+01           0.00000000E+00
   0.33900000E+01           0.00000000E+00
   0.34000000E+01           0.00000000E+00
   0.34100000E+01           0.00000000E+00
   0.34200000E+01           0.00000000E+00
   0.34300000E+01           0.00000000E+00
   0.34400000E+01           0.00000000E+00
   0.34500000E+01           0.00000000E+00
   0.34600000E+01           0.00000000E+00
   0.34700000E+01           0.00000000E+00
   0.34800000E+01           0.00000000E+00
   0.34900000E+01           0.00000000E+00
   0.35000000E+01           0.00000000E+00
   0.35100000E+01           0.00000000E+00
   0.35200000E+01           0.00000000E+00
   0.35300000E+01           0.00000000E+00
   0.35400000E+01           0.00000000E+00
   0.35500000E+01           0.00000000E+00
   0.35600000E+01           0.00000000E+00
   0.35700000E+01           0.00000000E+00
   0.35800000E+01           0.00000000E+00
   0.35900000E+01           0.00000000E+00
   0.36000000E+01           0.00000000E+00
   0.36100000E+01           0.00000000E+00
   0.36200000E+01           0.00000000E+00
   0.36300000E+01           0.00000000E+00
   0.36400000E+01           0.00000000E+00
   0.36500000E+01           0.00000000E+00
   0.36600000E+01           0.00000000E+00
   0.36700000E+01           0.00000000E+00
   0.36800000E+01           0.00000000E+00
   0.36900000E+01           0.00000000E+00
   0.37000000E+01           0.00000000E+00
   0.37100000E+01           0.00000000E+00
   0.37200000E+01           0.00000000E+00
   0.37300000E+01           0.00000000E+00
   0.37400000E+01           0.00000000E+00
   0.37500000E+01           0.00000000E+00
   0.37600000E+01           0.00000000E+00
   0.37700000E+01           0.00000000E+00
   0.37800000E+01           0.00000000E+00
   0.37900000E+01           0.00000000E+00
   0.38000000E+01           0.00000000E+00
   0.38100000E+01           0.00000000E+00
   0.38200000E+01           0.00000000E+00
   0.38300000E+01           0.00000000E+00
   0.38400000E+01           0.00000000E+00
   0.38500000E+01           0.00000000E+00
   0.38600000E+01           0.00000000E+00
   0.38700000E+01           0.00000000E+00
   0.38800000E+01           0.00000000E+00
   0.38900000E+01           0.00000000E+00
   0.39000000E+01           0.00000000E+00
   0.39100000E+01           0.00000000E+00
   0.39200000E+01           0.00000000E+00
   0.39300000E+01           0.00000000E+00
   0.39400000E+01           0.00000000E+00
   0.39500000E+01           0.00000000E+00
   0.39600000E+01           0.00000000E+00
   0.39700000E+01           0.00000000E+00
   0.39800000E+01           0.00000000E+00
   0.39900000E+01           0.00000000E+00
   0.40000000E+01           0.00000000E+00
 #T=    11.5960
  -0.40000000E+01           0.00000000E+00
  -0.39900000E+01           0.00000000E+00
  -0.39800000E+01           0.00000000E+00
  -0.39700000E+01           0.00000000E+00
  -0.39600000E+01           0.00000000E+00
  -0.39500000E+01           0.00000000E+00
  -0.39400000E+01           0.00000000E+00
  -0.39300000E+01           0.00000000E+00
  -0.39200000E+01           0.00000000E+00
  -0.39100000E+01           0.00000000E+00
  -0.39000000E+01           0.00000000E+00
  -0.38900000E+01           0.00000000E+00
  -0.38800000E+01           0.00000000E+00
  -0.38700000E+01           0.00000000E+00
  -0.38600000E+01           0.00000000E+00
  -0.38500000E+01           0.00000000E+00
  -0.38400000E+01           0.00000000E+00
  -0.38300000E+01           0.00000000E+00
  -0.38200000E+01           0.00000000E+00
  -0.38100000E+01           0.00000000E+00
  -0.38000000E+01           0.00000000E+00
  -0.37900000E+01           0.00000000E+00
  -0.37800000E+01           0.00000000E+00
  -0.37700000E+01           0.00000000E+00
  -0.37600000E+01           0.00000000E+00
  -0.37500000E+01           0.00000000E+00
  -0.37400000E+01           0.00000000E+00
  -0.37300000E+01           0.00000000E+00
  -0.37200000E+01           0.00000000E+00
  -0.37100000E+01           0.00000000E+00
  -0.37000000E+01           0.00000000E+00
  -0.36900000E+01           0.00000000E+00
  -0.36800000E+01           0.00000000E+00
  -0.36700000E+01           0.00000000E+00
  -0.36600000E+01           0.00000000E+00
  -0.36500000E+01           0.00000000E+00
  -0.36400000E+01           0.00000000E+00
  -0.36300000E+01           0.00000000E+00
  -0.36200000E+01           0.00000000E+00
  -0.36100000E+01           0.00000000E+00
  -0.36000000E+01           0.00000000E+00
  -0.35900000E+01           0.00000000E+00
  -0.35800000E+01           0.00000000E+00
  -0.35700000E+01           0.00000000E+00
  -0.35600000E+01           0.00000000E+00
  -0.35500000E+01           0.00000000E+00
  -0.35400000E+01           0.00000000E+00
  -0.35300000E+01           0.00000000E+00
  -0.35200000E+01           0.00000000E+00
  -0.35100000E+01           0.00000000E+00
  -0.35000000E+01           0.00000000E+00
  -0.34900000E+01           0.00000000E+00
  -0.34800000E+01           0.00000000E+00
  -0.34700000E+01           0.00000000E+00
  -0.34600000E+01           0.00000000E+00
  -0.34500000E+01           0.00000000E+00
  -0.34400000E+01           0.00000000E+00
  -0.34300000E+01           0.00000000E+00
  -0.34200000E+01           0.00000000E+00
  -0.34100000E+01           0.00000000E+00
  -0.34000000E+01           0.00000000E+00
  -0.33900000E+01           0.00000000E+00
  -0.33800000E+01           0.00000000E+00
  -0.33700000E+01           0.00000000E+00
  -0.33600000E+01           0.00000000E+00
  -0.33500000E+01           0.00000000E+00
  -0.33400000E+01           0.00000000E+00
  -0.33300000E+01           0.00000000E+00
  -0.33200000E+01           0.00000000E+00
  -0.33100000E+01           0.00000000E+00
  -0.33000000E+01           0.00000000E+00
  -0.32900000E+01           0.00000000E+00
  -0.32800000E+01           0.00000000E+00
  -0.32700000E+01           0.00000000E+00
  -0.32600000E+01           0.00000000E+00
  -0.32500000E+01           0.00000000E+00
  -0.32400000E+01           0.00000000E+00
  -0.32300000E+01           0.00000000E+00
  -0.32200000E+01           0.00000000E+00
  -0.32100000E+01           0.00000000E+00
  -0.32000000E+01           0.00000000E+00
  -0.31900000E+01           0.00000000E+00
  -0.31800000E+01           0.00000000E+00
  -0.31700000E+01           0.00000000E+00
  -0.31600000E+01           0.00000000E+00
  -0.31500000E+01           0.00000000E+00
  -0.31400000E+01           0.00000000E+00
  -0.31300000E+01           0.00000000E+00
  -0.31200000E+01           0.00000000E+00
  -0.31100000E+01           0.00000000E+00
  -0.31000000E+01           0.00000000E+00
  -0.30900000E+01           0.00000000E+00
  -0.30800000E+01           0.00000000E+00
  -0.30700000E+01           0.00000000E+00
  -0.30600000E+01           0.00000000E+00
  -0.30500000E+01           0.00000000E+00
  -0.30400000E+01           0.00000000E+00
  -0.30300000E+01           0.00000000E+00
  -0.30200000E+01           0.00000000E+00
  -0.30100000E+01           0.00000000E+00
  -0.30000000E+01           0.00000000E+00
  -0.29900000E+01           0.00000000E+00
  -0.29800000E+01           0.00000000E+00
  -0.29700000E+01           0.00000000E+00
  -0.29600000E+01           0.00000000E+00
  -0.29500000E+01           0.00000000E+00
  -0.29400000E+01           0.00000000E+00
  -0.29300000E+01           0.00000000E+00
  -0.29200000E+01           0.00000000E+00
  -0.29100000E+01           0.00000000E+00
  -0.29000000E+01           0.00000000E+00
  -0.28900000E+01           0.00000000E+00
  -0.28800000E+01           0.00000000E+00
  -0.28700000E+01           0.00000000E+00
  -0.28600000E+01           0.00000000E+00
  -0.28500000E+01           0.00000000E+00
  -0.28400000E+01           0.00000000E+00
  -0.28300000E+01           0.00000000E+00
  -0.28200000E+01           0.00000000E+00
  -0.28100000E+01           0.00000000E+00
  -0.28000000E+01           0.00000000E+00
  -0.27900000E+01           0.00000000E+00
  -0.27800000E+01           0.00000000E+00
  -0.27700000E+01           0.00000000E+00
  -0.27600000E+01           0.00000000E+00
  -0.27500000E+01           0.00000000E+00
  -0.27400000E+01           0.00000000E+00
  -0.27300000E+01           0.00000000E+00
  -0.27200000E+01           0.00000000E+00
  -0.27100000E+01           0.00000000E+00
  -0.27000000E+01           0.00000000E+00
  -0.26900000E+01           0.00000000E+00
  -0.26800000E+01           0.00000000E+00
  -0.26700000E+01           0.00000000E+00
  -0.26600000E+01           0.00000000E+00
  -0.26500000E+01           0.00000000E+00
  -0.26400000E+01           0.00000000E+00
  -0.26300000E+01           0.00000000E+00
  -0.26200000E+01           0.00000000E+00
  -0.26100000E+01           0.00000000E+00
  -0.26000000E+01           0.00000000E+00
  -0.25900000E+01           0.00000000E+00
  -0.25800000E+01           0.00000000E+00
  -0.25700000E+01           0.00000000E+00
  -0.25600000E+01           0.00000000E+00
  -0.25500000E+01           0.00000000E+00
  -0.25400000E+01           0.00000000E+00
  -0.25300000E+01           0.00000000E+00
  -0.25200000E+01           0.00000000E+00
  -0.25100000E+01           0.00000000E+00
  -0.25000000E+01           0.00000000E+00
  -0.24900000E+01           0.00000000E+00
  -0.24800000E+01           0.00000000E+00
  -0.24700000E+01           0.00000000E+00
  -0.24600000E+01           0.00000000E+00
  -0.24500000E+01           0.00000000E+00
  -0.24400000E+01           0.00000000E+00
  -0.24300000E+01           0.00000000E+00
  -0.24200000E+01           0.00000000E+00
  -0.24100000E+01           0.00000000E+00
  -0.24000000E+01           0.00000000E+00
  -0.23900000E+01           0.00000000E+00
  -0.23800000E+01           0.00000000E+00
  -0.23700000E+01           0.00000000E+00
  -0.23600000E+01           0.00000000E+00
  -0.23500000E+01           0.00000000E+00
  -0.23400000E+01           0.00000000E+00
  -0.23300000E+01           0.00000000E+00
  -0.23200000E+01           0.00000000E+00
  -0.23100000E+01           0.00000000E+00
  -0.23000000E+01           0.00000000E+00
  -0.22900000E+01           0.00000000E+00
  -0.22800000E+01           0.00000000E+00
  -0.22700000E+01           0.00000000E+00
  -0.22600000E+01           0.00000000E+00
  -0.22500000E+01           0.00000000E+00
  -0.22400000E+01           0.00000000E+00
  -0.22300000E+01           0.00000000E+00
  -0.22200000E+01           0.00000000E+00
  -0.22100000E+01           0.00000000E+00
  -0.22000000E+01           0.00000000E+00
  -0.21900000E+01           0.00000000E+00
  -0.21800000E+01           0.00000000E+00
  -0.21700000E+01           0.00000000E+00
  -0.21600000E+01           0.00000000E+00
  -0.21500000E+01           0.00000000E+00
  -0.21400000E+01           0.00000000E+00
  -0.21300000E+01           0.00000000E+00
  -0.21200000E+01           0.00000000E+00
  -0.21100000E+01           0.00000000E+00
  -0.21000000E+01           0.00000000E+00
  -0.20900000E+01           0.00000000E+00
  -0.20800000E+01           0.00000000E+00
  -0.20700000E+01           0.00000000E+00
  -0.20600000E+01           0.00000000E+00
  -0.20500000E+01           0.00000000E+00
  -0.20400000E+01           0.00000000E+00
  -0.20300000E+01           0.00000000E+00
  -0.20200000E+01           0.00000000E+00
  -0.20100000E+01           0.00000000E+00
  -0.20000000E+01           0.00000000E+00
  -0.19900000E+01           0.00000000E+00
  -0.19800000E+01           0.00000000E+00
  -0.19700000E+01           0.00000000E+00
  -0.19600000E+01           0.00000000E+00
  -0.19500000E+01           0.00000000E+00
  -0.19400000E+01           0.00000000E+00
  -0.19300000E+01           0.00000000E+00
  -0.19200000E+01           0.00000000E+00
  -0.19100000E+01           0.00000000E+00
  -0.19000000E+01           0.00000000E+00
  -0.18900000E+01           0.00000000E+00
  -0.18800000E+01           0.00000000E+00
  -0.18700000E+01           0.00000000E+00
  -0.18600000E+01           0.00000000E+00
  -0.18500000E+01           0.00000000E+00
  -0.18400000E+01           0.00000000E+00
  -0.18300000E+01           0.00000000E+00
  -0.18200000E+01           0.00000000E+00
  -0.18100000E+01           0.00000000E+00
  -0.18000000E+01           0.00000000E+00
  -0.17900000E+01           0.00000000E+00
  -0.17800000E+01           0.00000000E+00
  -0.17700000E+01           0.00000000E+00
  -0.17600000E+01           0.00000000E+00
  -0.17500000E+01           0.00000000E+00
  -0.17400000E+01           0.00000000E+00
  -0.17300000E+01           0.00000000E+00
  -0.17200000E+01           0.00000000E+00
  -0.17100000E+01           0.00000000E+00
  -0.17000000E+01           0.00000000E+00
  -0.16900000E+01           0.00000000E+00
  -0.16800000E+01           0.00000000E+00
  -0.16700000E+01           0.00000000E+00
  -0.16600000E+01           0.00000000E+00
  -0.16500000E+01           0.00000000E+00
  -0.16400000E+01           0.00000000E+00
  -0.16300000E+01           0.00000000E+00
  -0.16200000E+01           0.00000000E+00
  -0.16100000E+01           0.00000000E+00
  -0.16000000E+01           0.00000000E+00
  -0.15900000E+01           0.00000000E+00
  -0.15800000E+01           0.00000000E+00
  -0.15700000E+01           0.00000000E+00
  -0.15600000E+01           0.00000000E+00
  -0.15500000E+01           0.00000000E+00
  -0.15400000E+01           0.00000000E+00
  -0.15300000E+01           0.00000000E+00
  -0.15200000E+01           0.00000000E+00
  -0.15100000E+01           0.00000000E+00
  -0.15000000E+01           0.00000000E+00
  -0.14900000E+01           0.00000000E+00
[...]
  -0.64000000E+00           0.00000000E+00
  -0.63000000E+00           0.00000000E+00
  -0.62000000E+00           0.00000000E+00
  -0.61000000E+00           0.00000000E+00
  -0.60000000E+00           0.00000000E+00
  -0.59000000E+00           0.00000000E+00
  -0.58000000E+00           0.00000000E+00
  -0.57000000E+00           0.00000000E+00
  -0.56000000E+00           0.00000000E+00
  -0.55000000E+00           0.00000000E+00
  -0.54000000E+00           0.00000000E+00
  -0.53000000E+00           0.00000000E+00
  -0.52000000E+00           0.00000000E+00
  -0.51000000E+00           0.00000000E+00
  -0.50000000E+00           0.00000000E+00
  -0.49000000E+00           0.00000000E+00
  -0.48000000E+00           0.00000000E+00
  -0.47000000E+00           0.00000000E+00
  -0.46000000E+00           0.00000000E+00
  -0.45000000E+00           0.00000000E+00
  -0.44000000E+00           0.00000000E+00
  -0.43000000E+00           0.00000000E+00
  -0.42000000E+00           0.00000000E+00
  -0.41000000E+00           0.00000000E+00
  -0.40000000E+00           0.00000000E+00
  -0.39000000E+00           0.00000000E+00
  -0.38000000E+00           0.00000000E+00
  -0.37000000E+00           0.00000000E+00
  -0.36000000E+00           0.00000000E+00
  -0.35000000E+00           0.00000000E+00
  -0.34000000E+00           0.00000000E+00
  -0.33000000E+00           0.00000000E+00
  -0.32000000E+00           0.00000000E+00
  -0.31000000E+00           0.00000000E+00
  -0.30000000E+00           0.00000000E+00
  -0.29000000E+00           0.00000000E+00
  -0.28000000E+00           0.00000000E+00
  -0.27000000E+00           0.00000000E+00
  -0.26000000E+00           0.00000000E+00
  -0.25000000E+00           0.00000000E+00
  -0.24000000E+00           0.00000000E+00
  -0.23000000E+00           0.00000000E+00
  -0.22000000E+00           0.00000000E+00
  -0.21000000E+00           0.00000000E+00
  -0.20000000E+00           0.00000000E+00
  -0.19000000E+00           0.00000000E+00
  -0.18000000E+00           0.00000000E+00
  -0.17000000E+00           0.00000000E+00
  -0.16000000E+00           0.00000000E+00
  -0.15000000E+00           0.00000000E+00
  -0.14000000E+00           0.00000000E+00
  -0.13000000E+00           0.00000000E+00
  -0.12000000E+00           0.00000000E+00
  -0.11000000E+00           0.00000000E+00
  -0.10000000E+00           0.00000000E+00
  -0.90000000E-01           0.00000000E+00
  -0.80000000E-01           0.00000000E+00
  -0.70000000E-01           0.00000000E+00
  -0.60000000E-01           0.00000000E+00
  -0.50000000E-01           0.00000000E+00
  -0.40000000E-01           0.00000000E+00
  -0.30000000E-01           0.00000000E+00
  -0.20000000E-01           0.00000000E+00
  -0.10000000E-01           0.00000000E+00
   0.00000000E+00           0.33549784E-05
   0.10000000E-01           0.84632035E-04
   0.20000000E-01           0.31899351E-03
   0.30000000E-01           0.69897186E-03
   0.40000000E-01           0.12209957E-02
   0.50000000E-01           0.19154221E-02
   0.60000000E-01           0.27237554E-02
   0.70000000E-01           0.36664502E-02
   0.80000000E-01           0.47706169E-02
   0.90000000E-01           0.60128247E-02
   0.10000000E+00           0.73466991E-02
   0.11000000E+00           0.87925325E-02
   0.12000000E+00           0.10423701E-01
   0.13000000E+00           0.12137121E-01
   0.14000000E+00           0.13960444E-01
   0.15000000E+00           0.15936418E-01
   0.16000000E+00           0.18024621E-01
   0.17000000E+00           0.20236147E-01
   0.18000000E+00           0.22471050E-01
   0.19000000E+00           0.24923323E-01
   0.20000000E+00           0.27365314E-01
   0.21000000E+00           0.30088095E-01
   0.22000000E+00           0.32761634E-01
   0.23000000E+00           0.35554654E-01
   0.24000000E+00           0.38469968E-01
   0.25000000E+00           0.41408496E-01
   0.26000000E+00           0.44448864E-01
   0.27000000E+00           0.47655249E-01
   0.28000000E+00           0.50794318E-01
   0.29000000E+00           0.54206710E-01
   0.30000000E+00           0.57650379E-01
   0.31000000E+00           0.61102597E-01
   0.32000000E+00           0.64653463E-01
   0.33000000E+00           0.68323539E-01
   0.34000000E+00           0.71943777E-01
   0.35000000E+00           0.75720996E-01
   0.36000000E+00           0.79716126E-01
   0.37000000E+00           0.83572457E-01
   0.38000000E+00           0.87537879E-01
   0.39000000E+00           0.91448106E-01
   0.40000000E+00           0.95761472E-01
   0.41000000E+00           0.99786255E-01
   0.42000000E+00           0.10406775E+00
   0.43000000E+00           0.10835709E+00
   0.44000000E+00           0.11269410E+00
   0.45000000E+00           0.11695931E+00
   0.46000000E+00           0.12140433E+00
   0.47000000E+00           0.12578452E+00
   0.48000000E+00           0.13052857E+00
   0.49000000E+00           0.13505790E+00
   0.50000000E+00           0.13967733E+00
   0.51000000E+00           0.14436434E+00
   0.52000000E+00           0.14895752E+00
   0.53000000E+00           0.15369026E+00
   0.54000000E+00           0.15856959E+00
   0.55000000E+00           0.16343268E+00
   0.56000000E+00           0.16837040E+00
   0.57000000E+00           0.17322186E+00
   0.58000000E+00           0.17806889E+00
   0.59000000E+00           0.18308907E+00
   0.60000000E+00           0.18800714E+00
   0.61000000E+00           0.19293788E+00
   0.62000000E+00           0.19809859E+00
   0.63000000E+00           0.20342906E+00
   0.64000000E+00           0.20830146E+00
   0.65000000E+00           0.21388133E+00
   0.66000000E+00           0.21871667E+00
   0.67000000E+00           0.22386136E+00
   0.68000000E+00           0.22941001E+00
   0.69000000E+00           0.23474172E+00
   0.70000000E+00           0.23989291E+00
   0.71000000E+00           0.24513631E+00
   0.72000000E+00           0.25056910E+00
   0.73000000E+00           0.25600509E+00
   0.74000000E+00           0.26106623E+00
   0.75000000E+00           0.26671753E+00
   0.76000000E+00           0.27212024E+00
   0.77000000E+00           0.27781174E+00
   0.78000000E+00           0.28302100E+00
   0.79000000E+00           0.28865509E+00
   0.80000000E+00           0.29423398E+00
   0.81000000E+00           0.29983945E+00
   0.82000000E+00           0.30525579E+00
   0.83000000E+00           0.31104015E+00
   0.84000000E+00           0.31648696E+00
   0.85000000E+00           0.32205455E+00
   0.86000000E+00           0.32776851E+00
   0.87000000E+00           0.33343858E+00
   0.88000000E+00           0.33949085E+00
   0.89000000E+00           0.34482262E+00
   0.90000000E+00           0.35067083E+00
   0.91000000E+00           0.35645898E+00
   0.92000000E+00           0.36195979E+00
   0.93000000E+00           0.36776721E+00
   0.94000000E+00           0.37352229E+00
   0.95000000E+00           0.37939794E+00
   0.96000000E+00           0.38491553E+00
   0.97000000E+00           0.39073415E+00
   0.98000000E+00           0.39669280E+00
   0.99000000E+00           0.40222202E+00
   0.10000000E+01           0.40812489E+00
   0.10100000E+01           0.41383891E+00
   0.10200000E+01           0.41987359E+00
   0.10300000E+01           0.42539784E+00
   0.10400000E+01           0.43113788E+00
   0.10500000E+01           0.43693858E+00
   0.10600000E+01           0.44297592E+00
   0.10700000E+01           0.44842803E+00
   0.10800000E+01           0.45458220E+00
   0.10900000E+01           0.46012992E+00
   0.11000000E+01           0.46581255E+00
   0.11100000E+01           0.47147170E+00
   0.11200000E+01           0.47749129E+00
   0.11300000E+01           0.48300850E+00
   0.11400000E+01           0.48878295E+00
   0.11500000E+01           0.49445552E+00
   0.11600000E+01           0.50022424E+00
   0.11700000E+01           0.50600806E+00
   0.11800000E+01           0.51139854E+00
   0.11900000E+01           0.51686299E+00
   0.12000000E+01           0.52298469E+00
   0.12100000E+01           0.52804502E+00
   0.12200000E+01           0.53374118E+00
   0.12300000E+01           0.53949237E+00
   0.12400000E+01           0.54459610E+00
   0.12500000E+01           0.55016347E+00
   0.12600000E+01           0.55552408E+00
   0.12700000E+01           0.56105368E+00
   0.12800000E+01           0.56651921E+00
   0.12900000E+01           0.57148344E+00
   0.13000000E+01           0.57657002E+00
   0.13100000E+01           0.58157008E+00
   0.13200000E+01           0.58670812E+00
   0.13300000E+01           0.59175005E+00
   0.13400000E+01           0.59675779E+00
   0.13500000E+01           0.60154702E+00
   0.13600000E+01           0.60633101E+00
   0.13700000E+01           0.61104351E+00
   0.13800000E+01           0.61613095E+00
   0.13900000E+01           0.62008095E+00
   0.14000000E+01           0.62486677E+00
   0.14100000E+01           0.62938301E+00
   0.14200000E+01           0.63390920E+00
   0.14300000E+01           0.63796293E+00
   0.14400000E+01           0.64200687E+00
   0.14500000E+01           0.64632376E+00
   0.14600000E+01           0.65020866E+00
   0.14700000E+01           0.65429968E+00
   0.14800000E+01           0.65812073E+00
   0.14900000E+01           0.66088068E+00
   0.15000000E+01           0.66448047E+00
   0.15100000E+01           0.66815173E+00
   0.15200000E+01           0.67089681E+00
   0.15300000E+01           0.67402852E+00
   0.15400000E+01           0.67715157E+00
   0.15500000E+01           0.67991845E+00
   0.15600000E+01           0.68244686E+00
   0.15700000E+01           0.68515417E+00
   0.15800000E+01           0.68706813E+00
   0.15900000E+01           0.68939481E+00
   0.16000000E+01           0.69077744E+00
   0.16100000E+01           0.69281650E+00
   0.16200000E+01           0.69450162E+00
   0.16300000E+01           0.69617148E+00
   0.16400000E+01           0.69741185E+00
   0.16500000E+01           0.69861066E+00
   0.16600000E+01           0.69902614E+00
   0.16700000E+01           0.69948891E+00
   0.16800000E+01           0.70028312E+00
   0.16900000E+01           0.70040335E+00
   0.17000000E+01           0.70047857E+00
   0.17100000E+01           0.70036753E+00
   0.17200000E+01           0.69994102E+00
   0.17300000E+01           0.69900693E+00
   0.17400000E+01           0.69786212E+00
   0.17500000E+01           0.69638220E+00
   0.17600000E+01           0.69517597E+00
   0.17700000E+01           0.69335747E+00
   0.17800000E+01           0.69138106E+00
   0.17900000E+01           0.68934453E+00
   0.18000000E+01           0.68684156E+00
   0.18100000E+01           0.68357754E+00
   0.18200000E+01           0.68059832E+00
   0.18300000E+01           0.67678874E+00
   0.18400000E+01           0.67325920E+00
   0.18500000E+01           0.66952056E+00
   0.18600000E+01           0.66520400E+00
   0.18700000E+01           0.66004161E+00
   0.18800000E+01           0.65569713E+00
   0.18900000E+01           0.64980465E+00
   0.19000000E+01           0.64383436E+00
   0.19100000E+01           0.63833241E+00
   0.19200000E+01           0.63236207E+00
   0.19300000E+01           0.62519426E+00
   0.19400000E+01           0.61823420E+00
   0.19500000E+01           0.61053728E+00
   0.19600000E+01           0.60275444E+00
   0.19700000E+01           0.59460363E+00
   0.19800000E+01           0.58606889E+00
   0.19900000E+01           0.57741510E+00
   0.20000000E+01           0.56785103E+00
   0.20100000E+01           0.55820108E+00
   0.20200000E+01           0.54867392E+00
   0.20300000E+01           0.53950790E+00
   0.20400000E+01           0.52992695E+00
   0.20500000E+01           0.52083907E+00
   0.20600000E+01           0.51118095E+00
   0.20700000E+01           0.50201521E+00
   0.20800000E+01           0.49276077E+00
   0.20900000E+01           0.48376061E+00
   0.21000000E+01           0.47471607E+00
   0.21100000E+01           0.46574145E+00
   0.21200000E+01           0.45678220E+00
   0.21300000E+01           0.44790693E+00
   0.21400000E+01           0.43933517E+00
   0.21500000E+01           0.43044740E+00
   0.21600000E+01           0.42241759E+00
   0.21700000E+01           0.41361228E+00
   0.21800000E+01           0.40509259E+00
   0.21900000E+01           0.39659811E+00
   0.22000000E+01           0.38861943E+00
   0.22100000E+01           0.38017478E+00
   0.22200000E+01           0.37195887E+00
   0.22300000E+01           0.36399215E+00
   0.22400000E+01           0.35620996E+00
   0.22500000E+01           0.34865417E+00
   0.22600000E+01           0.34068279E+00
   0.22700000E+01           0.33318945E+00
   0.22800000E+01           0.32554448E+00
   0.22900000E+01           0.31810714E+00
   0.23000000E+01           0.31068777E+00
   0.23100000E+01           0.30352359E+00
   0.23200000E+01           0.29645952E+00
   0.23300000E+01           0.28940411E+00
   0.23400000E+01           0.28228826E+00
   0.23500000E+01           0.27580649E+00
   0.23600000E+01           0.26881878E+00
   0.23700000E+01           0.26222532E+00
   0.23800000E+01           0.25570260E+00
   0.23900000E+01           0.24930076E+00
   0.24000000E+01           0.24296423E+00
   0.24100000E+01           0.23655492E+00
   0.24200000E+01           0.23062311E+00
   0.24300000E+01           0.22473090E+00
   0.24400000E+01           0.21860379E+00
   0.24500000E+01           0.21315530E+00
   0.24600000E+01           0.20752684E+00
   0.24700000E+01           0.20166791E+00
   0.24800000E+01           0.19624518E+00
   0.24900000E+01           0.19058631E+00
   0.25000000E+01           0.18539870E+00
   0.25100000E+01           0.18030135E+00
   0.25200000E+01           0.17520584E+00
   0.25300000E+01           0.17037863E+00
   0.25400000E+01           0.16526623E+00
   0.25500000E+01           0.16067305E+00
   0.25600000E+01           0.15582900E+00
   0.25700000E+01           0.15134632E+00
   0.25800000E+01           0.14682706E+00
   0.25900000E+01           0.14249692E+00
   0.26000000E+01           0.13823593E+00
   0.26100000E+01           0.13404248E+00
   0.26200000E+01           0.12985996E+00
   0.26300000E+01           0.12580552E+00
   0.26400000E+01           0.12183669E+00
   0.26500000E+01           0.11829021E+00
   0.26600000E+01           0.11448598E+00
   0.26700000E+01           0.11078804E+00
   0.26800000E+01           0.10720319E+00
   0.26900000E+01           0.10376813E+00
   0.27000000E+01           0.10049756E+00
   0.27100000E+01           0.97176353E-01
   0.27200000E+01           0.93848431E-01
   0.27300000E+01           0.90894643E-01
   0.27400000E+01           0.87895130E-01
   0.27500000E+01           0.84688366E-01
   0.27600000E+01           0.81870346E-01
   0.27700000E+01           0.79093994E-01
   0.27800000E+01           0.76339556E-01
   0.27900000E+01           0.73630519E-01
   0.28000000E+01           0.71017316E-01
   0.28100000E+01           0.68611310E-01
   0.28200000E+01           0.66119968E-01
   0.28300000E+01           0.63824459E-01
   0.28400000E+01           0.61448485E-01
   0.28500000E+01           0.59305574E-01
   0.28600000E+01           0.57043398E-01
   0.28700000E+01           0.54991775E-01
   0.28800000E+01           0.52890909E-01
   0.28900000E+01           0.50906818E-01
   0.29000000E+01           0.48988907E-01
   0.29100000E+01           0.47188312E-01
   0.29200000E+01           0.45304004E-01
   0.29300000E+01           0.43493452E-01
   0.29400000E+01           0.41927002E-01
   0.29500000E+01           0.40336201E-01
   0.29600000E+01           0.38612662E-01
   0.29700000E+01           0.37105032E-01
   0.29800000E+01           0.35652435E-01
   0.29900000E+01           0.34213745E-01
   0.30000000E+01           0.32814069E-01
   0.30100000E+01           0.31431169E-01
   0.30200000E+01           0.30114232E-01
   0.30300000E+01           0.28967641E-01
   0.30400000E+01           0.27720996E-01
   0.30500000E+01           0.26542641E-01
   0.30600000E+01           0.25453409E-01
   0.30700000E+01           0.24386905E-01
   0.30800000E+01           0.23296266E-01
   0.30900000E+01           0.22341071E-01
   0.31000000E+01           0.21370509E-01
   0.31100000E+01           0.20437879E-01
   0.31200000E+01           0.19509199E-01
   0.31300000E+01           0.18618561E-01
   0.31400000E+01           0.17810714E-01
   0.31500000E+01           0.17018128E-01
   0.31600000E+01           0.16252273E-01
   0.31700000E+01           0.15529600E-01
   0.31800000E+01           0.14791342E-01
   0.31900000E+01           0.14055465E-01
   0.32000000E+01           0.13484686E-01
   0.32100000E+01           0.12785335E-01
   0.32200000E+01           0.12175595E-01
   0.32300000E+01           0.11575758E-01
   0.32400000E+01           0.11037825E-01
   0.32500000E+01           0.10510498E-01
   0.32600000E+01           0.99767316E-02
   0.32700000E+01           0.95161255E-02
   0.32800000E+01           0.90236472E-02
   0.32900000E+01           0.85507576E-02
   0.33000000E+01           0.81755411E-02
   0.33100000E+01           0.76994589E-02
   0.33200000E+01           0.73437771E-02
   0.33300000E+01           0.69472944E-02
   0.33400000E+01           0.66114719E-02
   0.33500000E+01           0.62174242E-02
   0.33600000E+01           0.58867424E-02
   0.33700000E+01           0.55709957E-02
   0.33800000E+01           0.53125541E-02
   0.33900000E+01           0.50405303E-02
   0.34000000E+01           0.47324675E-02
   0.34100000E+01           0.44458333E-02
   0.34200000E+01           0.41961039E-02
   0.34300000E+01           0.39900433E-02
   0.34400000E+01           0.37393398E-02
   0.34500000E+01           0.35555195E-02
   0.34600000E+01           0.33352814E-02
   0.34700000E+01           0.31316558E-02
   0.34800000E+01           0.29461039E-02
   0.34900000E+01           0.27781926E-02
   0.35000000E+01           0.26063312E-02
   0.35100000E+01           0.24208333E-02
   0.35200000E+01           0.22819805E-02
   0.35300000E+01           0.21492424E-02
   0.35400000E+01           0.20101190E-02
   0.35500000E+01           0.18789502E-02
   0.35600000E+01           0.17562771E-02
   0.35700000E+01           0.16477814E-02
   0.35800000E+01           0.15275433E-02
   0.35900000E+01           0.14347944E-02
   0.36000000E+01           0.13204004E-02
   0.36100000E+01           0.12201840E-02
   0.36200000E+01           0.11459416E-02
   0.36300000E+01           0.10554113E-02
   0.36400000E+01           0.97505411E-03
   0.36500000E+01           0.89610390E-03
   0.36600000E+01           0.82391775E-03
   0.36700000E+01           0.77353896E-03
   0.36800000E+01           0.70075758E-03
   0.36900000E+01           0.64794372E-03
   0.37000000E+01           0.59615801E-03
   0.37100000E+01           0.54123377E-03
   0.37200000E+01           0.49870130E-03
   0.37300000E+01           0.44475108E-03
   0.37400000E+01           0.40946970E-03
   0.37500000E+01           0.37164502E-03
   0.37600000E+01           0.34009740E-03
   0.37700000E+01           0.29778139E-03
   0.37800000E+01           0.26461039E-03
   0.37900000E+01           0.23717532E-03
   0.38000000E+01           0.20827922E-03
   0.38100000E+01           0.19069264E-03
   0.38200000E+01           0.16758658E-03
   0.38300000E+01           0.14215368E-03
   0.38400000E+01           0.12824675E-03
   0.38500000E+01           0.11093074E-03
   0.38600000E+01           0.93019481E-04
   0.38700000E+01           0.77597403E-04
   0.38800000E+01           0.64989177E-04
   0.38900000E+01           0.53192641E-04
   0.39000000E+01           0.42803030E-04
   0.39100000E+01           0.38852814E-04
   0.39200000E+01           0.27543290E-04
   0.39300000E+01           0.19534632E-04
   0.39400000E+01           0.14015152E-04
   0.39500000E+01           0.11309524E-04
   0.39600000E+01           0.51948052E-05
   0.39700000E+01           0.30844156E-05
   0.39800000E+01           0.16233766E-05
   0.39900000E+01           0.70346320E-06
   0.40000000E+01           0.00000000E+00
