 #written on 19Nov2024 at 10:37:11 
 #----------------------------------------------- MONTECARLO ---------------------------------------------------#
 # Temp      Magnetization     Energy_ave          C_M              Sus              U_E              U_M       #
 #--------------------------------------------------------------------------------------------------------------#
  10.0000   0.24565301E-02  -0.28248730E+03   0.10180231E+01   0.27718320E-03   0.66666598E+00   0.42812590E+00
  10.7980   0.25522269E-02  -0.28166943E+03   0.10300285E+01   0.27708144E-03   0.66666585E+00   0.42825284E+00
  11.5960   0.26497559E-02  -0.28085058E+03   0.10196087E+01   0.27743217E-03   0.66666573E+00   0.42893315E+00
  12.3939   0.27405850E-02  -0.28003069E+03   0.10300868E+01   0.27812317E-03   0.66666557E+00   0.42861920E+00
  13.1919   0.28287737E-02  -0.27920859E+03   0.10333310E+01   0.27784879E-03   0.66666542E+00   0.42911894E+00
  13.9899   0.29117922E-02  -0.27838344E+03   0.10321189E+01   0.27728776E-03   0.66666526E+00   0.42977300E+00
  14.7879   0.29980849E-02  -0.27755898E+03   0.10323445E+01   0.27690750E-03   0.66666508E+00   0.43095747E+00
  15.5859   0.30789681E-02  -0.27673191E+03   0.10396618E+01   0.27761366E-03   0.66666488E+00   0.43060885E+00
  16.3838   0.31599771E-02  -0.27590246E+03   0.10399254E+01   0.27787841E-03   0.66666468E+00   0.43103102E+00
  17.1818   0.32414351E-02  -0.27507154E+03   0.10411997E+01   0.27831081E-03   0.66666447E+00   0.43152261E+00
  17.9798   0.33133176E-02  -0.27423850E+03   0.10456856E+01   0.27833824E-03   0.66666423E+00   0.43079803E+00
  18.7778   0.33867425E-02  -0.27340484E+03   0.10493758E+01   0.27757351E-03   0.66666399E+00   0.43226273E+00
  19.5758   0.34630747E-02  -0.27256802E+03   0.10505817E+01   0.27862135E-03   0.66666373E+00   0.43218025E+00
  20.3737   0.35355712E-02  -0.27173058E+03   0.10522956E+01   0.27824634E-03   0.66666347E+00   0.43286773E+00
  21.1717   0.36032747E-02  -0.27089109E+03   0.10536713E+01   0.27852340E-03   0.66666318E+00   0.43247641E+00
  21.9697   0.36766888E-02  -0.27004585E+03   0.10555454E+01   0.27868904E-03   0.66666289E+00   0.43330820E+00
  22.7677   0.37417621E-02  -0.26920289E+03   0.10641019E+01   0.27863055E-03   0.66666255E+00   0.43337534E+00
  23.5657   0.38099612E-02  -0.26835293E+03   0.10647256E+01   0.27891798E-03   0.66666222E+00   0.43343380E+00
  24.3636   0.38783803E-02  -0.26750408E+03   0.10665009E+01   0.27887198E-03   0.66666188E+00   0.43444549E+00
  25.1616   0.39451964E-02  -0.26665070E+03   0.10652485E+01   0.27949332E-03   0.66666153E+00   0.43390297E+00
  25.9596   0.40083129E-02  -0.26579719E+03   0.10710720E+01   0.27888908E-03   0.66666114E+00   0.43501353E+00
  26.7576   0.40720170E-02  -0.26494192E+03   0.10721698E+01   0.27893006E-03   0.66666075E+00   0.43547679E+00
  27.5556   0.41335002E-02  -0.26408398E+03   0.10807082E+01   0.27913611E-03   0.66666030E+00   0.43555513E+00
  28.3535   0.41973971E-02  -0.26322185E+03   0.10812003E+01   0.27922257E-03   0.66665988E+00   0.43594353E+00
  29.1515   0.42561791E-02  -0.26235909E+03   0.10859297E+01   0.27961857E-03   0.66665941E+00   0.43573151E+00
  29.9495   0.43190884E-02  -0.26149228E+03   0.10896746E+01   0.28006530E-03   0.66665893E+00   0.43593397E+00
  30.7475   0.43760903E-02  -0.26062450E+03   0.10916359E+01   0.28012300E-03   0.66665845E+00   0.43605963E+00
  31.5455   0.44368287E-02  -0.25975208E+03   0.10960406E+01   0.27988434E-03   0.66665792E+00   0.43683131E+00
  32.3434   0.44981253E-02  -0.25887433E+03   0.10999726E+01   0.28031012E-03   0.66665738E+00   0.43725164E+00
  33.1414   0.45559091E-02  -0.25799684E+03   0.11057165E+01   0.28047988E-03   0.66665679E+00   0.43738324E+00
  33.9394   0.46142313E-02  -0.25711425E+03   0.11055088E+01   0.28077676E-03   0.66665624E+00   0.43749408E+00
  34.7374   0.46715033E-02  -0.25623295E+03   0.11115412E+01   0.28114801E-03   0.66665561E+00   0.43758735E+00
  35.5354   0.47268225E-02  -0.25534821E+03   0.11120135E+01   0.28139213E-03   0.66665501E+00   0.43774226E+00
  36.3333   0.47829322E-02  -0.25445581E+03   0.11172553E+01   0.28115366E-03   0.66665434E+00   0.43824127E+00
  37.1313   0.48367629E-02  -0.25355965E+03   0.11218236E+01   0.28141698E-03   0.66665365E+00   0.43852959E+00
  37.9293   0.48944620E-02  -0.25266083E+03   0.11280975E+01   0.28212405E-03   0.66665291E+00   0.43823663E+00
  38.7273   0.49518558E-02  -0.25175820E+03   0.11308457E+01   0.28232004E-03   0.66665219E+00   0.43885540E+00
  39.5253   0.50021285E-02  -0.25085544E+03   0.11383305E+01   0.28231400E-03   0.66665138E+00   0.43875104E+00
  40.3232   0.50549511E-02  -0.24994707E+03   0.11454649E+01   0.28199725E-03   0.66665054E+00   0.43947184E+00
  41.1212   0.51116028E-02  -0.24903177E+03   0.11478012E+01   0.28280755E-03   0.66664973E+00   0.43946147E+00
  41.9192   0.51632615E-02  -0.24811469E+03   0.11527611E+01   0.28293396E-03   0.66664886E+00   0.43982492E+00
  42.7172   0.52141296E-02  -0.24719044E+03   0.11592982E+01   0.28299336E-03   0.66664794E+00   0.43985195E+00
  43.5152   0.52701040E-02  -0.24625908E+03   0.11645211E+01   0.28355044E-03   0.66664699E+00   0.44022017E+00
  44.3131   0.53189056E-02  -0.24532945E+03   0.11730453E+01   0.28355275E-03   0.66664596E+00   0.44053250E+00
  45.1111   0.53727804E-02  -0.24439097E+03   0.11796154E+01   0.28454740E-03   0.66664492E+00   0.44001527E+00
  45.9091   0.54242622E-02  -0.24344543E+03   0.11885287E+01   0.28485542E-03   0.66664380E+00   0.44025402E+00
  46.7071   0.54765951E-02  -0.24249473E+03   0.11952806E+01   0.28492851E-03   0.66664268E+00   0.44047586E+00
  47.5051   0.55274676E-02  -0.24153880E+03   0.12054147E+01   0.28515584E-03   0.66664144E+00   0.44081304E+00
  48.3030   0.55775648E-02  -0.24057494E+03   0.12075784E+01   0.28488136E-03   0.66664033E+00   0.44148936E+00
  49.1010   0.56278789E-02  -0.23960292E+03   0.12202437E+01   0.28616681E-03   0.66663894E+00   0.44074846E+00
  49.8990   0.56764151E-02  -0.23863056E+03   0.12309296E+01   0.28567952E-03   0.66663755E+00   0.44148738E+00
  50.6970   0.57271665E-02  -0.23764597E+03   0.12367402E+01   0.28649162E-03   0.66663622E+00   0.44133851E+00
  51.4949   0.57781061E-02  -0.23665219E+03   0.12474234E+01   0.28686172E-03   0.66663471E+00   0.44158868E+00
  52.2929   0.58243574E-02  -0.23565030E+03   0.12600666E+01   0.28711078E-03   0.66663310E+00   0.44151739E+00
  53.0909   0.58746036E-02  -0.23464386E+03   0.12691769E+01   0.28763383E-03   0.66663152E+00   0.44170911E+00
  53.8889   0.59232828E-02  -0.23362139E+03   0.12855448E+01   0.28774302E-03   0.66662966E+00   0.44221623E+00
  54.6869   0.59743397E-02  -0.23259315E+03   0.12938904E+01   0.28808371E-03   0.66662797E+00   0.44245532E+00
  55.4848   0.60264241E-02  -0.23155689E+03   0.13075685E+01   0.28920392E-03   0.66662605E+00   0.44223654E+00
  56.2828   0.60718636E-02  -0.23050651E+03   0.13244376E+01   0.28885914E-03   0.66662395E+00   0.44268165E+00
  57.0808   0.61187941E-02  -0.22944392E+03   0.13382504E+01   0.28944568E-03   0.66662186E+00   0.44271855E+00
  57.8788   0.61716169E-02  -0.22836856E+03   0.13514279E+01   0.29028081E-03   0.66661971E+00   0.44268696E+00
  58.6768   0.62191356E-02  -0.22729029E+03   0.13640199E+01   0.29012774E-03   0.66661749E+00   0.44317853E+00
  59.4747   0.62663867E-02  -0.22619197E+03   0.13880649E+01   0.29118393E-03   0.66661476E+00   0.44302845E+00
  60.2727   0.63143650E-02  -0.22507544E+03   0.14038046E+01   0.29159210E-03   0.66661221E+00   0.44287714E+00
  61.0707   0.63615533E-02  -0.22394996E+03   0.14200890E+01   0.29193350E-03   0.66660954E+00   0.44294063E+00
  61.8687   0.64124609E-02  -0.22280601E+03   0.14422464E+01   0.29277380E-03   0.66660652E+00   0.44301777E+00
  62.6667   0.64580437E-02  -0.22164705E+03   0.14629245E+01   0.29345335E-03   0.66660341E+00   0.44312981E+00
  63.4646   0.65077377E-02  -0.22047212E+03   0.14829941E+01   0.29355960E-03   0.66660020E+00   0.44359658E+00
  64.2626   0.65604120E-02  -0.21927585E+03   0.15058560E+01   0.29457739E-03   0.66659671E+00   0.44367184E+00
  65.0606   0.66028358E-02  -0.21806576E+03   0.15367919E+01   0.29538785E-03   0.66659268E+00   0.44301802E+00
  65.8586   0.66529722E-02  -0.21682993E+03   0.15636375E+01   0.29575842E-03   0.66658865E+00   0.44332392E+00
  66.6566   0.67029983E-02  -0.21557755E+03   0.15894608E+01   0.29633360E-03   0.66658448E+00   0.44380781E+00
  67.4545   0.67505525E-02  -0.21429750E+03   0.16204587E+01   0.29697265E-03   0.66657983E+00   0.44385504E+00
  68.2525   0.67950253E-02  -0.21299346E+03   0.16525800E+01   0.29761160E-03   0.66657490E+00   0.44365526E+00
  69.0505   0.68468851E-02  -0.21166760E+03   0.16863380E+01   0.29784257E-03   0.66656962E+00   0.44419150E+00
  69.8485   0.68943480E-02  -0.21030417E+03   0.17221724E+01   0.29929379E-03   0.66656393E+00   0.44379893E+00
  70.6465   0.69458182E-02  -0.20891642E+03   0.17524169E+01   0.29973721E-03   0.66655830E+00   0.44439032E+00
  71.4444   0.69944259E-02  -0.20749745E+03   0.17784297E+01   0.30057717E-03   0.66655264E+00   0.44408499E+00
  72.2424   0.70421891E-02  -0.20608448E+03   0.17824050E+01   0.30151555E-03   0.66654819E+00   0.44405717E+00
  73.0404   0.70933497E-02  -0.20466265E+03   0.17826413E+01   0.30301679E-03   0.66654384E+00   0.44383093E+00
  73.8384   0.71410864E-02  -0.20325394E+03   0.17471618E+01   0.30304394E-03   0.66654191E+00   0.44437180E+00
  74.6364   0.71873458E-02  -0.20188185E+03   0.16983817E+01   0.30370739E-03   0.66654105E+00   0.44441775E+00
  75.4343   0.72337309E-02  -0.20054593E+03   0.16325808E+01   0.30458287E-03   0.66654166E+00   0.44434277E+00
  76.2323   0.72809458E-02  -0.19926147E+03   0.15682605E+01   0.30568802E-03   0.66654244E+00   0.44401330E+00
  77.0303   0.73326704E-02  -0.19803876E+03   0.15116422E+01   0.30646787E-03   0.66654290E+00   0.44432303E+00
  77.8283   0.73778786E-02  -0.19685035E+03   0.14581211E+01   0.30652301E-03   0.66654332E+00   0.44440243E+00
  78.6263   0.74197391E-02  -0.19570775E+03   0.14059988E+01   0.30736018E-03   0.66654386E+00   0.44418478E+00
  79.4242   0.74635288E-02  -0.19460260E+03   0.13663530E+01   0.30790799E-03   0.66654350E+00   0.44408527E+00
  80.2222   0.75113800E-02  -0.19352759E+03   0.13258193E+01   0.30863832E-03   0.66654339E+00   0.44427113E+00
  81.0202   0.75542864E-02  -0.19248821E+03   0.12885564E+01   0.30884944E-03   0.66654314E+00   0.44478329E+00
  81.8182   0.75986619E-02  -0.19147118E+03   0.12561556E+01   0.30980481E-03   0.66654256E+00   0.44436801E+00
  82.6162   0.76427116E-02  -0.19047568E+03   0.12311754E+01   0.31087569E-03   0.66654135E+00   0.44382875E+00
  83.4141   0.76890251E-02  -0.18950391E+03   0.12064775E+01   0.31111475E-03   0.66654019E+00   0.44448075E+00
  84.2121   0.77275342E-02  -0.18855378E+03   0.11842680E+01   0.31140718E-03   0.66653886E+00   0.44390010E+00
  85.0101   0.77721382E-02  -0.18761549E+03   0.11684057E+01   0.31179958E-03   0.66653689E+00   0.44416388E+00
  85.8081   0.78118493E-02  -0.18669052E+03   0.11453097E+01   0.31197416E-03   0.66653577E+00   0.44442703E+00
  86.6061   0.78517380E-02  -0.18578174E+03   0.11320573E+01   0.31280218E-03   0.66653357E+00   0.44434701E+00
  87.4040   0.78936424E-02  -0.18488694E+03   0.11172025E+01   0.31263497E-03   0.66653159E+00   0.44461613E+00
  88.2020   0.79343212E-02  -0.18399849E+03   0.11011043E+01   0.31323961E-03   0.66652979E+00   0.44443178E+00
  89.0000   0.79786147E-02  -0.18312217E+03   0.10879354E+01   0.31379977E-03   0.66652765E+00   0.44449505E+00
