 #written on 27Nov2024 at 13:58:13 
 #----------------- MONTECARLO -------------------#
 #        M                      P(M)             #
 #------------------------------------------------#
 #T=     0.5000
  -0.20000000E+01           0.00000000E+00
  -0.19900000E+01           0.00000000E+00
  -0.19800000E+01           0.00000000E+00
  -0.19700000E+01           0.00000000E+00
  -0.19600000E+01           0.00000000E+00
  -0.19500000E+01           0.00000000E+00
  -0.19400000E+01           0.00000000E+00
  -0.19300000E+01           0.00000000E+00
  -0.19200000E+01           0.00000000E+00
  -0.19100000E+01           0.00000000E+00
  -0.19000000E+01           0.00000000E+00
  -0.18900000E+01           0.00000000E+00
  -0.18800000E+01           0.00000000E+00
  -0.18700000E+01           0.00000000E+00
  -0.18600000E+01           0.00000000E+00
  -0.18500000E+01           0.00000000E+00
  -0.18400000E+01           0.00000000E+00
  -0.18300000E+01           0.00000000E+00
  -0.18200000E+01           0.00000000E+00
  -0.18100000E+01           0.00000000E+00
  -0.18000000E+01           0.00000000E+00
  -0.17900000E+01           0.00000000E+00
  -0.17800000E+01           0.00000000E+00
  -0.17700000E+01           0.00000000E+00
  -0.17600000E+01           0.00000000E+00
  -0.17500000E+01           0.00000000E+00
  -0.17400000E+01           0.00000000E+00
  -0.17300000E+01           0.00000000E+00
  -0.17200000E+01           0.00000000E+00
  -0.17100000E+01           0.00000000E+00
  -0.17000000E+01           0.00000000E+00
  -0.16900000E+01           0.00000000E+00
  -0.16800000E+01           0.00000000E+00
  -0.16700000E+01           0.00000000E+00
  -0.16600000E+01           0.00000000E+00
  -0.16500000E+01           0.00000000E+00
  -0.16400000E+01           0.00000000E+00
  -0.16300000E+01           0.00000000E+00
  -0.16200000E+01           0.00000000E+00
  -0.16100000E+01           0.00000000E+00
  -0.16000000E+01           0.00000000E+00
  -0.15900000E+01           0.00000000E+00
  -0.15800000E+01           0.00000000E+00
  -0.15700000E+01           0.00000000E+00
  -0.15600000E+01           0.00000000E+00
  -0.15500000E+01           0.00000000E+00
  -0.15400000E+01           0.00000000E+00
  -0.15300000E+01           0.00000000E+00
  -0.15200000E+01           0.00000000E+00
  -0.15100000E+01           0.00000000E+00
  -0.15000000E+01           0.00000000E+00
  -0.14900000E+01           0.00000000E+00
  -0.14800000E+01           0.00000000E+00
  -0.14700000E+01           0.00000000E+00
  -0.14600000E+01           0.00000000E+00
  -0.14500000E+01           0.00000000E+00
  -0.14400000E+01           0.00000000E+00
  -0.14300000E+01           0.00000000E+00
  -0.14200000E+01           0.00000000E+00
  -0.14100000E+01           0.00000000E+00
  -0.14000000E+01           0.00000000E+00
  -0.13900000E+01           0.00000000E+00
  -0.13800000E+01           0.00000000E+00
  -0.13700000E+01           0.00000000E+00
  -0.13600000E+01           0.00000000E+00
  -0.13500000E+01           0.00000000E+00
  -0.13400000E+01           0.00000000E+00
  -0.13300000E+01           0.00000000E+00
  -0.13200000E+01           0.00000000E+00
  -0.13100000E+01           0.00000000E+00
  -0.13000000E+01           0.00000000E+00
  -0.12900000E+01           0.00000000E+00
  -0.12800000E+01           0.00000000E+00
  -0.12700000E+01           0.00000000E+00
  -0.12600000E+01           0.00000000E+00
  -0.12500000E+01           0.00000000E+00
  -0.12400000E+01           0.00000000E+00
  -0.12300000E+01           0.00000000E+00
  -0.12200000E+01           0.00000000E+00
  -0.12100000E+01           0.00000000E+00
  -0.12000000E+01           0.00000000E+00
  -0.11900000E+01           0.00000000E+00
  -0.11800000E+01           0.00000000E+00
  -0.11700000E+01           0.00000000E+00
  -0.11600000E+01           0.00000000E+00
  -0.11500000E+01           0.00000000E+00
  -0.11400000E+01           0.00000000E+00
  -0.11300000E+01           0.00000000E+00
  -0.11200000E+01           0.00000000E+00
  -0.11100000E+01           0.00000000E+00
  -0.11000000E+01           0.00000000E+00
  -0.10900000E+01           0.00000000E+00
  -0.10800000E+01           0.00000000E+00
  -0.10700000E+01           0.00000000E+00
  -0.10600000E+01           0.00000000E+00
  -0.10500000E+01           0.00000000E+00
  -0.10400000E+01           0.00000000E+00
  -0.10300000E+01           0.00000000E+00
  -0.10200000E+01           0.00000000E+00
  -0.10100000E+01           0.00000000E+00
  -0.10000000E+01           0.00000000E+00
  -0.99000000E+00           0.00000000E+00
  -0.98000000E+00           0.00000000E+00
  -0.97000000E+00           0.00000000E+00
  -0.96000000E+00           0.00000000E+00
  -0.95000000E+00           0.00000000E+00
  -0.94000000E+00           0.00000000E+00
  -0.93000000E+00           0.00000000E+00
  -0.92000000E+00           0.00000000E+00
  -0.91000000E+00           0.00000000E+00
  -0.90000000E+00           0.00000000E+00
  -0.89000000E+00           0.00000000E+00
  -0.88000000E+00           0.00000000E+00
  -0.87000000E+00           0.00000000E+00
  -0.86000000E+00           0.00000000E+00
  -0.85000000E+00           0.00000000E+00
  -0.84000000E+00           0.00000000E+00
  -0.83000000E+00           0.00000000E+00
  -0.82000000E+00           0.00000000E+00
  -0.81000000E+00           0.00000000E+00
  -0.80000000E+00           0.00000000E+00
  -0.79000000E+00           0.00000000E+00
  -0.78000000E+00           0.00000000E+00
  -0.77000000E+00           0.00000000E+00
  -0.76000000E+00           0.00000000E+00
  -0.75000000E+00           0.00000000E+00
  -0.74000000E+00           0.00000000E+00
  -0.73000000E+00           0.00000000E+00
  -0.72000000E+00           0.00000000E+00
  -0.71000000E+00           0.00000000E+00
  -0.70000000E+00           0.00000000E+00
  -0.69000000E+00           0.00000000E+00
  -0.68000000E+00           0.00000000E+00
  -0.67000000E+00           0.00000000E+00
  -0.66000000E+00           0.00000000E+00
  -0.65000000E+00           0.00000000E+00
  -0.64000000E+00           0.00000000E+00
  -0.63000000E+00           0.00000000E+00
  -0.62000000E+00           0.00000000E+00
  -0.61000000E+00           0.00000000E+00
  -0.60000000E+00           0.00000000E+00
  -0.59000000E+00           0.00000000E+00
  -0.58000000E+00           0.00000000E+00
  -0.57000000E+00           0.00000000E+00
  -0.56000000E+00           0.00000000E+00
  -0.55000000E+00           0.00000000E+00
  -0.54000000E+00           0.00000000E+00
  -0.53000000E+00           0.00000000E+00
  -0.52000000E+00           0.00000000E+00
  -0.51000000E+00           0.00000000E+00
  -0.50000000E+00           0.00000000E+00
  -0.49000000E+00           0.00000000E+00
  -0.48000000E+00           0.00000000E+00
  -0.47000000E+00           0.00000000E+00
  -0.46000000E+00           0.00000000E+00
  -0.45000000E+00           0.00000000E+00
  -0.44000000E+00           0.00000000E+00
  -0.43000000E+00           0.00000000E+00
  -0.42000000E+00           0.00000000E+00
  -0.41000000E+00           0.00000000E+00
  -0.40000000E+00           0.00000000E+00
  -0.39000000E+00           0.00000000E+00
  -0.38000000E+00           0.00000000E+00
  -0.37000000E+00           0.00000000E+00
  -0.36000000E+00           0.00000000E+00
  -0.35000000E+00           0.00000000E+00
  -0.34000000E+00           0.00000000E+00
  -0.33000000E+00           0.00000000E+00
  -0.32000000E+00           0.00000000E+00
  -0.31000000E+00           0.00000000E+00
  -0.30000000E+00           0.00000000E+00
  -0.29000000E+00           0.00000000E+00
  -0.28000000E+00           0.00000000E+00
  -0.27000000E+00           0.00000000E+00
  -0.26000000E+00           0.00000000E+00
  -0.25000000E+00           0.00000000E+00
  -0.24000000E+00           0.00000000E+00
  -0.23000000E+00           0.00000000E+00
  -0.22000000E+00           0.00000000E+00
  -0.21000000E+00           0.00000000E+00
  -0.20000000E+00           0.00000000E+00
  -0.19000000E+00           0.00000000E+00
  -0.18000000E+00           0.00000000E+00
  -0.17000000E+00           0.00000000E+00
  -0.16000000E+00           0.00000000E+00
  -0.15000000E+00           0.00000000E+00
  -0.14000000E+00           0.00000000E+00
  -0.13000000E+00           0.00000000E+00
  -0.12000000E+00           0.00000000E+00
  -0.11000000E+00           0.00000000E+00
  -0.10000000E+00           0.00000000E+00
  -0.90000000E-01           0.00000000E+00
  -0.80000000E-01           0.00000000E+00
  -0.70000000E-01           0.00000000E+00
  -0.60000000E-01           0.00000000E+00
  -0.50000000E-01           0.00000000E+00
  -0.40000000E-01           0.00000000E+00
  -0.30000000E-01           0.00000000E+00
  -0.20000000E-01           0.00000000E+00
  -0.10000000E-01           0.00000000E+00
   0.00000000E+00           0.23909598E-01
   0.10000000E-01           0.19238418E+00
   0.20000000E-01           0.38174866E+00
   0.30000000E-01           0.56644807E+00
   0.40000000E-01           0.74522754E+00
   0.50000000E-01           0.91634615E+00
   0.60000000E-01           0.10760341E+01
   0.70000000E-01           0.12230805E+01
   0.80000000E-01           0.13592508E+01
   0.90000000E-01           0.14806481E+01
   0.10000000E+00           0.15868425E+01
   0.11000000E+00           0.16765907E+01
   0.12000000E+00           0.17506018E+01
   0.13000000E+00           0.18073066E+01
   0.14000000E+00           0.18488468E+01
   0.15000000E+00           0.18734406E+01
   0.16000000E+00           0.18818991E+01
   0.17000000E+00           0.18779481E+01
   0.18000000E+00           0.18608991E+01
   0.19000000E+00           0.18283272E+01
   0.20000000E+00           0.17853347E+01
   0.21000000E+00           0.17331656E+01
   0.22000000E+00           0.16706642E+01
   0.23000000E+00           0.16049865E+01
   0.24000000E+00           0.15274186E+01
   0.25000000E+00           0.14500455E+01
   0.26000000E+00           0.13654935E+01
   0.27000000E+00           0.12802814E+01
   0.28000000E+00           0.11956581E+01
   0.29000000E+00           0.11082131E+01
   0.30000000E+00           0.10236593E+01
   0.31000000E+00           0.94023610E+00
   0.32000000E+00           0.85953078E+00
   0.33000000E+00           0.78221370E+00
   0.34000000E+00           0.70786917E+00
   0.35000000E+00           0.63703594E+00
   0.36000000E+00           0.57149420E+00
   0.37000000E+00           0.51002533E+00
   0.38000000E+00           0.45237935E+00
   0.39000000E+00           0.40054757E+00
   0.40000000E+00           0.35186077E+00
   0.41000000E+00           0.30851808E+00
   0.42000000E+00           0.26855575E+00
   0.43000000E+00           0.23344157E+00
   0.44000000E+00           0.20125700E+00
   0.45000000E+00           0.17350393E+00
   0.46000000E+00           0.14868454E+00
   0.47000000E+00           0.12652190E+00
   0.48000000E+00           0.10765377E+00
   0.49000000E+00           0.90383343E-01
   0.50000000E+00           0.76301339E-01
   0.51000000E+00           0.63512807E-01
   0.52000000E+00           0.53118778E-01
   0.53000000E+00           0.44003990E-01
   0.54000000E+00           0.36119113E-01
   0.55000000E+00           0.29913281E-01
   0.56000000E+00           0.24420257E-01
   0.57000000E+00           0.19808510E-01
   0.58000000E+00           0.16174581E-01
   0.59000000E+00           0.13007031E-01
   0.60000000E+00           0.10475000E-01
   0.61000000E+00           0.84051897E-02
   0.62000000E+00           0.66212054E-02
   0.63000000E+00           0.52724051E-02
   0.64000000E+00           0.41380580E-02
   0.65000000E+00           0.32533482E-02
   0.66000000E+00           0.26126953E-02
   0.67000000E+00           0.19919364E-02
   0.68000000E+00           0.15352400E-02
   0.69000000E+00           0.11963170E-02
   0.70000000E+00           0.90111607E-03
   0.71000000E+00           0.68828125E-03
   0.72000000E+00           0.54335938E-03
   0.73000000E+00           0.41012835E-03
   0.74000000E+00           0.30811942E-03
   0.75000000E+00           0.22427455E-03
   0.76000000E+00           0.16152344E-03
   0.77000000E+00           0.13055246E-03
   0.78000000E+00           0.99441964E-04
   0.79000000E+00           0.62081473E-04
   0.80000000E+00           0.48270089E-04
   0.81000000E+00           0.32533482E-04
   0.82000000E+00           0.27092634E-04
   0.83000000E+00           0.17438616E-04
   0.84000000E+00           0.15959821E-04
   0.85000000E+00           0.10239955E-04
   0.86000000E+00           0.75055804E-05
   0.87000000E+00           0.57477679E-05
   0.88000000E+00           0.28459821E-05
   0.89000000E+00           0.22321429E-05
   0.90000000E+00           0.22042411E-05
   0.91000000E+00           0.14508929E-05
   0.92000000E+00           0.11718750E-05
   0.93000000E+00           0.78125000E-06
   0.94000000E+00           0.16741071E-06
   0.95000000E+00           0.27901786E-06
   0.96000000E+00           0.13950893E-06
   0.97000000E+00           0.33482143E-06
   0.98000000E+00           0.55803571E-07
   0.99000000E+00           0.27901786E-07
   0.10000000E+01           0.00000000E+00
   0.10100000E+01           0.00000000E+00
   0.10200000E+01           0.00000000E+00
   0.10300000E+01           0.00000000E+00
   0.10400000E+01           0.00000000E+00
   0.10500000E+01           0.00000000E+00
   0.10600000E+01           0.00000000E+00
   0.10700000E+01           0.00000000E+00
   0.10800000E+01           0.00000000E+00
   0.10900000E+01           0.00000000E+00
   0.11000000E+01           0.00000000E+00
   0.11100000E+01           0.00000000E+00
   0.11200000E+01           0.00000000E+00
   0.11300000E+01           0.00000000E+00
   0.11400000E+01           0.00000000E+00
   0.11500000E+01           0.00000000E+00
   0.11600000E+01           0.00000000E+00
   0.11700000E+01           0.00000000E+00
   0.11800000E+01           0.00000000E+00
   0.11900000E+01           0.00000000E+00
   0.12000000E+01           0.00000000E+00
   0.12100000E+01           0.00000000E+00
   0.12200000E+01           0.00000000E+00
   0.12300000E+01           0.00000000E+00
   0.12400000E+01           0.00000000E+00
   0.12500000E+01           0.00000000E+00
   0.12600000E+01           0.00000000E+00
   0.12700000E+01           0.00000000E+00
   0.12800000E+01           0.00000000E+00
   0.12900000E+01           0.00000000E+00
   0.13000000E+01           0.00000000E+00
   0.13100000E+01           0.27901786E-07
   0.13200000E+01           0.00000000E+00
   0.13300000E+01           0.00000000E+00
   0.13400000E+01           0.00000000E+00
   0.13500000E+01           0.00000000E+00
   0.13600000E+01           0.00000000E+00
   0.13700000E+01           0.00000000E+00
   0.13800000E+01           0.00000000E+00
   0.13900000E+01           0.00000000E+00
   0.14000000E+01           0.00000000E+00
   0.14100000E+01           0.00000000E+00
   0.14200000E+01           0.00000000E+00
   0.14300000E+01           0.00000000E+00
   0.14400000E+01           0.00000000E+00
   0.14500000E+01           0.00000000E+00
   0.14600000E+01           0.00000000E+00
   0.14700000E+01           0.00000000E+00
   0.14800000E+01           0.00000000E+00
   0.14900000E+01           0.00000000E+00
   0.15000000E+01           0.00000000E+00
   0.15100000E+01           0.00000000E+00
   0.15200000E+01           0.00000000E+00
   0.15300000E+01           0.00000000E+00
   0.15400000E+01           0.00000000E+00
   0.15500000E+01           0.00000000E+00
   0.15600000E+01           0.00000000E+00
   0.15700000E+01           0.00000000E+00
   0.15800000E+01           0.00000000E+00
   0.15900000E+01           0.00000000E+00
   0.16000000E+01           0.00000000E+00
   0.16100000E+01           0.00000000E+00
   0.16200000E+01           0.00000000E+00
   0.16300000E+01           0.00000000E+00
   0.16400000E+01           0.27901786E-07
   0.16500000E+01           0.47433036E-06
   0.16600000E+01           0.00000000E+00
   0.16700000E+01           0.25111607E-06
   0.16800000E+01           0.25111607E-06
   0.16900000E+01           0.80915179E-06
   0.17000000E+01           0.78125000E-06
   0.17100000E+01           0.37109375E-05
   0.17200000E+01           0.39341518E-05
   0.17300000E+01           0.65569196E-05
   0.17400000E+01           0.13337054E-04
   0.17500000E+01           0.20842634E-04
   0.17600000E+01           0.47739955E-04
   0.17700000E+01           0.72237723E-04
   0.17800000E+01           0.13074777E-03
   0.17900000E+01           0.23766741E-03
   0.18000000E+01           0.44372210E-03
   0.18100000E+01           0.78289621E-03
   0.18200000E+01           0.13620815E-02
   0.18300000E+01           0.24364955E-02
   0.18400000E+01           0.42256417E-02
   0.18500000E+01           0.74979632E-02
   0.18600000E+01           0.13102037E-01
   0.18700000E+01           0.23051060E-01
   0.18800000E+01           0.40356222E-01
   0.18900000E+01           0.70453292E-01
   0.19000000E+01           0.12212109E+00
   0.19100000E+01           0.21163931E+00
   0.19200000E+01           0.36725622E+00
   0.19300000E+01           0.63357642E+00
   0.19400000E+01           0.10895214E+01
   0.19500000E+01           0.18725111E+01
   0.19600000E+01           0.32057356E+01
   0.19700000E+01           0.54790926E+01
   0.19800000E+01           0.93314774E+01
   0.19900000E+01           0.15852772E+02
   0.20000000E+01           0.11670046E+02
 #T=     1.0000
  -0.20000000E+01           0.00000000E+00
  -0.19900000E+01           0.00000000E+00
  -0.19800000E+01           0.00000000E+00
  -0.19700000E+01           0.00000000E+00
  -0.19600000E+01           0.00000000E+00
  -0.19500000E+01           0.00000000E+00
  -0.19400000E+01           0.00000000E+00
  -0.19300000E+01           0.00000000E+00
  -0.19200000E+01           0.00000000E+00
  -0.19100000E+01           0.00000000E+00
  -0.19000000E+01           0.00000000E+00
  -0.18900000E+01           0.00000000E+00
  -0.18800000E+01           0.00000000E+00
  -0.18700000E+01           0.00000000E+00
  -0.18600000E+01           0.00000000E+00
  -0.18500000E+01           0.00000000E+00
  -0.18400000E+01           0.00000000E+00
  -0.18300000E+01           0.00000000E+00
  -0.18200000E+01           0.00000000E+00
  -0.18100000E+01           0.00000000E+00
  -0.18000000E+01           0.00000000E+00
  -0.17900000E+01           0.00000000E+00
  -0.17800000E+01           0.00000000E+00
  -0.17700000E+01           0.00000000E+00
  -0.17600000E+01           0.00000000E+00
  -0.17500000E+01           0.00000000E+00
  -0.17400000E+01           0.00000000E+00
  -0.17300000E+01           0.00000000E+00
  -0.17200000E+01           0.00000000E+00
  -0.17100000E+01           0.00000000E+00
  -0.17000000E+01           0.00000000E+00
  -0.16900000E+01           0.00000000E+00
  -0.16800000E+01           0.00000000E+00
  -0.16700000E+01           0.00000000E+00
  -0.16600000E+01           0.00000000E+00
  -0.16500000E+01           0.00000000E+00
  -0.16400000E+01           0.00000000E+00
  -0.16300000E+01           0.00000000E+00
  -0.16200000E+01           0.00000000E+00
  -0.16100000E+01           0.00000000E+00
  -0.16000000E+01           0.00000000E+00
  -0.15900000E+01           0.00000000E+00
  -0.15800000E+01           0.00000000E+00
  -0.15700000E+01           0.00000000E+00
  -0.15600000E+01           0.00000000E+00
  -0.15500000E+01           0.00000000E+00
  -0.15400000E+01           0.00000000E+00
  -0.15300000E+01           0.00000000E+00
  -0.15200000E+01           0.00000000E+00
  -0.15100000E+01           0.00000000E+00
  -0.15000000E+01           0.00000000E+00
  -0.14900000E+01           0.00000000E+00
  -0.14800000E+01           0.00000000E+00
  -0.14700000E+01           0.00000000E+00
  -0.14600000E+01           0.00000000E+00
  -0.14500000E+01           0.00000000E+00
  -0.14400000E+01           0.00000000E+00
  -0.14300000E+01           0.00000000E+00
  -0.14200000E+01           0.00000000E+00
  -0.14100000E+01           0.00000000E+00
  -0.14000000E+01           0.00000000E+00
  -0.13900000E+01           0.00000000E+00
  -0.13800000E+01           0.00000000E+00
  -0.13700000E+01           0.00000000E+00
  -0.13600000E+01           0.00000000E+00
  -0.13500000E+01           0.00000000E+00
  -0.13400000E+01           0.00000000E+00
  -0.13300000E+01           0.00000000E+00
  -0.13200000E+01           0.00000000E+00
  -0.13100000E+01           0.00000000E+00
  -0.13000000E+01           0.00000000E+00
  -0.12900000E+01           0.00000000E+00
  -0.12800000E+01           0.00000000E+00
  -0.12700000E+01           0.00000000E+00
  -0.12600000E+01           0.00000000E+00
  -0.12500000E+01           0.00000000E+00
  -0.12400000E+01           0.00000000E+00
  -0.12300000E+01           0.00000000E+00
  -0.12200000E+01           0.00000000E+00
  -0.12100000E+01           0.00000000E+00
  -0.12000000E+01           0.00000000E+00
  -0.11900000E+01           0.00000000E+00
  -0.11800000E+01           0.00000000E+00
  -0.11700000E+01           0.00000000E+00
  -0.11600000E+01           0.00000000E+00
  -0.11500000E+01           0.00000000E+00
  -0.11400000E+01           0.00000000E+00
  -0.11300000E+01           0.00000000E+00
  -0.11200000E+01           0.00000000E+00
  -0.11100000E+01           0.00000000E+00
  -0.11000000E+01           0.00000000E+00
  -0.10900000E+01           0.00000000E+00
  -0.10800000E+01           0.00000000E+00
  -0.10700000E+01           0.00000000E+00
  -0.10600000E+01           0.00000000E+00
  -0.10500000E+01           0.00000000E+00
  -0.10400000E+01           0.00000000E+00
  -0.10300000E+01           0.00000000E+00
  -0.10200000E+01           0.00000000E+00
  -0.10100000E+01           0.00000000E+00
  -0.10000000E+01           0.00000000E+00
  -0.99000000E+00           0.00000000E+00
  -0.98000000E+00           0.00000000E+00
  -0.97000000E+00           0.00000000E+00
  -0.96000000E+00           0.00000000E+00
  -0.95000000E+00           0.00000000E+00
  -0.94000000E+00           0.00000000E+00
  -0.93000000E+00           0.00000000E+00
  -0.92000000E+00           0.00000000E+00
  -0.91000000E+00           0.00000000E+00
  -0.90000000E+00           0.00000000E+00
  -0.89000000E+00           0.00000000E+00
  -0.88000000E+00           0.00000000E+00
  -0.87000000E+00           0.00000000E+00
  -0.86000000E+00           0.00000000E+00
  -0.85000000E+00           0.00000000E+00
  -0.84000000E+00           0.00000000E+00
  -0.83000000E+00           0.00000000E+00
  -0.82000000E+00           0.00000000E+00
  -0.81000000E+00           0.00000000E+00
  -0.80000000E+00           0.00000000E+00
  -0.79000000E+00           0.00000000E+00
  -0.78000000E+00           0.00000000E+00
  -0.77000000E+00           0.00000000E+00
  -0.76000000E+00           0.00000000E+00
  -0.75000000E+00           0.00000000E+00
  -0.74000000E+00           0.00000000E+00
  -0.73000000E+00           0.00000000E+00
  -0.72000000E+00           0.00000000E+00
  -0.71000000E+00           0.00000000E+00
  -0.70000000E+00           0.00000000E+00
  -0.69000000E+00           0.00000000E+00
  -0.68000000E+00           0.00000000E+00
  -0.67000000E+00           0.00000000E+00
  -0.66000000E+00           0.00000000E+00
  -0.65000000E+00           0.00000000E+00
  -0.64000000E+00           0.00000000E+00
  -0.63000000E+00           0.00000000E+00
  -0.62000000E+00           0.00000000E+00
  -0.61000000E+00           0.00000000E+00
  -0.60000000E+00           0.00000000E+00
  -0.59000000E+00           0.00000000E+00
  -0.58000000E+00           0.00000000E+00
  -0.57000000E+00           0.00000000E+00
  -0.56000000E+00           0.00000000E+00
  -0.55000000E+00           0.00000000E+00
  -0.54000000E+00           0.00000000E+00
  -0.53000000E+00           0.00000000E+00
  -0.52000000E+00           0.00000000E+00
  -0.51000000E+00           0.00000000E+00
  -0.50000000E+00           0.00000000E+00
  -0.49000000E+00           0.00000000E+00
  -0.48000000E+00           0.00000000E+00
  -0.47000000E+00           0.00000000E+00
  -0.46000000E+00           0.00000000E+00
  -0.45000000E+00           0.00000000E+00
  -0.44000000E+00           0.00000000E+00
  -0.43000000E+00           0.00000000E+00
  -0.42000000E+00           0.00000000E+00
  -0.41000000E+00           0.00000000E+00
  -0.40000000E+00           0.00000000E+00
  -0.39000000E+00           0.00000000E+00
  -0.38000000E+00           0.00000000E+00
  -0.37000000E+00           0.00000000E+00
  -0.36000000E+00           0.00000000E+00
  -0.35000000E+00           0.00000000E+00
  -0.34000000E+00           0.00000000E+00
  -0.33000000E+00           0.00000000E+00
  -0.32000000E+00           0.00000000E+00
  -0.31000000E+00           0.00000000E+00
  -0.30000000E+00           0.00000000E+00
  -0.29000000E+00           0.00000000E+00
  -0.28000000E+00           0.00000000E+00
  -0.27000000E+00           0.00000000E+00
  -0.26000000E+00           0.00000000E+00
  -0.25000000E+00           0.00000000E+00
  -0.24000000E+00           0.00000000E+00
  -0.23000000E+00           0.00000000E+00
  -0.22000000E+00           0.00000000E+00
  -0.21000000E+00           0.00000000E+00
  -0.20000000E+00           0.00000000E+00
  -0.19000000E+00           0.00000000E+00
  -0.18000000E+00           0.00000000E+00
  -0.17000000E+00           0.00000000E+00
  -0.16000000E+00           0.00000000E+00
  -0.15000000E+00           0.00000000E+00
  -0.14000000E+00           0.00000000E+00
  -0.13000000E+00           0.00000000E+00
  -0.12000000E+00           0.00000000E+00
  -0.11000000E+00           0.00000000E+00
  -0.10000000E+00           0.00000000E+00
  -0.90000000E-01           0.00000000E+00
  -0.80000000E-01           0.00000000E+00
  -0.70000000E-01           0.00000000E+00
  -0.60000000E-01           0.00000000E+00
  -0.50000000E-01           0.00000000E+00
  -0.40000000E-01           0.00000000E+00
  -0.30000000E-01           0.00000000E+00
  -0.20000000E-01           0.00000000E+00
  -0.10000000E-01           0.00000000E+00
   0.00000000E+00           0.11796987E-01
   0.10000000E-01           0.95098214E-01
   0.20000000E-01           0.18958384E+00
   0.30000000E-01           0.28373100E+00
   0.40000000E-01           0.37552076E+00
   0.50000000E-01           0.46471532E+00
   0.60000000E-01           0.55265525E+00
   0.70000000E-01           0.63658172E+00
   0.80000000E-01           0.71778761E+00
   0.90000000E-01           0.79437952E+00
   0.10000000E+00           0.86693451E+00
   0.11000000E+00           0.93417034E+00
   0.12000000E+00           0.99832444E+00
   0.13000000E+00           0.10558801E+01
   0.14000000E+00           0.11095566E+01
   0.15000000E+00           0.11553424E+01
   0.16000000E+00           0.11974943E+01
   0.17000000E+00           0.12322020E+01
   0.18000000E+00           0.12632911E+01
   0.19000000E+00           0.12856822E+01
   0.20000000E+00           0.13056138E+01
   0.21000000E+00           0.13194126E+01
   0.22000000E+00           0.13269223E+01
   0.23000000E+00           0.13289464E+01
   0.24000000E+00           0.13264160E+01
   0.25000000E+00           0.13190098E+01
   0.26000000E+00           0.13060746E+01
   0.27000000E+00           0.12906105E+01
   0.28000000E+00           0.12698427E+01
   0.29000000E+00           0.12460377E+01
   0.30000000E+00           0.12183850E+01
   0.31000000E+00           0.11889568E+01
   0.32000000E+00           0.11548249E+01
   0.33000000E+00           0.11199585E+01
   0.34000000E+00           0.10822765E+01
   0.35000000E+00           0.10424351E+01
   0.36000000E+00           0.10024832E+01
   0.37000000E+00           0.96199693E+00
   0.38000000E+00           0.91892087E+00
   0.39000000E+00           0.87586607E+00
   0.40000000E+00           0.83207012E+00
   0.41000000E+00           0.79004805E+00
   0.42000000E+00           0.74724509E+00
   0.43000000E+00           0.70503239E+00
   0.44000000E+00           0.66335287E+00
   0.45000000E+00           0.62345042E+00
   0.46000000E+00           0.58369894E+00
   0.47000000E+00           0.54472355E+00
   0.48000000E+00           0.50767076E+00
   0.49000000E+00           0.47249316E+00
   0.50000000E+00           0.43754434E+00
   0.51000000E+00           0.40519255E+00
   0.52000000E+00           0.37356613E+00
   0.53000000E+00           0.34454185E+00
   0.54000000E+00           0.31567218E+00
   0.55000000E+00           0.28986069E+00
   0.56000000E+00           0.26474551E+00
   0.57000000E+00           0.24120073E+00
   0.58000000E+00           0.21965246E+00
   0.59000000E+00           0.19917109E+00
   0.60000000E+00           0.18046911E+00
   0.61000000E+00           0.16301649E+00
   0.62000000E+00           0.14694297E+00
   0.63000000E+00           0.13186529E+00
   0.64000000E+00           0.11836105E+00
   0.65000000E+00           0.10586420E+00
   0.66000000E+00           0.94555887E-01
   0.67000000E+00           0.84295145E-01
   0.68000000E+00           0.74657171E-01
   0.69000000E+00           0.66199358E-01
   0.70000000E+00           0.58412305E-01
   0.71000000E+00           0.51577874E-01
   0.72000000E+00           0.45362165E-01
   0.73000000E+00           0.39984794E-01
   0.74000000E+00           0.34876144E-01
   0.75000000E+00           0.30505776E-01
   0.76000000E+00           0.26640485E-01
   0.77000000E+00           0.23054074E-01
   0.78000000E+00           0.19942271E-01
   0.79000000E+00           0.17431334E-01
   0.80000000E+00           0.14946624E-01
   0.81000000E+00           0.12821345E-01
   0.82000000E+00           0.11043750E-01
   0.83000000E+00           0.95042132E-02
   0.84000000E+00           0.81007812E-02
   0.85000000E+00           0.68985491E-02
   0.86000000E+00           0.58660993E-02
   0.87000000E+00           0.49482422E-02
   0.88000000E+00           0.42165737E-02
   0.89000000E+00           0.35501395E-02
   0.90000000E+00           0.29511719E-02
   0.91000000E+00           0.25142578E-02
   0.92000000E+00           0.20752511E-02
   0.93000000E+00           0.17407366E-02
   0.94000000E+00           0.14551897E-02
   0.95000000E+00           0.12127232E-02
   0.96000000E+00           0.10053850E-02
   0.97000000E+00           0.82522321E-03
   0.98000000E+00           0.69559152E-03
   0.99000000E+00           0.55549665E-03
   0.10000000E+01           0.46152344E-03
   0.10100000E+01           0.38328683E-03
   0.10200000E+01           0.30672433E-03
   0.10300000E+01           0.25382254E-03
   0.10400000E+01           0.19695871E-03
   0.10500000E+01           0.15945871E-03
   0.10600000E+01           0.12776228E-03
   0.10700000E+01           0.10605469E-03
   0.10800000E+01           0.84709821E-04
   0.10900000E+01           0.68247768E-04
   0.11000000E+01           0.53487723E-04
   0.11100000E+01           0.43582589E-04
   0.11200000E+01           0.38085937E-04
   0.11300000E+01           0.24804687E-04
   0.11400000E+01           0.22042411E-04
   0.11500000E+01           0.18582589E-04
   0.11600000E+01           0.11662946E-04
   0.11700000E+01           0.10853795E-04
   0.11800000E+01           0.84263393E-05
   0.11900000E+01           0.69754464E-05
   0.12000000E+01           0.53850446E-05
   0.12100000E+01           0.25669643E-05
   0.12200000E+01           0.27622768E-05
   0.12300000E+01           0.20647321E-05
   0.12400000E+01           0.19531250E-05
   0.12500000E+01           0.13392857E-05
   0.12600000E+01           0.10881696E-05
   0.12700000E+01           0.13950893E-05
   0.12800000E+01           0.16741071E-06
   0.12900000E+01           0.33482143E-06
   0.13000000E+01           0.25111607E-06
   0.13100000E+01           0.13950893E-06
   0.13200000E+01           0.11160714E-06
   0.13300000E+01           0.39062500E-06
   0.13400000E+01           0.11160714E-06
   0.13500000E+01           0.22321429E-06
   0.13600000E+01           0.13950893E-06
   0.13700000E+01           0.22321429E-06
   0.13800000E+01           0.16741071E-06
   0.13900000E+01           0.16741071E-06
   0.14000000E+01           0.22321429E-06
   0.14100000E+01           0.36272321E-06
   0.14200000E+01           0.30691964E-06
   0.14300000E+01           0.66964286E-06
   0.14400000E+01           0.55803571E-06
   0.14500000E+01           0.17020089E-05
   0.14600000E+01           0.23995536E-05
   0.14700000E+01           0.18415179E-05
   0.14800000E+01           0.36551339E-05
   0.14900000E+01           0.57198661E-05
   0.15000000E+01           0.65569196E-05
   0.15100000E+01           0.11690848E-04
   0.15200000E+01           0.14090402E-04
   0.15300000E+01           0.19754464E-04
   0.15400000E+01           0.23577009E-04
   0.15500000E+01           0.35100446E-04
   0.15600000E+01           0.42299107E-04
   0.15700000E+01           0.63281250E-04
   0.15800000E+01           0.87527902E-04
   0.15900000E+01           0.12101004E-03
   0.16000000E+01           0.17366071E-03
   0.16100000E+01           0.22215402E-03
   0.16200000E+01           0.30357143E-03
   0.16300000E+01           0.42513951E-03
   0.16400000E+01           0.56032366E-03
   0.16500000E+01           0.76710379E-03
   0.16600000E+01           0.10283203E-02
   0.16700000E+01           0.13624721E-02
   0.16800000E+01           0.18464286E-02
   0.16900000E+01           0.25438337E-02
   0.17000000E+01           0.33304687E-02
   0.17100000E+01           0.45526786E-02
   0.17200000E+01           0.61122768E-02
   0.17300000E+01           0.81462054E-02
   0.17400000E+01           0.10923493E-01
   0.17500000E+01           0.14463895E-01
   0.17600000E+01           0.19368638E-01
   0.17700000E+01           0.25779325E-01
   0.17800000E+01           0.34350279E-01
   0.17900000E+01           0.45615541E-01
   0.18000000E+01           0.60313504E-01
   0.18100000E+01           0.80035826E-01
   0.18200000E+01           0.10579461E+00
   0.18300000E+01           0.14008359E+00
   0.18400000E+01           0.18464342E+00
   0.18500000E+01           0.24339699E+00
   0.18600000E+01           0.32054160E+00
   0.18700000E+01           0.42115628E+00
   0.18800000E+01           0.55321392E+00
   0.18900000E+01           0.72508527E+00
   0.19000000E+01           0.94839738E+00
   0.19100000E+01           0.12409932E+01
   0.19200000E+01           0.16210432E+01
   0.19300000E+01           0.21127208E+01
   0.19400000E+01           0.27529884E+01
   0.19500000E+01           0.35795677E+01
   0.19600000E+01           0.46493196E+01
   0.19700000E+01           0.60349961E+01
   0.19800000E+01           0.78145114E+01
   0.19900000E+01           0.10112713E+02
   0.20000000E+01           0.61161651E+01
 #T=     1.5000
  -0.20000000E+01           0.00000000E+00
  -0.19900000E+01           0.00000000E+00
  -0.19800000E+01           0.00000000E+00
  -0.19700000E+01           0.00000000E+00
  -0.19600000E+01           0.00000000E+00
  -0.19500000E+01           0.00000000E+00
  -0.19400000E+01           0.00000000E+00
  -0.19300000E+01           0.00000000E+00
  -0.19200000E+01           0.00000000E+00
  -0.19100000E+01           0.00000000E+00
  -0.19000000E+01           0.00000000E+00
  -0.18900000E+01           0.00000000E+00
  -0.18800000E+01           0.00000000E+00
  -0.18700000E+01           0.00000000E+00
  -0.18600000E+01           0.00000000E+00
  -0.18500000E+01           0.00000000E+00
  -0.18400000E+01           0.00000000E+00
  -0.18300000E+01           0.00000000E+00
  -0.18200000E+01           0.00000000E+00
  -0.18100000E+01           0.00000000E+00
  -0.18000000E+01           0.00000000E+00
  -0.17900000E+01           0.00000000E+00
  -0.17800000E+01           0.00000000E+00
  -0.17700000E+01           0.00000000E+00
  -0.17600000E+01           0.00000000E+00
  -0.17500000E+01           0.00000000E+00
  -0.17400000E+01           0.00000000E+00
  -0.17300000E+01           0.00000000E+00
  -0.17200000E+01           0.00000000E+00
  -0.17100000E+01           0.00000000E+00
  -0.17000000E+01           0.00000000E+00
  -0.16900000E+01           0.00000000E+00
  -0.16800000E+01           0.00000000E+00
  -0.16700000E+01           0.00000000E+00
  -0.16600000E+01           0.00000000E+00
  -0.16500000E+01           0.00000000E+00
  -0.16400000E+01           0.00000000E+00
  -0.16300000E+01           0.00000000E+00
  -0.16200000E+01           0.00000000E+00
  -0.16100000E+01           0.00000000E+00
  -0.16000000E+01           0.00000000E+00
  -0.15900000E+01           0.00000000E+00
  -0.15800000E+01           0.00000000E+00
  -0.15700000E+01           0.00000000E+00
  -0.15600000E+01           0.00000000E+00
  -0.15500000E+01           0.00000000E+00
  -0.15400000E+01           0.00000000E+00
  -0.15300000E+01           0.00000000E+00
  -0.15200000E+01           0.00000000E+00
  -0.15100000E+01           0.00000000E+00
  -0.15000000E+01           0.00000000E+00
  -0.14900000E+01           0.00000000E+00
  -0.14800000E+01           0.00000000E+00
  -0.14700000E+01           0.00000000E+00
  -0.14600000E+01           0.00000000E+00
  -0.14500000E+01           0.00000000E+00
  -0.14400000E+01           0.00000000E+00
  -0.14300000E+01           0.00000000E+00
  -0.14200000E+01           0.00000000E+00
  -0.14100000E+01           0.00000000E+00
  -0.14000000E+01           0.00000000E+00
  -0.13900000E+01           0.00000000E+00
  -0.13800000E+01           0.00000000E+00
  -0.13700000E+01           0.00000000E+00
  -0.13600000E+01           0.00000000E+00
  -0.13500000E+01           0.00000000E+00
  -0.13400000E+01           0.00000000E+00
  -0.13300000E+01           0.00000000E+00
  -0.13200000E+01           0.00000000E+00
  -0.13100000E+01           0.00000000E+00
  -0.13000000E+01           0.00000000E+00
  -0.12900000E+01           0.00000000E+00
  -0.12800000E+01           0.00000000E+00
  -0.12700000E+01           0.00000000E+00
  -0.12600000E+01           0.00000000E+00
  -0.12500000E+01           0.00000000E+00
  -0.12400000E+01           0.00000000E+00
  -0.12300000E+01           0.00000000E+00
  -0.12200000E+01           0.00000000E+00
  -0.12100000E+01           0.00000000E+00
  -0.12000000E+01           0.00000000E+00
  -0.11900000E+01           0.00000000E+00
  -0.11800000E+01           0.00000000E+00
  -0.11700000E+01           0.00000000E+00
  -0.11600000E+01           0.00000000E+00
  -0.11500000E+01           0.00000000E+00
  -0.11400000E+01           0.00000000E+00
  -0.11300000E+01           0.00000000E+00
  -0.11200000E+01           0.00000000E+00
  -0.11100000E+01           0.00000000E+00
  -0.11000000E+01           0.00000000E+00
  -0.10900000E+01           0.00000000E+00
  -0.10800000E+01           0.00000000E+00
  -0.10700000E+01           0.00000000E+00
  -0.10600000E+01           0.00000000E+00
  -0.10500000E+01           0.00000000E+00
  -0.10400000E+01           0.00000000E+00
  -0.10300000E+01           0.00000000E+00
  -0.10200000E+01           0.00000000E+00
  -0.10100000E+01           0.00000000E+00
  -0.10000000E+01           0.00000000E+00
  -0.99000000E+00           0.00000000E+00
  -0.98000000E+00           0.00000000E+00
  -0.97000000E+00           0.00000000E+00
  -0.96000000E+00           0.00000000E+00
  -0.95000000E+00           0.00000000E+00
  -0.94000000E+00           0.00000000E+00
  -0.93000000E+00           0.00000000E+00
  -0.92000000E+00           0.00000000E+00
  -0.91000000E+00           0.00000000E+00
  -0.90000000E+00           0.00000000E+00
  -0.89000000E+00           0.00000000E+00
  -0.88000000E+00           0.00000000E+00
  -0.87000000E+00           0.00000000E+00
  -0.86000000E+00           0.00000000E+00
  -0.85000000E+00           0.00000000E+00
  -0.84000000E+00           0.00000000E+00
  -0.83000000E+00           0.00000000E+00
  -0.82000000E+00           0.00000000E+00
  -0.81000000E+00           0.00000000E+00
  -0.80000000E+00           0.00000000E+00
  -0.79000000E+00           0.00000000E+00
  -0.78000000E+00           0.00000000E+00
  -0.77000000E+00           0.00000000E+00
  -0.76000000E+00           0.00000000E+00
  -0.75000000E+00           0.00000000E+00
  -0.74000000E+00           0.00000000E+00
  -0.73000000E+00           0.00000000E+00
  -0.72000000E+00           0.00000000E+00
  -0.71000000E+00           0.00000000E+00
  -0.70000000E+00           0.00000000E+00
  -0.69000000E+00           0.00000000E+00
  -0.68000000E+00           0.00000000E+00
  -0.67000000E+00           0.00000000E+00
  -0.66000000E+00           0.00000000E+00
  -0.65000000E+00           0.00000000E+00
  -0.64000000E+00           0.00000000E+00
  -0.63000000E+00           0.00000000E+00
  -0.62000000E+00           0.00000000E+00
  -0.61000000E+00           0.00000000E+00
  -0.60000000E+00           0.00000000E+00
  -0.59000000E+00           0.00000000E+00
  -0.58000000E+00           0.00000000E+00
  -0.57000000E+00           0.00000000E+00
  -0.56000000E+00           0.00000000E+00
  -0.55000000E+00           0.00000000E+00
  -0.54000000E+00           0.00000000E+00
  -0.53000000E+00           0.00000000E+00
  -0.52000000E+00           0.00000000E+00
  -0.51000000E+00           0.00000000E+00
  -0.50000000E+00           0.00000000E+00
  -0.49000000E+00           0.00000000E+00
  -0.48000000E+00           0.00000000E+00
  -0.47000000E+00           0.00000000E+00
  -0.46000000E+00           0.00000000E+00
  -0.45000000E+00           0.00000000E+00
  -0.44000000E+00           0.00000000E+00
  -0.43000000E+00           0.00000000E+00
  -0.42000000E+00           0.00000000E+00
  -0.41000000E+00           0.00000000E+00
  -0.40000000E+00           0.00000000E+00
  -0.39000000E+00           0.00000000E+00
  -0.38000000E+00           0.00000000E+00
  -0.37000000E+00           0.00000000E+00
  -0.36000000E+00           0.00000000E+00
  -0.35000000E+00           0.00000000E+00
  -0.34000000E+00           0.00000000E+00
  -0.33000000E+00           0.00000000E+00
  -0.32000000E+00           0.00000000E+00
  -0.31000000E+00           0.00000000E+00
  -0.30000000E+00           0.00000000E+00
  -0.29000000E+00           0.00000000E+00
  -0.28000000E+00           0.00000000E+00
  -0.27000000E+00           0.00000000E+00
  -0.26000000E+00           0.00000000E+00
  -0.25000000E+00           0.00000000E+00
  -0.24000000E+00           0.00000000E+00
  -0.23000000E+00           0.00000000E+00
  -0.22000000E+00           0.00000000E+00
  -0.21000000E+00           0.00000000E+00
  -0.20000000E+00           0.00000000E+00
  -0.19000000E+00           0.00000000E+00
  -0.18000000E+00           0.00000000E+00
  -0.17000000E+00           0.00000000E+00
  -0.16000000E+00           0.00000000E+00
  -0.15000000E+00           0.00000000E+00
  -0.14000000E+00           0.00000000E+00
  -0.13000000E+00           0.00000000E+00
  -0.12000000E+00           0.00000000E+00
  -0.11000000E+00           0.00000000E+00
  -0.10000000E+00           0.00000000E+00
  -0.90000000E-01           0.00000000E+00
  -0.80000000E-01           0.00000000E+00
  -0.70000000E-01           0.00000000E+00
  -0.60000000E-01           0.00000000E+00
  -0.50000000E-01           0.00000000E+00
  -0.40000000E-01           0.00000000E+00
  -0.30000000E-01           0.00000000E+00
  -0.20000000E-01           0.00000000E+00
  -0.10000000E-01           0.00000000E+00
   0.00000000E+00           0.78410993E-02
   0.10000000E-01           0.62989844E-01
   0.20000000E-01           0.12528379E+00
   0.30000000E-01           0.18825642E+00
   0.40000000E-01           0.24950949E+00
   0.50000000E-01           0.30995781E+00
   0.60000000E-01           0.36943097E+00
   0.70000000E-01           0.42726297E+00
   0.80000000E-01           0.48366420E+00
   0.90000000E-01           0.53898128E+00
   0.10000000E+00           0.59229378E+00
   0.11000000E+00           0.64236652E+00
   0.12000000E+00           0.69117905E+00
   0.13000000E+00           0.73740441E+00
   0.14000000E+00           0.78099135E+00
   0.15000000E+00           0.82164679E+00
   0.16000000E+00           0.85975709E+00
   0.17000000E+00           0.89507207E+00
   0.18000000E+00           0.92640739E+00
   0.19000000E+00           0.95608429E+00
   0.20000000E+00           0.98179944E+00
   0.21000000E+00           0.10055760E+01
   0.22000000E+00           0.10257434E+01
   0.23000000E+00           0.10425809E+01
   0.24000000E+00           0.10561690E+01
   0.25000000E+00           0.10666670E+01
   0.26000000E+00           0.10751022E+01
   0.27000000E+00           0.10807825E+01
   0.28000000E+00           0.10830581E+01
   0.29000000E+00           0.10820709E+01
   0.30000000E+00           0.10790033E+01
   0.31000000E+00           0.10730471E+01
   0.32000000E+00           0.10643727E+01
   0.33000000E+00           0.10541412E+01
   0.34000000E+00           0.10422393E+01
   0.35000000E+00           0.10266856E+01
   0.36000000E+00           0.10096971E+01
   0.37000000E+00           0.99032012E+00
   0.38000000E+00           0.97105578E+00
   0.39000000E+00           0.94919969E+00
   0.40000000E+00           0.92663281E+00
   0.41000000E+00           0.90367076E+00
   0.42000000E+00           0.87696509E+00
   0.43000000E+00           0.85152453E+00
   0.44000000E+00           0.82500483E+00
   0.45000000E+00           0.79672561E+00
   0.46000000E+00           0.76911518E+00
   0.47000000E+00           0.74102885E+00
   0.48000000E+00           0.71244699E+00
   0.49000000E+00           0.68430960E+00
   0.50000000E+00           0.65581529E+00
   0.51000000E+00           0.62670857E+00
   0.52000000E+00           0.59874969E+00
   0.53000000E+00           0.57133535E+00
   0.54000000E+00           0.54327480E+00
   0.55000000E+00           0.51611060E+00
   0.56000000E+00           0.48925831E+00
   0.57000000E+00           0.46388306E+00
   0.58000000E+00           0.43815176E+00
   0.59000000E+00           0.41316085E+00
   0.60000000E+00           0.38924224E+00
   0.61000000E+00           0.36674378E+00
   0.62000000E+00           0.34410413E+00
   0.63000000E+00           0.32282461E+00
   0.64000000E+00           0.30194224E+00
   0.65000000E+00           0.28195831E+00
   0.66000000E+00           0.26300731E+00
   0.67000000E+00           0.24520008E+00
   0.68000000E+00           0.22810020E+00
   0.69000000E+00           0.21160265E+00
   0.70000000E+00           0.19588485E+00
   0.71000000E+00           0.18117508E+00
   0.72000000E+00           0.16774076E+00
   0.73000000E+00           0.15451844E+00
   0.74000000E+00           0.14234146E+00
   0.75000000E+00           0.13098468E+00
   0.76000000E+00           0.12010725E+00
   0.77000000E+00           0.11020229E+00
   0.78000000E+00           0.10064169E+00
   0.79000000E+00           0.91782729E-01
   0.80000000E+00           0.83743220E-01
   0.81000000E+00           0.76204604E-01
   0.82000000E+00           0.69272070E-01
   0.83000000E+00           0.62765541E-01
   0.84000000E+00           0.56875670E-01
   0.85000000E+00           0.51469754E-01
   0.86000000E+00           0.46434347E-01
   0.87000000E+00           0.41864481E-01
   0.88000000E+00           0.37715960E-01
   0.89000000E+00           0.33871484E-01
   0.90000000E+00           0.30201535E-01
   0.91000000E+00           0.27072573E-01
   0.92000000E+00           0.24164202E-01
   0.93000000E+00           0.21572349E-01
   0.94000000E+00           0.19196512E-01
   0.95000000E+00           0.17072349E-01
   0.96000000E+00           0.15125419E-01
   0.97000000E+00           0.13365513E-01
   0.98000000E+00           0.11847015E-01
   0.99000000E+00           0.10447907E-01
   0.10000000E+01           0.92065290E-02
   0.10100000E+01           0.81111049E-02
   0.10200000E+01           0.70923828E-02
   0.10300000E+01           0.61873326E-02
   0.10400000E+01           0.54472656E-02
   0.10500000E+01           0.47392299E-02
   0.10600000E+01           0.41032366E-02
   0.10700000E+01           0.35630301E-02
   0.10800000E+01           0.31220145E-02
   0.10900000E+01           0.26923270E-02
   0.11000000E+01           0.23359096E-02
   0.11100000E+01           0.19915737E-02
   0.11200000E+01           0.17354353E-02
   0.11300000E+01           0.15015625E-02
   0.11400000E+01           0.12713170E-02
   0.11500000E+01           0.10839565E-02
   0.11600000E+01           0.92500000E-03
   0.11700000E+01           0.78830915E-03
   0.11800000E+01           0.67491629E-03
   0.11900000E+01           0.56749442E-03
   0.12000000E+01           0.47550223E-03
   0.12100000E+01           0.41132812E-03
   0.12200000E+01           0.34846540E-03
   0.12300000E+01           0.28828125E-03
   0.12400000E+01           0.24561942E-03
   0.12500000E+01           0.20418527E-03
   0.12600000E+01           0.16718750E-03
   0.12700000E+01           0.14628906E-03
   0.12800000E+01           0.11710379E-03
   0.12900000E+01           0.10412946E-03
   0.13000000E+01           0.89787946E-04
   0.13100000E+01           0.76060268E-04
   0.13200000E+01           0.67689732E-04
   0.13300000E+01           0.63085938E-04
   0.13400000E+01           0.59095982E-04
   0.13500000E+01           0.57114955E-04
   0.13600000E+01           0.62751116E-04
   0.13700000E+01           0.65680804E-04
   0.13800000E+01           0.75362723E-04
   0.13900000E+01           0.84151786E-04
   0.14000000E+01           0.98353795E-04
   0.14100000E+01           0.11515067E-03
   0.14200000E+01           0.14238281E-03
   0.14300000E+01           0.17070313E-03
   0.14400000E+01           0.21629464E-03
   0.14500000E+01           0.25348772E-03
   0.14600000E+01           0.32435826E-03
   0.14700000E+01           0.39729353E-03
   0.14800000E+01           0.48995536E-03
   0.14900000E+01           0.59087612E-03
   0.15000000E+01           0.74380580E-03
   0.15100000E+01           0.90379464E-03
   0.15200000E+01           0.11008650E-02
   0.15300000E+01           0.13738560E-02
   0.15400000E+01           0.16870257E-02
   0.15500000E+01           0.20800223E-02
   0.15600000E+01           0.25306083E-02
   0.15700000E+01           0.30976283E-02
   0.15800000E+01           0.37799944E-02
   0.15900000E+01           0.46367467E-02
   0.16000000E+01           0.57013393E-02
   0.16100000E+01           0.69089565E-02
   0.16200000E+01           0.84611607E-02
   0.16300000E+01           0.10308677E-01
   0.16400000E+01           0.12560603E-01
   0.16500000E+01           0.15282422E-01
   0.16600000E+01           0.18579604E-01
   0.16700000E+01           0.22563002E-01
   0.16800000E+01           0.27502539E-01
   0.16900000E+01           0.33323828E-01
   0.17000000E+01           0.40157701E-01
   0.17100000E+01           0.48774358E-01
   0.17200000E+01           0.58920898E-01
   0.17300000E+01           0.71292522E-01
   0.17400000E+01           0.86103125E-01
   0.17500000E+01           0.10380544E+00
   0.17600000E+01           0.12524523E+00
   0.17700000E+01           0.15082003E+00
   0.17800000E+01           0.18143189E+00
   0.17900000E+01           0.21797316E+00
   0.18000000E+01           0.26199425E+00
   0.18100000E+01           0.31403189E+00
   0.18200000E+01           0.37722458E+00
   0.18300000E+01           0.45121978E+00
   0.18400000E+01           0.54049378E+00
   0.18500000E+01           0.64618382E+00
   0.18600000E+01           0.77219674E+00
   0.18700000E+01           0.92228675E+00
   0.18800000E+01           0.11003822E+01
   0.18900000E+01           0.13110716E+01
   0.19000000E+01           0.15613329E+01
   0.19100000E+01           0.18572968E+01
   0.19200000E+01           0.22068795E+01
   0.19300000E+01           0.26225069E+01
   0.19400000E+01           0.31127934E+01
   0.19500000E+01           0.36882664E+01
   0.19600000E+01           0.43705532E+01
   0.19700000E+01           0.51732059E+01
   0.19800000E+01           0.61190174E+01
   0.19900000E+01           0.72293844E+01
   0.20000000E+01           0.40909275E+01
 #T=     2.0000
  -0.20000000E+01           0.00000000E+00
  -0.19900000E+01           0.00000000E+00
  -0.19800000E+01           0.00000000E+00
  -0.19700000E+01           0.00000000E+00
  -0.19600000E+01           0.00000000E+00
  -0.19500000E+01           0.00000000E+00
  -0.19400000E+01           0.00000000E+00
  -0.19300000E+01           0.00000000E+00
  -0.19200000E+01           0.00000000E+00
  -0.19100000E+01           0.00000000E+00
  -0.19000000E+01           0.00000000E+00
  -0.18900000E+01           0.00000000E+00
  -0.18800000E+01           0.00000000E+00
  -0.18700000E+01           0.00000000E+00
  -0.18600000E+01           0.00000000E+00
  -0.18500000E+01           0.00000000E+00
  -0.18400000E+01           0.00000000E+00
  -0.18300000E+01           0.00000000E+00
  -0.18200000E+01           0.00000000E+00
  -0.18100000E+01           0.00000000E+00
  -0.18000000E+01           0.00000000E+00
  -0.17900000E+01           0.00000000E+00
  -0.17800000E+01           0.00000000E+00
  -0.17700000E+01           0.00000000E+00
  -0.17600000E+01           0.00000000E+00
  -0.17500000E+01           0.00000000E+00
  -0.17400000E+01           0.00000000E+00
  -0.17300000E+01           0.00000000E+00
  -0.17200000E+01           0.00000000E+00
  -0.17100000E+01           0.00000000E+00
  -0.17000000E+01           0.00000000E+00
  -0.16900000E+01           0.00000000E+00
  -0.16800000E+01           0.00000000E+00
  -0.16700000E+01           0.00000000E+00
  -0.16600000E+01           0.00000000E+00
  -0.16500000E+01           0.00000000E+00
  -0.16400000E+01           0.00000000E+00
  -0.16300000E+01           0.00000000E+00
  -0.16200000E+01           0.00000000E+00
  -0.16100000E+01           0.00000000E+00
  -0.16000000E+01           0.00000000E+00
  -0.15900000E+01           0.00000000E+00
  -0.15800000E+01           0.00000000E+00
  -0.15700000E+01           0.00000000E+00
  -0.15600000E+01           0.00000000E+00
  -0.15500000E+01           0.00000000E+00
  -0.15400000E+01           0.00000000E+00
  -0.15300000E+01           0.00000000E+00
  -0.15200000E+01           0.00000000E+00
  -0.15100000E+01           0.00000000E+00
  -0.15000000E+01           0.00000000E+00
  -0.14900000E+01           0.00000000E+00
  -0.14800000E+01           0.00000000E+00
  -0.14700000E+01           0.00000000E+00
  -0.14600000E+01           0.00000000E+00
  -0.14500000E+01           0.00000000E+00
  -0.14400000E+01           0.00000000E+00
  -0.14300000E+01           0.00000000E+00
  -0.14200000E+01           0.00000000E+00
  -0.14100000E+01           0.00000000E+00
  -0.14000000E+01           0.00000000E+00
  -0.13900000E+01           0.00000000E+00
  -0.13800000E+01           0.00000000E+00
  -0.13700000E+01           0.00000000E+00
  -0.13600000E+01           0.00000000E+00
  -0.13500000E+01           0.00000000E+00
  -0.13400000E+01           0.00000000E+00
  -0.13300000E+01           0.00000000E+00
  -0.13200000E+01           0.00000000E+00
  -0.13100000E+01           0.00000000E+00
  -0.13000000E+01           0.00000000E+00
  -0.12900000E+01           0.00000000E+00
  -0.12800000E+01           0.00000000E+00
  -0.12700000E+01           0.00000000E+00
  -0.12600000E+01           0.00000000E+00
  -0.12500000E+01           0.00000000E+00
  -0.12400000E+01           0.00000000E+00
  -0.12300000E+01           0.00000000E+00
  -0.12200000E+01           0.00000000E+00
  -0.12100000E+01           0.00000000E+00
  -0.12000000E+01           0.00000000E+00
  -0.11900000E+01           0.00000000E+00
  -0.11800000E+01           0.00000000E+00
  -0.11700000E+01           0.00000000E+00
  -0.11600000E+01           0.00000000E+00
  -0.11500000E+01           0.00000000E+00
  -0.11400000E+01           0.00000000E+00
  -0.11300000E+01           0.00000000E+00
  -0.11200000E+01           0.00000000E+00
  -0.11100000E+01           0.00000000E+00
  -0.11000000E+01           0.00000000E+00
  -0.10900000E+01           0.00000000E+00
  -0.10800000E+01           0.00000000E+00
  -0.10700000E+01           0.00000000E+00
  -0.10600000E+01           0.00000000E+00
  -0.10500000E+01           0.00000000E+00
  -0.10400000E+01           0.00000000E+00
  -0.10300000E+01           0.00000000E+00
  -0.10200000E+01           0.00000000E+00
  -0.10100000E+01           0.00000000E+00
  -0.10000000E+01           0.00000000E+00
  -0.99000000E+00           0.00000000E+00
  -0.98000000E+00           0.00000000E+00
  -0.97000000E+00           0.00000000E+00
  -0.96000000E+00           0.00000000E+00
  -0.95000000E+00           0.00000000E+00
  -0.94000000E+00           0.00000000E+00
  -0.93000000E+00           0.00000000E+00
  -0.92000000E+00           0.00000000E+00
  -0.91000000E+00           0.00000000E+00
  -0.90000000E+00           0.00000000E+00
  -0.89000000E+00           0.00000000E+00
  -0.88000000E+00           0.00000000E+00
  -0.87000000E+00           0.00000000E+00
  -0.86000000E+00           0.00000000E+00
  -0.85000000E+00           0.00000000E+00
  -0.84000000E+00           0.00000000E+00
  -0.83000000E+00           0.00000000E+00
  -0.82000000E+00           0.00000000E+00
  -0.81000000E+00           0.00000000E+00
  -0.80000000E+00           0.00000000E+00
  -0.79000000E+00           0.00000000E+00
  -0.78000000E+00           0.00000000E+00
  -0.77000000E+00           0.00000000E+00
  -0.76000000E+00           0.00000000E+00
  -0.75000000E+00           0.00000000E+00
  -0.74000000E+00           0.00000000E+00
  -0.73000000E+00           0.00000000E+00
  -0.72000000E+00           0.00000000E+00
  -0.71000000E+00           0.00000000E+00
  -0.70000000E+00           0.00000000E+00
  -0.69000000E+00           0.00000000E+00
  -0.68000000E+00           0.00000000E+00
  -0.67000000E+00           0.00000000E+00
  -0.66000000E+00           0.00000000E+00
  -0.65000000E+00           0.00000000E+00
  -0.64000000E+00           0.00000000E+00
  -0.63000000E+00           0.00000000E+00
  -0.62000000E+00           0.00000000E+00
  -0.61000000E+00           0.00000000E+00
  -0.60000000E+00           0.00000000E+00
  -0.59000000E+00           0.00000000E+00
  -0.58000000E+00           0.00000000E+00
  -0.57000000E+00           0.00000000E+00
  -0.56000000E+00           0.00000000E+00
  -0.55000000E+00           0.00000000E+00
  -0.54000000E+00           0.00000000E+00
  -0.53000000E+00           0.00000000E+00
  -0.52000000E+00           0.00000000E+00
  -0.51000000E+00           0.00000000E+00
  -0.50000000E+00           0.00000000E+00
  -0.49000000E+00           0.00000000E+00
  -0.48000000E+00           0.00000000E+00
  -0.47000000E+00           0.00000000E+00
  -0.46000000E+00           0.00000000E+00
  -0.45000000E+00           0.00000000E+00
  -0.44000000E+00           0.00000000E+00
  -0.43000000E+00           0.00000000E+00
  -0.42000000E+00           0.00000000E+00
  -0.41000000E+00           0.00000000E+00
  -0.40000000E+00           0.00000000E+00
  -0.39000000E+00           0.00000000E+00
  -0.38000000E+00           0.00000000E+00
  -0.37000000E+00           0.00000000E+00
  -0.36000000E+00           0.00000000E+00
  -0.35000000E+00           0.00000000E+00
  -0.34000000E+00           0.00000000E+00
  -0.33000000E+00           0.00000000E+00
  -0.32000000E+00           0.00000000E+00
  -0.31000000E+00           0.00000000E+00
  -0.30000000E+00           0.00000000E+00
  -0.29000000E+00           0.00000000E+00
  -0.28000000E+00           0.00000000E+00
  -0.27000000E+00           0.00000000E+00
  -0.26000000E+00           0.00000000E+00
  -0.25000000E+00           0.00000000E+00
  -0.24000000E+00           0.00000000E+00
  -0.23000000E+00           0.00000000E+00
  -0.22000000E+00           0.00000000E+00
  -0.21000000E+00           0.00000000E+00
  -0.20000000E+00           0.00000000E+00
  -0.19000000E+00           0.00000000E+00
  -0.18000000E+00           0.00000000E+00
  -0.17000000E+00           0.00000000E+00
  -0.16000000E+00           0.00000000E+00
  -0.15000000E+00           0.00000000E+00
  -0.14000000E+00           0.00000000E+00
  -0.13000000E+00           0.00000000E+00
  -0.12000000E+00           0.00000000E+00
  -0.11000000E+00           0.00000000E+00
  -0.10000000E+00           0.00000000E+00
  -0.90000000E-01           0.00000000E+00
  -0.80000000E-01           0.00000000E+00
  -0.70000000E-01           0.00000000E+00
  -0.60000000E-01           0.00000000E+00
  -0.50000000E-01           0.00000000E+00
  -0.40000000E-01           0.00000000E+00
  -0.30000000E-01           0.00000000E+00
  -0.20000000E-01           0.00000000E+00
  -0.10000000E-01           0.00000000E+00
   0.00000000E+00           0.58600167E-02
   0.10000000E-01           0.46875307E-01
   0.20000000E-01           0.93358733E-01
   0.30000000E-01           0.13943544E+00
   0.40000000E-01           0.18545896E+00
   0.50000000E-01           0.23123887E+00
   0.60000000E-01           0.27612665E+00
   0.70000000E-01           0.32019414E+00
   0.80000000E-01           0.36301574E+00
   0.90000000E-01           0.40534528E+00
   0.10000000E+00           0.44669439E+00
   0.11000000E+00           0.48689632E+00
   0.12000000E+00           0.52522157E+00
   0.13000000E+00           0.56288192E+00
   0.14000000E+00           0.59841325E+00
   0.15000000E+00           0.63293209E+00
   0.16000000E+00           0.66552868E+00
   0.17000000E+00           0.69616392E+00
   0.18000000E+00           0.72542394E+00
   0.19000000E+00           0.75264581E+00
   0.20000000E+00           0.77777358E+00
   0.21000000E+00           0.80124406E+00
   0.22000000E+00           0.82351948E+00
   0.23000000E+00           0.84350017E+00
   0.24000000E+00           0.86121758E+00
   0.25000000E+00           0.87712879E+00
   0.26000000E+00           0.89061920E+00
   0.27000000E+00           0.90294579E+00
   0.28000000E+00           0.91300469E+00
   0.29000000E+00           0.92097093E+00
   0.30000000E+00           0.92707888E+00
   0.31000000E+00           0.93098491E+00
   0.32000000E+00           0.93387586E+00
   0.33000000E+00           0.93466956E+00
   0.34000000E+00           0.93271847E+00
   0.35000000E+00           0.93034735E+00
   0.36000000E+00           0.92645907E+00
   0.37000000E+00           0.92047958E+00
   0.38000000E+00           0.91280890E+00
   0.39000000E+00           0.90447400E+00
   0.40000000E+00           0.89356543E+00
   0.41000000E+00           0.88259400E+00
   0.42000000E+00           0.86870795E+00
   0.43000000E+00           0.85564827E+00
   0.44000000E+00           0.84095530E+00
   0.45000000E+00           0.82406482E+00
   0.46000000E+00           0.80843312E+00
   0.47000000E+00           0.79017380E+00
   0.48000000E+00           0.77177079E+00
   0.49000000E+00           0.75341228E+00
   0.50000000E+00           0.73341228E+00
   0.51000000E+00           0.71404230E+00
   0.52000000E+00           0.69334782E+00
   0.53000000E+00           0.67218267E+00
   0.54000000E+00           0.65159174E+00
   0.55000000E+00           0.63071992E+00
   0.56000000E+00           0.60949258E+00
   0.57000000E+00           0.58805753E+00
   0.58000000E+00           0.56654668E+00
   0.59000000E+00           0.54554528E+00
   0.60000000E+00           0.52409713E+00
   0.61000000E+00           0.50317525E+00
   0.62000000E+00           0.48214660E+00
   0.63000000E+00           0.46229961E+00
   0.64000000E+00           0.44182224E+00
   0.65000000E+00           0.42196574E+00
   0.66000000E+00           0.40235405E+00
   0.67000000E+00           0.38338912E+00
   0.68000000E+00           0.36492517E+00
   0.69000000E+00           0.34657838E+00
   0.70000000E+00           0.32902506E+00
   0.71000000E+00           0.31137997E+00
   0.72000000E+00           0.29503831E+00
   0.73000000E+00           0.27892924E+00
   0.74000000E+00           0.26326730E+00
   0.75000000E+00           0.24857787E+00
   0.76000000E+00           0.23391317E+00
   0.77000000E+00           0.22019180E+00
   0.78000000E+00           0.20659049E+00
   0.79000000E+00           0.19376638E+00
   0.80000000E+00           0.18186794E+00
   0.81000000E+00           0.17003876E+00
   0.82000000E+00           0.15902260E+00
   0.83000000E+00           0.14828962E+00
   0.84000000E+00           0.13817896E+00
   0.85000000E+00           0.12898786E+00
   0.86000000E+00           0.11978064E+00
   0.87000000E+00           0.11145628E+00
   0.88000000E+00           0.10339213E+00
   0.89000000E+00           0.95723493E-01
   0.90000000E+00           0.88469894E-01
   0.91000000E+00           0.81876144E-01
   0.92000000E+00           0.75475725E-01
   0.93000000E+00           0.69485658E-01
   0.94000000E+00           0.64062891E-01
   0.95000000E+00           0.58770145E-01
   0.96000000E+00           0.54027985E-01
   0.97000000E+00           0.49440681E-01
   0.98000000E+00           0.45208036E-01
   0.99000000E+00           0.41370787E-01
   0.10000000E+01           0.37813867E-01
   0.10100000E+01           0.34502902E-01
   0.10200000E+01           0.31387919E-01
   0.10300000E+01           0.28469252E-01
   0.10400000E+01           0.25943527E-01
   0.10500000E+01           0.23477762E-01
   0.10600000E+01           0.21306557E-01
   0.10700000E+01           0.19225363E-01
   0.10800000E+01           0.17383259E-01
   0.10900000E+01           0.15649023E-01
   0.11000000E+01           0.14114397E-01
   0.11100000E+01           0.12714118E-01
   0.11200000E+01           0.11333789E-01
   0.11300000E+01           0.10253544E-01
   0.11400000E+01           0.91475446E-02
   0.11500000E+01           0.82039900E-02
   0.11600000E+01           0.73136161E-02
   0.11700000E+01           0.65073382E-02
   0.11800000E+01           0.58279018E-02
   0.11900000E+01           0.51532645E-02
   0.12000000E+01           0.45691685E-02
   0.12100000E+01           0.40736607E-02
   0.12200000E+01           0.36265904E-02
   0.12300000E+01           0.32293527E-02
   0.12400000E+01           0.28549944E-02
   0.12500000E+01           0.25453125E-02
   0.12600000E+01           0.22820871E-02
   0.12700000E+01           0.20495536E-02
   0.12800000E+01           0.18522879E-02
   0.12900000E+01           0.16666574E-02
   0.13000000E+01           0.15381696E-02
   0.13100000E+01           0.14153739E-02
   0.13200000E+01           0.13655413E-02
   0.13300000E+01           0.12888672E-02
   0.13400000E+01           0.12653739E-02
   0.13500000E+01           0.12588170E-02
   0.13600000E+01           0.12942522E-02
   0.13700000E+01           0.13618025E-02
   0.13800000E+01           0.14428292E-02
   0.13900000E+01           0.15895089E-02
   0.14000000E+01           0.17566127E-02
   0.14100000E+01           0.19464565E-02
   0.14200000E+01           0.21922433E-02
   0.14300000E+01           0.25157366E-02
   0.14400000E+01           0.29086496E-02
   0.14500000E+01           0.33066964E-02
   0.14600000E+01           0.38170201E-02
   0.14700000E+01           0.44225446E-02
   0.14800000E+01           0.51629185E-02
   0.14900000E+01           0.59724609E-02
   0.15000000E+01           0.69099330E-02
   0.15100000E+01           0.80562779E-02
   0.15200000E+01           0.92891462E-02
   0.15300000E+01           0.10877762E-01
   0.15400000E+01           0.12657366E-01
   0.15500000E+01           0.14613560E-01
   0.15600000E+01           0.17007087E-01
   0.15700000E+01           0.19542383E-01
   0.15800000E+01           0.22763672E-01
   0.15900000E+01           0.26391044E-01
   0.16000000E+01           0.30483901E-01
   0.16100000E+01           0.35358036E-01
   0.16200000E+01           0.40890681E-01
   0.16300000E+01           0.47190876E-01
   0.16400000E+01           0.54446177E-01
   0.16500000E+01           0.62800753E-01
   0.16600000E+01           0.72445229E-01
   0.16700000E+01           0.83526088E-01
   0.16800000E+01           0.95940262E-01
   0.16900000E+01           0.11062564E+00
   0.17000000E+01           0.12718214E+00
   0.17100000E+01           0.14603499E+00
   0.17200000E+01           0.16772335E+00
   0.17300000E+01           0.19243638E+00
   0.17400000E+01           0.22102374E+00
   0.17500000E+01           0.25343418E+00
   0.17600000E+01           0.29007815E+00
   0.17700000E+01           0.33238998E+00
   0.17800000E+01           0.38032143E+00
   0.17900000E+01           0.43476409E+00
   0.18000000E+01           0.49699141E+00
   0.18100000E+01           0.56715360E+00
   0.18200000E+01           0.64730352E+00
   0.18300000E+01           0.73872963E+00
   0.18400000E+01           0.84135862E+00
   0.18500000E+01           0.95858290E+00
   0.18600000E+01           0.10917777E+01
   0.18700000E+01           0.12410855E+01
   0.18800000E+01           0.14114684E+01
   0.18900000E+01           0.16042932E+01
   0.19000000E+01           0.18218785E+01
   0.19100000E+01           0.20662512E+01
   0.19200000E+01           0.23459052E+01
   0.19300000E+01           0.26571687E+01
   0.19400000E+01           0.30094671E+01
   0.19500000E+01           0.34067720E+01
   0.19600000E+01           0.38548911E+01
   0.19700000E+01           0.43541165E+01
   0.19800000E+01           0.49199816E+01
   0.19900000E+01           0.55574654E+01
   0.20000000E+01           0.30396979E+01
 #T=     2.5000
  -0.20000000E+01           0.00000000E+00
  -0.19900000E+01           0.00000000E+00
  -0.19800000E+01           0.00000000E+00
  -0.19700000E+01           0.00000000E+00
  -0.19600000E+01           0.00000000E+00
  -0.19500000E+01           0.00000000E+00
  -0.19400000E+01           0.00000000E+00
  -0.19300000E+01           0.00000000E+00
  -0.19200000E+01           0.00000000E+00
  -0.19100000E+01           0.00000000E+00
  -0.19000000E+01           0.00000000E+00
  -0.18900000E+01           0.00000000E+00
  -0.18800000E+01           0.00000000E+00
  -0.18700000E+01           0.00000000E+00
  -0.18600000E+01           0.00000000E+00
  -0.18500000E+01           0.00000000E+00
  -0.18400000E+01           0.00000000E+00
  -0.18300000E+01           0.00000000E+00
  -0.18200000E+01           0.00000000E+00
  -0.18100000E+01           0.00000000E+00
  -0.18000000E+01           0.00000000E+00
  -0.17900000E+01           0.00000000E+00
  -0.17800000E+01           0.00000000E+00
  -0.17700000E+01           0.00000000E+00
  -0.17600000E+01           0.00000000E+00
  -0.17500000E+01           0.00000000E+00
  -0.17400000E+01           0.00000000E+00
  -0.17300000E+01           0.00000000E+00
  -0.17200000E+01           0.00000000E+00
  -0.17100000E+01           0.00000000E+00
  -0.17000000E+01           0.00000000E+00
  -0.16900000E+01           0.00000000E+00
  -0.16800000E+01           0.00000000E+00
  -0.16700000E+01           0.00000000E+00
  -0.16600000E+01           0.00000000E+00
  -0.16500000E+01           0.00000000E+00
  -0.16400000E+01           0.00000000E+00
  -0.16300000E+01           0.00000000E+00
  -0.16200000E+01           0.00000000E+00
  -0.16100000E+01           0.00000000E+00
  -0.16000000E+01           0.00000000E+00
  -0.15900000E+01           0.00000000E+00
  -0.15800000E+01           0.00000000E+00
  -0.15700000E+01           0.00000000E+00
  -0.15600000E+01           0.00000000E+00
  -0.15500000E+01           0.00000000E+00
  -0.15400000E+01           0.00000000E+00
  -0.15300000E+01           0.00000000E+00
  -0.15200000E+01           0.00000000E+00
  -0.15100000E+01           0.00000000E+00
  -0.15000000E+01           0.00000000E+00
  -0.14900000E+01           0.00000000E+00
  -0.14800000E+01           0.00000000E+00
  -0.14700000E+01           0.00000000E+00
  -0.14600000E+01           0.00000000E+00
  -0.14500000E+01           0.00000000E+00
  -0.14400000E+01           0.00000000E+00
  -0.14300000E+01           0.00000000E+00
  -0.14200000E+01           0.00000000E+00
  -0.14100000E+01           0.00000000E+00
  -0.14000000E+01           0.00000000E+00
  -0.13900000E+01           0.00000000E+00
  -0.13800000E+01           0.00000000E+00
  -0.13700000E+01           0.00000000E+00
  -0.13600000E+01           0.00000000E+00
  -0.13500000E+01           0.00000000E+00
  -0.13400000E+01           0.00000000E+00
  -0.13300000E+01           0.00000000E+00
  -0.13200000E+01           0.00000000E+00
  -0.13100000E+01           0.00000000E+00
  -0.13000000E+01           0.00000000E+00
  -0.12900000E+01           0.00000000E+00
  -0.12800000E+01           0.00000000E+00
  -0.12700000E+01           0.00000000E+00
  -0.12600000E+01           0.00000000E+00
  -0.12500000E+01           0.00000000E+00
  -0.12400000E+01           0.00000000E+00
  -0.12300000E+01           0.00000000E+00
  -0.12200000E+01           0.00000000E+00
  -0.12100000E+01           0.00000000E+00
  -0.12000000E+01           0.00000000E+00
  -0.11900000E+01           0.00000000E+00
  -0.11800000E+01           0.00000000E+00
  -0.11700000E+01           0.00000000E+00
  -0.11600000E+01           0.00000000E+00
  -0.11500000E+01           0.00000000E+00
  -0.11400000E+01           0.00000000E+00
  -0.11300000E+01           0.00000000E+00
  -0.11200000E+01           0.00000000E+00
  -0.11100000E+01           0.00000000E+00
  -0.11000000E+01           0.00000000E+00
  -0.10900000E+01           0.00000000E+00
  -0.10800000E+01           0.00000000E+00
  -0.10700000E+01           0.00000000E+00
  -0.10600000E+01           0.00000000E+00
  -0.10500000E+01           0.00000000E+00
  -0.10400000E+01           0.00000000E+00
  -0.10300000E+01           0.00000000E+00
  -0.10200000E+01           0.00000000E+00
  -0.10100000E+01           0.00000000E+00
  -0.10000000E+01           0.00000000E+00
  -0.99000000E+00           0.00000000E+00
  -0.98000000E+00           0.00000000E+00
  -0.97000000E+00           0.00000000E+00
  -0.96000000E+00           0.00000000E+00
  -0.95000000E+00           0.00000000E+00
  -0.94000000E+00           0.00000000E+00
  -0.93000000E+00           0.00000000E+00
  -0.92000000E+00           0.00000000E+00
  -0.91000000E+00           0.00000000E+00
  -0.90000000E+00           0.00000000E+00
  -0.89000000E+00           0.00000000E+00
  -0.88000000E+00           0.00000000E+00
  -0.87000000E+00           0.00000000E+00
  -0.86000000E+00           0.00000000E+00
  -0.85000000E+00           0.00000000E+00
  -0.84000000E+00           0.00000000E+00
  -0.83000000E+00           0.00000000E+00
  -0.82000000E+00           0.00000000E+00
  -0.81000000E+00           0.00000000E+00
  -0.80000000E+00           0.00000000E+00
  -0.79000000E+00           0.00000000E+00
  -0.78000000E+00           0.00000000E+00
  -0.77000000E+00           0.00000000E+00
  -0.76000000E+00           0.00000000E+00
  -0.75000000E+00           0.00000000E+00
  -0.74000000E+00           0.00000000E+00
  -0.73000000E+00           0.00000000E+00
  -0.72000000E+00           0.00000000E+00
  -0.71000000E+00           0.00000000E+00
  -0.70000000E+00           0.00000000E+00
  -0.69000000E+00           0.00000000E+00
  -0.68000000E+00           0.00000000E+00
  -0.67000000E+00           0.00000000E+00
  -0.66000000E+00           0.00000000E+00
  -0.65000000E+00           0.00000000E+00
  -0.64000000E+00           0.00000000E+00
  -0.63000000E+00           0.00000000E+00
  -0.62000000E+00           0.00000000E+00
  -0.61000000E+00           0.00000000E+00
  -0.60000000E+00           0.00000000E+00
  -0.59000000E+00           0.00000000E+00
  -0.58000000E+00           0.00000000E+00
  -0.57000000E+00           0.00000000E+00
  -0.56000000E+00           0.00000000E+00
  -0.55000000E+00           0.00000000E+00
  -0.54000000E+00           0.00000000E+00
  -0.53000000E+00           0.00000000E+00
  -0.52000000E+00           0.00000000E+00
  -0.51000000E+00           0.00000000E+00
  -0.50000000E+00           0.00000000E+00
  -0.49000000E+00           0.00000000E+00
  -0.48000000E+00           0.00000000E+00
  -0.47000000E+00           0.00000000E+00
  -0.46000000E+00           0.00000000E+00
  -0.45000000E+00           0.00000000E+00
  -0.44000000E+00           0.00000000E+00
  -0.43000000E+00           0.00000000E+00
  -0.42000000E+00           0.00000000E+00
  -0.41000000E+00           0.00000000E+00
  -0.40000000E+00           0.00000000E+00
  -0.39000000E+00           0.00000000E+00
  -0.38000000E+00           0.00000000E+00
  -0.37000000E+00           0.00000000E+00
  -0.36000000E+00           0.00000000E+00
  -0.35000000E+00           0.00000000E+00
  -0.34000000E+00           0.00000000E+00
  -0.33000000E+00           0.00000000E+00
  -0.32000000E+00           0.00000000E+00
  -0.31000000E+00           0.00000000E+00
  -0.30000000E+00           0.00000000E+00
  -0.29000000E+00           0.00000000E+00
  -0.28000000E+00           0.00000000E+00
  -0.27000000E+00           0.00000000E+00
  -0.26000000E+00           0.00000000E+00
  -0.25000000E+00           0.00000000E+00
  -0.24000000E+00           0.00000000E+00
  -0.23000000E+00           0.00000000E+00
  -0.22000000E+00           0.00000000E+00
  -0.21000000E+00           0.00000000E+00
  -0.20000000E+00           0.00000000E+00
  -0.19000000E+00           0.00000000E+00
  -0.18000000E+00           0.00000000E+00
  -0.17000000E+00           0.00000000E+00
  -0.16000000E+00           0.00000000E+00
  -0.15000000E+00           0.00000000E+00
  -0.14000000E+00           0.00000000E+00
  -0.13000000E+00           0.00000000E+00
  -0.12000000E+00           0.00000000E+00
  -0.11000000E+00           0.00000000E+00
  -0.10000000E+00           0.00000000E+00
  -0.90000000E-01           0.00000000E+00
  -0.80000000E-01           0.00000000E+00
  -0.70000000E-01           0.00000000E+00
  -0.60000000E-01           0.00000000E+00
  -0.50000000E-01           0.00000000E+00
  -0.40000000E-01           0.00000000E+00
  -0.30000000E-01           0.00000000E+00
  -0.20000000E-01           0.00000000E+00
  -0.10000000E-01           0.00000000E+00
   0.00000000E+00           0.46276228E-02
   0.10000000E-01           0.36922545E-01
   0.20000000E-01           0.73974777E-01
   0.30000000E-01           0.11077801E+00
   0.40000000E-01           0.14707358E+00
   0.50000000E-01           0.18337801E+00
   0.60000000E-01           0.21891688E+00
   0.70000000E-01           0.25428756E+00
   0.80000000E-01           0.28924294E+00
   0.90000000E-01           0.32364129E+00
   0.10000000E+00           0.35718747E+00
   0.11000000E+00           0.38978730E+00
   0.12000000E+00           0.42148742E+00
   0.13000000E+00           0.45284953E+00
   0.14000000E+00           0.48292542E+00
   0.15000000E+00           0.51166403E+00
   0.16000000E+00           0.54021590E+00
   0.17000000E+00           0.56654860E+00
   0.18000000E+00           0.59253139E+00
   0.19000000E+00           0.61716465E+00
   0.20000000E+00           0.64064383E+00
   0.21000000E+00           0.66255312E+00
   0.22000000E+00           0.68308309E+00
   0.23000000E+00           0.70290449E+00
   0.24000000E+00           0.72076596E+00
   0.25000000E+00           0.73776309E+00
   0.26000000E+00           0.75342422E+00
   0.27000000E+00           0.76718761E+00
   0.28000000E+00           0.78065806E+00
   0.29000000E+00           0.79131761E+00
   0.30000000E+00           0.80130145E+00
   0.31000000E+00           0.80944824E+00
   0.32000000E+00           0.81711895E+00
   0.33000000E+00           0.82289886E+00
   0.34000000E+00           0.82740552E+00
   0.35000000E+00           0.83040494E+00
   0.36000000E+00           0.83208454E+00
   0.37000000E+00           0.83281741E+00
   0.38000000E+00           0.83234503E+00
   0.39000000E+00           0.83032174E+00
   0.40000000E+00           0.82770469E+00
   0.41000000E+00           0.82382243E+00
   0.42000000E+00           0.81836281E+00
   0.43000000E+00           0.81159738E+00
   0.44000000E+00           0.80480212E+00
   0.45000000E+00           0.79636381E+00
   0.46000000E+00           0.78770871E+00
   0.47000000E+00           0.77784849E+00
   0.48000000E+00           0.76698086E+00
   0.49000000E+00           0.75467204E+00
[...]
   0.13800000E+01           0.68374004E+00
   0.13900000E+01           0.68523823E+00
   0.14000000E+01           0.68599810E+00
   0.14100000E+01           0.68706621E+00
   0.14200000E+01           0.68785745E+00
   0.14300000E+01           0.68848013E+00
   0.14400000E+01           0.68936936E+00
   0.14500000E+01           0.69013571E+00
   0.14600000E+01           0.69068415E+00
   0.14700000E+01           0.69070778E+00
   0.14800000E+01           0.69103415E+00
   0.14900000E+01           0.69197179E+00
   0.15000000E+01           0.69242564E+00
   0.15100000E+01           0.69250151E+00
   0.15200000E+01           0.69239623E+00
   0.15300000E+01           0.69257475E+00
   0.15400000E+01           0.69298856E+00
   0.15500000E+01           0.69286518E+00
   0.15600000E+01           0.69285008E+00
   0.15700000E+01           0.69265765E+00
   0.15800000E+01           0.69295254E+00
   0.15900000E+01           0.69254774E+00
   0.16000000E+01           0.69209634E+00
   0.16100000E+01           0.69192547E+00
   0.16200000E+01           0.69150993E+00
   0.16300000E+01           0.69107168E+00
   0.16400000E+01           0.69077835E+00
   0.16500000E+01           0.69014300E+00
   0.16600000E+01           0.68973951E+00
   0.16700000E+01           0.68918624E+00
   0.16800000E+01           0.68834972E+00
   0.16900000E+01           0.68756007E+00
   0.17000000E+01           0.68668290E+00
   0.17100000E+01           0.68600617E+00
   0.17200000E+01           0.68518491E+00
   0.17300000E+01           0.68415315E+00
   0.17400000E+01           0.68336741E+00
   0.17500000E+01           0.68219897E+00
   0.17600000E+01           0.68122157E+00
   0.17700000E+01           0.67987243E+00
   0.17800000E+01           0.67892453E+00
   0.17900000E+01           0.67736830E+00
   0.18000000E+01           0.67632054E+00
   0.18100000E+01           0.67510831E+00
   0.18200000E+01           0.67367522E+00
   0.18300000E+01           0.67244908E+00
   0.18400000E+01           0.67068376E+00
   0.18500000E+01           0.66957129E+00
   0.18600000E+01           0.66783884E+00
   0.18700000E+01           0.66632539E+00
   0.18800000E+01           0.66465103E+00
   0.18900000E+01           0.66273158E+00
   0.19000000E+01           0.66116445E+00
   0.19100000E+01           0.65920700E+00
   0.19200000E+01           0.65788772E+00
   0.19300000E+01           0.65563521E+00
   0.19400000E+01           0.65393379E+00
   0.19500000E+01           0.65214964E+00
   0.19600000E+01           0.65014807E+00
   0.19700000E+01           0.64796384E+00
   0.19800000E+01           0.64599512E+00
   0.19900000E+01           0.64414858E+00
   0.20000000E+01           0.32112913E+00
 #T=    20.0000
  -0.20000000E+01           0.00000000E+00
  -0.19900000E+01           0.00000000E+00
  -0.19800000E+01           0.00000000E+00
  -0.19700000E+01           0.00000000E+00
  -0.19600000E+01           0.00000000E+00
  -0.19500000E+01           0.00000000E+00
  -0.19400000E+01           0.00000000E+00
  -0.19300000E+01           0.00000000E+00
  -0.19200000E+01           0.00000000E+00
  -0.19100000E+01           0.00000000E+00
  -0.19000000E+01           0.00000000E+00
  -0.18900000E+01           0.00000000E+00
  -0.18800000E+01           0.00000000E+00
  -0.18700000E+01           0.00000000E+00
  -0.18600000E+01           0.00000000E+00
  -0.18500000E+01           0.00000000E+00
  -0.18400000E+01           0.00000000E+00
  -0.18300000E+01           0.00000000E+00
  -0.18200000E+01           0.00000000E+00
  -0.18100000E+01           0.00000000E+00
  -0.18000000E+01           0.00000000E+00
  -0.17900000E+01           0.00000000E+00
  -0.17800000E+01           0.00000000E+00
  -0.17700000E+01           0.00000000E+00
  -0.17600000E+01           0.00000000E+00
  -0.17500000E+01           0.00000000E+00
  -0.17400000E+01           0.00000000E+00
  -0.17300000E+01           0.00000000E+00
  -0.17200000E+01           0.00000000E+00
  -0.17100000E+01           0.00000000E+00
  -0.17000000E+01           0.00000000E+00
  -0.16900000E+01           0.00000000E+00
  -0.16800000E+01           0.00000000E+00
  -0.16700000E+01           0.00000000E+00
  -0.16600000E+01           0.00000000E+00
  -0.16500000E+01           0.00000000E+00
  -0.16400000E+01           0.00000000E+00
  -0.16300000E+01           0.00000000E+00
  -0.16200000E+01           0.00000000E+00
  -0.16100000E+01           0.00000000E+00
  -0.16000000E+01           0.00000000E+00
  -0.15900000E+01           0.00000000E+00
  -0.15800000E+01           0.00000000E+00
  -0.15700000E+01           0.00000000E+00
  -0.15600000E+01           0.00000000E+00
  -0.15500000E+01           0.00000000E+00
  -0.15400000E+01           0.00000000E+00
  -0.15300000E+01           0.00000000E+00
  -0.15200000E+01           0.00000000E+00
  -0.15100000E+01           0.00000000E+00
  -0.15000000E+01           0.00000000E+00
  -0.14900000E+01           0.00000000E+00
  -0.14800000E+01           0.00000000E+00
  -0.14700000E+01           0.00000000E+00
  -0.14600000E+01           0.00000000E+00
  -0.14500000E+01           0.00000000E+00
  -0.14400000E+01           0.00000000E+00
  -0.14300000E+01           0.00000000E+00
  -0.14200000E+01           0.00000000E+00
  -0.14100000E+01           0.00000000E+00
  -0.14000000E+01           0.00000000E+00
  -0.13900000E+01           0.00000000E+00
  -0.13800000E+01           0.00000000E+00
  -0.13700000E+01           0.00000000E+00
  -0.13600000E+01           0.00000000E+00
  -0.13500000E+01           0.00000000E+00
  -0.13400000E+01           0.00000000E+00
  -0.13300000E+01           0.00000000E+00
  -0.13200000E+01           0.00000000E+00
  -0.13100000E+01           0.00000000E+00
  -0.13000000E+01           0.00000000E+00
  -0.12900000E+01           0.00000000E+00
  -0.12800000E+01           0.00000000E+00
  -0.12700000E+01           0.00000000E+00
  -0.12600000E+01           0.00000000E+00
  -0.12500000E+01           0.00000000E+00
  -0.12400000E+01           0.00000000E+00
  -0.12300000E+01           0.00000000E+00
  -0.12200000E+01           0.00000000E+00
  -0.12100000E+01           0.00000000E+00
  -0.12000000E+01           0.00000000E+00
  -0.11900000E+01           0.00000000E+00
  -0.11800000E+01           0.00000000E+00
  -0.11700000E+01           0.00000000E+00
  -0.11600000E+01           0.00000000E+00
  -0.11500000E+01           0.00000000E+00
  -0.11400000E+01           0.00000000E+00
  -0.11300000E+01           0.00000000E+00
  -0.11200000E+01           0.00000000E+00
  -0.11100000E+01           0.00000000E+00
  -0.11000000E+01           0.00000000E+00
  -0.10900000E+01           0.00000000E+00
  -0.10800000E+01           0.00000000E+00
  -0.10700000E+01           0.00000000E+00
  -0.10600000E+01           0.00000000E+00
  -0.10500000E+01           0.00000000E+00
  -0.10400000E+01           0.00000000E+00
  -0.10300000E+01           0.00000000E+00
  -0.10200000E+01           0.00000000E+00
  -0.10100000E+01           0.00000000E+00
  -0.10000000E+01           0.00000000E+00
  -0.99000000E+00           0.00000000E+00
  -0.98000000E+00           0.00000000E+00
  -0.97000000E+00           0.00000000E+00
  -0.96000000E+00           0.00000000E+00
  -0.95000000E+00           0.00000000E+00
  -0.94000000E+00           0.00000000E+00
  -0.93000000E+00           0.00000000E+00
  -0.92000000E+00           0.00000000E+00
  -0.91000000E+00           0.00000000E+00
  -0.90000000E+00           0.00000000E+00
  -0.89000000E+00           0.00000000E+00
  -0.88000000E+00           0.00000000E+00
  -0.87000000E+00           0.00000000E+00
  -0.86000000E+00           0.00000000E+00
  -0.85000000E+00           0.00000000E+00
  -0.84000000E+00           0.00000000E+00
  -0.83000000E+00           0.00000000E+00
  -0.82000000E+00           0.00000000E+00
  -0.81000000E+00           0.00000000E+00
  -0.80000000E+00           0.00000000E+00
  -0.79000000E+00           0.00000000E+00
  -0.78000000E+00           0.00000000E+00
  -0.77000000E+00           0.00000000E+00
  -0.76000000E+00           0.00000000E+00
  -0.75000000E+00           0.00000000E+00
  -0.74000000E+00           0.00000000E+00
  -0.73000000E+00           0.00000000E+00
  -0.72000000E+00           0.00000000E+00
  -0.71000000E+00           0.00000000E+00
  -0.70000000E+00           0.00000000E+00
  -0.69000000E+00           0.00000000E+00
  -0.68000000E+00           0.00000000E+00
  -0.67000000E+00           0.00000000E+00
  -0.66000000E+00           0.00000000E+00
  -0.65000000E+00           0.00000000E+00
  -0.64000000E+00           0.00000000E+00
  -0.63000000E+00           0.00000000E+00
  -0.62000000E+00           0.00000000E+00
  -0.61000000E+00           0.00000000E+00
  -0.60000000E+00           0.00000000E+00
  -0.59000000E+00           0.00000000E+00
  -0.58000000E+00           0.00000000E+00
  -0.57000000E+00           0.00000000E+00
  -0.56000000E+00           0.00000000E+00
  -0.55000000E+00           0.00000000E+00
  -0.54000000E+00           0.00000000E+00
  -0.53000000E+00           0.00000000E+00
  -0.52000000E+00           0.00000000E+00
  -0.51000000E+00           0.00000000E+00
  -0.50000000E+00           0.00000000E+00
  -0.49000000E+00           0.00000000E+00
  -0.48000000E+00           0.00000000E+00
  -0.47000000E+00           0.00000000E+00
  -0.46000000E+00           0.00000000E+00
  -0.45000000E+00           0.00000000E+00
  -0.44000000E+00           0.00000000E+00
  -0.43000000E+00           0.00000000E+00
  -0.42000000E+00           0.00000000E+00
  -0.41000000E+00           0.00000000E+00
  -0.40000000E+00           0.00000000E+00
  -0.39000000E+00           0.00000000E+00
  -0.38000000E+00           0.00000000E+00
  -0.37000000E+00           0.00000000E+00
  -0.36000000E+00           0.00000000E+00
  -0.35000000E+00           0.00000000E+00
  -0.34000000E+00           0.00000000E+00
  -0.33000000E+00           0.00000000E+00
  -0.32000000E+00           0.00000000E+00
  -0.31000000E+00           0.00000000E+00
  -0.30000000E+00           0.00000000E+00
  -0.29000000E+00           0.00000000E+00
  -0.28000000E+00           0.00000000E+00
  -0.27000000E+00           0.00000000E+00
  -0.26000000E+00           0.00000000E+00
  -0.25000000E+00           0.00000000E+00
  -0.24000000E+00           0.00000000E+00
  -0.23000000E+00           0.00000000E+00
  -0.22000000E+00           0.00000000E+00
  -0.21000000E+00           0.00000000E+00
  -0.20000000E+00           0.00000000E+00
  -0.19000000E+00           0.00000000E+00
  -0.18000000E+00           0.00000000E+00
  -0.17000000E+00           0.00000000E+00
  -0.16000000E+00           0.00000000E+00
  -0.15000000E+00           0.00000000E+00
  -0.14000000E+00           0.00000000E+00
  -0.13000000E+00           0.00000000E+00
  -0.12000000E+00           0.00000000E+00
  -0.11000000E+00           0.00000000E+00
  -0.10000000E+00           0.00000000E+00
  -0.90000000E-01           0.00000000E+00
  -0.80000000E-01           0.00000000E+00
  -0.70000000E-01           0.00000000E+00
  -0.60000000E-01           0.00000000E+00
  -0.50000000E-01           0.00000000E+00
  -0.40000000E-01           0.00000000E+00
  -0.30000000E-01           0.00000000E+00
  -0.20000000E-01           0.00000000E+00
  -0.10000000E-01           0.00000000E+00
   0.00000000E+00           0.91074219E-03
   0.10000000E-01           0.72996373E-02
   0.20000000E-01           0.14623661E-01
   0.30000000E-01           0.21913532E-01
   0.40000000E-01           0.29222377E-01
   0.50000000E-01           0.36588365E-01
   0.60000000E-01           0.43882589E-01
   0.70000000E-01           0.51156585E-01
   0.80000000E-01           0.58436356E-01
   0.90000000E-01           0.65836942E-01
   0.10000000E+00           0.72999107E-01
   0.11000000E+00           0.80403348E-01
   0.12000000E+00           0.87495117E-01
   0.13000000E+00           0.94846261E-01
   0.14000000E+00           0.10197500E+00
   0.15000000E+00           0.10929004E+00
   0.16000000E+00           0.11645728E+00
   0.17000000E+00           0.12359406E+00
   0.18000000E+00           0.13086825E+00
   0.19000000E+00           0.13795882E+00
   0.20000000E+00           0.14514969E+00
   0.21000000E+00           0.15222372E+00
   0.22000000E+00           0.15934849E+00
   0.23000000E+00           0.16643775E+00
   0.24000000E+00           0.17363842E+00
   0.25000000E+00           0.18057461E+00
   0.26000000E+00           0.18757751E+00
   0.27000000E+00           0.19463920E+00
   0.28000000E+00           0.20166761E+00
   0.29000000E+00           0.20870377E+00
   0.30000000E+00           0.21543591E+00
   0.31000000E+00           0.22254032E+00
   0.32000000E+00           0.22944916E+00
   0.33000000E+00           0.23628915E+00
   0.34000000E+00           0.24304174E+00
   0.35000000E+00           0.24978772E+00
   0.36000000E+00           0.25660159E+00
   0.37000000E+00           0.26318002E+00
   0.38000000E+00           0.26987305E+00
   0.39000000E+00           0.27665996E+00
   0.40000000E+00           0.28321758E+00
   0.41000000E+00           0.28988016E+00
   0.42000000E+00           0.29643239E+00
   0.43000000E+00           0.30311758E+00
   0.44000000E+00           0.30931953E+00
   0.45000000E+00           0.31621007E+00
   0.46000000E+00           0.32248518E+00
   0.47000000E+00           0.32875223E+00
   0.48000000E+00           0.33494116E+00
   0.49000000E+00           0.34142628E+00
   0.50000000E+00           0.34756205E+00
   0.51000000E+00           0.35390446E+00
   0.52000000E+00           0.36009534E+00
   0.53000000E+00           0.36625773E+00
   0.54000000E+00           0.37238471E+00
   0.55000000E+00           0.37844375E+00
   0.56000000E+00           0.38423262E+00
   0.57000000E+00           0.39030617E+00
   0.58000000E+00           0.39638320E+00
   0.59000000E+00           0.40204874E+00
   0.60000000E+00           0.40793867E+00
   0.61000000E+00           0.41350193E+00
   0.62000000E+00           0.41951696E+00
   0.63000000E+00           0.42524715E+00
   0.64000000E+00           0.43081468E+00
   0.65000000E+00           0.43653730E+00
   0.66000000E+00           0.44187614E+00
   0.67000000E+00           0.44746490E+00
   0.68000000E+00           0.45286342E+00
   0.69000000E+00           0.45825391E+00
   0.70000000E+00           0.46348563E+00
   0.71000000E+00           0.46864526E+00
   0.72000000E+00           0.47412028E+00
   0.73000000E+00           0.47910798E+00
   0.74000000E+00           0.48423312E+00
   0.75000000E+00           0.48936649E+00
   0.76000000E+00           0.49430070E+00
   0.77000000E+00           0.49940014E+00
   0.78000000E+00           0.50407425E+00
   0.79000000E+00           0.50891537E+00
   0.80000000E+00           0.51360499E+00
   0.81000000E+00           0.51836925E+00
   0.82000000E+00           0.52301822E+00
   0.83000000E+00           0.52763323E+00
   0.84000000E+00           0.53226325E+00
   0.85000000E+00           0.53643775E+00
   0.86000000E+00           0.54123365E+00
   0.87000000E+00           0.54534930E+00
   0.88000000E+00           0.54969584E+00
   0.89000000E+00           0.55418287E+00
   0.90000000E+00           0.55818803E+00
   0.91000000E+00           0.56239143E+00
   0.92000000E+00           0.56647740E+00
   0.93000000E+00           0.57038926E+00
   0.94000000E+00           0.57453320E+00
   0.95000000E+00           0.57821378E+00
   0.96000000E+00           0.58232734E+00
   0.97000000E+00           0.58580449E+00
   0.98000000E+00           0.58931858E+00
   0.99000000E+00           0.59314674E+00
   0.10000000E+01           0.59669436E+00
   0.10100000E+01           0.60031429E+00
   0.10200000E+01           0.60352199E+00
   0.10300000E+01           0.60702218E+00
   0.10400000E+01           0.61049534E+00
   0.10500000E+01           0.61345558E+00
   0.10600000E+01           0.61653809E+00
   0.10700000E+01           0.61970396E+00
   0.10800000E+01           0.62293563E+00
   0.10900000E+01           0.62562450E+00
   0.11000000E+01           0.62864626E+00
   0.11100000E+01           0.63160145E+00
   0.11200000E+01           0.63441682E+00
   0.11300000E+01           0.63702726E+00
   0.11400000E+01           0.63981069E+00
   0.11500000E+01           0.64226688E+00
   0.11600000E+01           0.64482807E+00
   0.11700000E+01           0.64748848E+00
   0.11800000E+01           0.64992637E+00
   0.11900000E+01           0.65224171E+00
   0.12000000E+01           0.65459554E+00
   0.12100000E+01           0.65650123E+00
   0.12200000E+01           0.65882573E+00
   0.12300000E+01           0.66095100E+00
   0.12400000E+01           0.66279484E+00
   0.12500000E+01           0.66478742E+00
   0.12600000E+01           0.66645929E+00
   0.12700000E+01           0.66876013E+00
   0.12800000E+01           0.67039238E+00
   0.12900000E+01           0.67182447E+00
   0.13000000E+01           0.67350921E+00
   0.13100000E+01           0.67527729E+00
   0.13200000E+01           0.67698795E+00
   0.13300000E+01           0.67822201E+00
   0.13400000E+01           0.67937877E+00
   0.13500000E+01           0.68082003E+00
   0.13600000E+01           0.68205014E+00
   0.13700000E+01           0.68328624E+00
   0.13800000E+01           0.68433677E+00
   0.13900000E+01           0.68553761E+00
   0.14000000E+01           0.68686624E+00
   0.14100000E+01           0.68762930E+00
   0.14200000E+01           0.68804478E+00
   0.14300000E+01           0.68918491E+00
   0.14400000E+01           0.68987988E+00
   0.14500000E+01           0.69053172E+00
   0.14600000E+01           0.69143474E+00
   0.14700000E+01           0.69182623E+00
   0.14800000E+01           0.69233368E+00
   0.14900000E+01           0.69273809E+00
   0.15000000E+01           0.69328016E+00
   0.15100000E+01           0.69341652E+00
   0.15200000E+01           0.69374503E+00
   0.15300000E+01           0.69426761E+00
   0.15400000E+01           0.69401381E+00
   0.15500000E+01           0.69462079E+00
   0.15600000E+01           0.69444456E+00
   0.15700000E+01           0.69423652E+00
   0.15800000E+01           0.69440664E+00
   0.15900000E+01           0.69407372E+00
   0.16000000E+01           0.69421415E+00
   0.16100000E+01           0.69372483E+00
   0.16200000E+01           0.69361928E+00
   0.16300000E+01           0.69308903E+00
   0.16400000E+01           0.69280684E+00
   0.16500000E+01           0.69242207E+00
   0.16600000E+01           0.69200463E+00
   0.16700000E+01           0.69143209E+00
   0.16800000E+01           0.69051685E+00
   0.16900000E+01           0.69017701E+00
   0.17000000E+01           0.68952614E+00
   0.17100000E+01           0.68863493E+00
   0.17200000E+01           0.68782866E+00
   0.17300000E+01           0.68691261E+00
   0.17400000E+01           0.68574294E+00
   0.17500000E+01           0.68499626E+00
   0.17600000E+01           0.68384350E+00
   0.17700000E+01           0.68276010E+00
   0.17800000E+01           0.68191437E+00
   0.17900000E+01           0.68049874E+00
   0.18000000E+01           0.67928404E+00
   0.18100000E+01           0.67824964E+00
   0.18200000E+01           0.67674291E+00
   0.18300000E+01           0.67555787E+00
   0.18400000E+01           0.67414936E+00
   0.18500000E+01           0.67306052E+00
   0.18600000E+01           0.67104939E+00
   0.18700000E+01           0.66971066E+00
   0.18800000E+01           0.66823245E+00
   0.18900000E+01           0.66670240E+00
   0.19000000E+01           0.66519791E+00
   0.19100000E+01           0.66295338E+00
   0.19200000E+01           0.66150374E+00
   0.19300000E+01           0.65972307E+00
   0.19400000E+01           0.65785564E+00
   0.19500000E+01           0.65610636E+00
   0.19600000E+01           0.65424813E+00
   0.19700000E+01           0.65203549E+00
   0.19800000E+01           0.65026116E+00
   0.19900000E+01           0.64819481E+00
   0.20000000E+01           0.32346186E+00
