 #written on 11Aug2024 at 08:10:10 
 #----------------- MONTECARLO -------------------#
 #        M                      P(M)             #
 #------------------------------------------------#
 #T=   200.0000
  -0.40000000E+01           0.00000000E+00
  -0.39900000E+01           0.00000000E+00
  -0.39800000E+01           0.00000000E+00
  -0.39700000E+01           0.00000000E+00
  -0.39600000E+01           0.00000000E+00
  -0.39500000E+01           0.00000000E+00
  -0.39400000E+01           0.00000000E+00
  -0.39300000E+01           0.00000000E+00
  -0.39200000E+01           0.00000000E+00
  -0.39100000E+01           0.00000000E+00
  -0.39000000E+01           0.00000000E+00
  -0.38900000E+01           0.00000000E+00
  -0.38800000E+01           0.00000000E+00
  -0.38700000E+01           0.00000000E+00
  -0.38600000E+01           0.00000000E+00
  -0.38500000E+01           0.00000000E+00
  -0.38400000E+01           0.00000000E+00
  -0.38300000E+01           0.00000000E+00
  -0.38200000E+01           0.00000000E+00
  -0.38100000E+01           0.00000000E+00
  -0.38000000E+01           0.00000000E+00
  -0.37900000E+01           0.00000000E+00
  -0.37800000E+01           0.00000000E+00
  -0.37700000E+01           0.00000000E+00
  -0.37600000E+01           0.00000000E+00
  -0.37500000E+01           0.00000000E+00
  -0.37400000E+01           0.00000000E+00
  -0.37300000E+01           0.00000000E+00
  -0.37200000E+01           0.00000000E+00
  -0.37100000E+01           0.00000000E+00
  -0.37000000E+01           0.00000000E+00
  -0.36900000E+01           0.00000000E+00
  -0.36800000E+01           0.00000000E+00
  -0.36700000E+01           0.00000000E+00
  -0.36600000E+01           0.00000000E+00
  -0.36500000E+01           0.00000000E+00
  -0.36400000E+01           0.00000000E+00
  -0.36300000E+01           0.00000000E+00
  -0.36200000E+01           0.00000000E+00
  -0.36100000E+01           0.00000000E+00
  -0.36000000E+01           0.00000000E+00
  -0.35900000E+01           0.00000000E+00
  -0.35800000E+01           0.00000000E+00
  -0.35700000E+01           0.00000000E+00
  -0.35600000E+01           0.00000000E+00
  -0.35500000E+01           0.00000000E+00
  -0.35400000E+01           0.00000000E+00
  -0.35300000E+01           0.00000000E+00
  -0.35200000E+01           0.00000000E+00
  -0.35100000E+01           0.00000000E+00
  -0.35000000E+01           0.00000000E+00
  -0.34900000E+01           0.00000000E+00
  -0.34800000E+01           0.00000000E+00
  -0.34700000E+01           0.00000000E+00
  -0.34600000E+01           0.00000000E+00
  -0.34500000E+01           0.00000000E+00
  -0.34400000E+01           0.00000000E+00
  -0.34300000E+01           0.00000000E+00
  -0.34200000E+01           0.00000000E+00
  -0.34100000E+01           0.00000000E+00
  -0.34000000E+01           0.00000000E+00
  -0.33900000E+01           0.00000000E+00
  -0.33800000E+01           0.00000000E+00
  -0.33700000E+01           0.00000000E+00
  -0.33600000E+01           0.00000000E+00
  -0.33500000E+01           0.00000000E+00
  -0.33400000E+01           0.00000000E+00
  -0.33300000E+01           0.00000000E+00
  -0.33200000E+01           0.00000000E+00
  -0.33100000E+01           0.00000000E+00
  -0.33000000E+01           0.00000000E+00
  -0.32900000E+01           0.00000000E+00
  -0.32800000E+01           0.00000000E+00
  -0.32700000E+01           0.00000000E+00
  -0.32600000E+01           0.00000000E+00
  -0.32500000E+01           0.00000000E+00
  -0.32400000E+01           0.00000000E+00
  -0.32300000E+01           0.00000000E+00
  -0.32200000E+01           0.00000000E+00
  -0.32100000E+01           0.00000000E+00
  -0.32000000E+01           0.00000000E+00
  -0.31900000E+01           0.00000000E+00
  -0.31800000E+01           0.00000000E+00
  -0.31700000E+01           0.00000000E+00
  -0.31600000E+01           0.00000000E+00
  -0.31500000E+01           0.00000000E+00
  -0.31400000E+01           0.00000000E+00
  -0.31300000E+01           0.00000000E+00
  -0.31200000E+01           0.00000000E+00
  -0.31100000E+01           0.00000000E+00
  -0.31000000E+01           0.00000000E+00
  -0.30900000E+01           0.00000000E+00
  -0.30800000E+01           0.00000000E+00
  -0.30700000E+01           0.00000000E+00
  -0.30600000E+01           0.00000000E+00
  -0.30500000E+01           0.00000000E+00
  -0.30400000E+01           0.00000000E+00
  -0.30300000E+01           0.00000000E+00
  -0.30200000E+01           0.00000000E+00
  -0.30100000E+01           0.00000000E+00
  -0.30000000E+01           0.00000000E+00
  -0.29900000E+01           0.00000000E+00
  -0.29800000E+01           0.00000000E+00
  -0.29700000E+01           0.00000000E+00
  -0.29600000E+01           0.00000000E+00
  -0.29500000E+01           0.00000000E+00
  -0.29400000E+01           0.00000000E+00
  -0.29300000E+01           0.00000000E+00
  -0.29200000E+01           0.00000000E+00
  -0.29100000E+01           0.00000000E+00
  -0.29000000E+01           0.00000000E+00
  -0.28900000E+01           0.00000000E+00
  -0.28800000E+01           0.00000000E+00
  -0.28700000E+01           0.00000000E+00
  -0.28600000E+01           0.00000000E+00
  -0.28500000E+01           0.00000000E+00
  -0.28400000E+01           0.00000000E+00
  -0.28300000E+01           0.00000000E+00
  -0.28200000E+01           0.00000000E+00
  -0.28100000E+01           0.00000000E+00
  -0.28000000E+01           0.00000000E+00
  -0.27900000E+01           0.00000000E+00
  -0.27800000E+01           0.00000000E+00
  -0.27700000E+01           0.00000000E+00
  -0.27600000E+01           0.00000000E+00
  -0.27500000E+01           0.00000000E+00
  -0.27400000E+01           0.00000000E+00
  -0.27300000E+01           0.00000000E+00
  -0.27200000E+01           0.00000000E+00
  -0.27100000E+01           0.00000000E+00
  -0.27000000E+01           0.00000000E+00
  -0.26900000E+01           0.00000000E+00
  -0.26800000E+01           0.00000000E+00
  -0.26700000E+01           0.00000000E+00
  -0.26600000E+01           0.00000000E+00
  -0.26500000E+01           0.00000000E+00
  -0.26400000E+01           0.00000000E+00
  -0.26300000E+01           0.00000000E+00
  -0.26200000E+01           0.00000000E+00
  -0.26100000E+01           0.00000000E+00
  -0.26000000E+01           0.00000000E+00
  -0.25900000E+01           0.00000000E+00
  -0.25800000E+01           0.00000000E+00
  -0.25700000E+01           0.00000000E+00
  -0.25600000E+01           0.00000000E+00
  -0.25500000E+01           0.00000000E+00
  -0.25400000E+01           0.00000000E+00
  -0.25300000E+01           0.00000000E+00
  -0.25200000E+01           0.00000000E+00
  -0.25100000E+01           0.00000000E+00
  -0.25000000E+01           0.00000000E+00
  -0.24900000E+01           0.00000000E+00
  -0.24800000E+01           0.00000000E+00
  -0.24700000E+01           0.00000000E+00
  -0.24600000E+01           0.00000000E+00
  -0.24500000E+01           0.00000000E+00
  -0.24400000E+01           0.00000000E+00
  -0.24300000E+01           0.00000000E+00
  -0.24200000E+01           0.00000000E+00
  -0.24100000E+01           0.00000000E+00
  -0.24000000E+01           0.00000000E+00
  -0.23900000E+01           0.00000000E+00
  -0.23800000E+01           0.00000000E+00
  -0.23700000E+01           0.00000000E+00
  -0.23600000E+01           0.00000000E+00
  -0.23500000E+01           0.00000000E+00
  -0.23400000E+01           0.00000000E+00
  -0.23300000E+01           0.00000000E+00
  -0.23200000E+01           0.00000000E+00
  -0.23100000E+01           0.00000000E+00
  -0.23000000E+01           0.00000000E+00
  -0.22900000E+01           0.00000000E+00
  -0.22800000E+01           0.00000000E+00
  -0.22700000E+01           0.00000000E+00
  -0.22600000E+01           0.00000000E+00
  -0.22500000E+01           0.00000000E+00
  -0.22400000E+01           0.00000000E+00
  -0.22300000E+01           0.00000000E+00
  -0.22200000E+01           0.00000000E+00
  -0.22100000E+01           0.00000000E+00
  -0.22000000E+01           0.00000000E+00
  -0.21900000E+01           0.00000000E+00
  -0.21800000E+01           0.00000000E+00
  -0.21700000E+01           0.00000000E+00
  -0.21600000E+01           0.00000000E+00
  -0.21500000E+01           0.00000000E+00
  -0.21400000E+01           0.00000000E+00
  -0.21300000E+01           0.00000000E+00
  -0.21200000E+01           0.00000000E+00
  -0.21100000E+01           0.00000000E+00
  -0.21000000E+01           0.00000000E+00
  -0.20900000E+01           0.00000000E+00
  -0.20800000E+01           0.00000000E+00
  -0.20700000E+01           0.00000000E+00
  -0.20600000E+01           0.00000000E+00
  -0.20500000E+01           0.00000000E+00
  -0.20400000E+01           0.00000000E+00
  -0.20300000E+01           0.00000000E+00
  -0.20200000E+01           0.00000000E+00
  -0.20100000E+01           0.00000000E+00
  -0.20000000E+01           0.00000000E+00
  -0.19900000E+01           0.00000000E+00
  -0.19800000E+01           0.00000000E+00
  -0.19700000E+01           0.00000000E+00
  -0.19600000E+01           0.00000000E+00
  -0.19500000E+01           0.00000000E+00
  -0.19400000E+01           0.00000000E+00
  -0.19300000E+01           0.00000000E+00
  -0.19200000E+01           0.00000000E+00
  -0.19100000E+01           0.00000000E+00
  -0.19000000E+01           0.00000000E+00
  -0.18900000E+01           0.00000000E+00
  -0.18800000E+01           0.00000000E+00
  -0.18700000E+01           0.00000000E+00
  -0.18600000E+01           0.00000000E+00
  -0.18500000E+01           0.00000000E+00
  -0.18400000E+01           0.00000000E+00
  -0.18300000E+01           0.00000000E+00
  -0.18200000E+01           0.00000000E+00
  -0.18100000E+01           0.00000000E+00
  -0.18000000E+01           0.00000000E+00
  -0.17900000E+01           0.00000000E+00
  -0.17800000E+01           0.00000000E+00
  -0.17700000E+01           0.00000000E+00
  -0.17600000E+01           0.00000000E+00
  -0.17500000E+01           0.00000000E+00
  -0.17400000E+01           0.00000000E+00
  -0.17300000E+01           0.00000000E+00
  -0.17200000E+01           0.00000000E+00
  -0.17100000E+01           0.00000000E+00
  -0.17000000E+01           0.00000000E+00
  -0.16900000E+01           0.00000000E+00
  -0.16800000E+01           0.00000000E+00
  -0.16700000E+01           0.00000000E+00
  -0.16600000E+01           0.00000000E+00
  -0.16500000E+01           0.00000000E+00
  -0.16400000E+01           0.00000000E+00
  -0.16300000E+01           0.00000000E+00
  -0.16200000E+01           0.00000000E+00
  -0.16100000E+01           0.00000000E+00
  -0.16000000E+01           0.00000000E+00
  -0.15900000E+01           0.00000000E+00
  -0.15800000E+01           0.00000000E+00
  -0.15700000E+01           0.00000000E+00
  -0.15600000E+01           0.00000000E+00
  -0.15500000E+01           0.00000000E+00
  -0.15400000E+01           0.00000000E+00
  -0.15300000E+01           0.00000000E+00
  -0.15200000E+01           0.00000000E+00
  -0.15100000E+01           0.00000000E+00
  -0.15000000E+01           0.00000000E+00
  -0.14900000E+01           0.00000000E+00
  -0.14800000E+01           0.00000000E+00
  -0.14700000E+01           0.00000000E+00
  -0.14600000E+01           0.00000000E+00
  -0.14500000E+01           0.00000000E+00
  -0.14400000E+01           0.00000000E+00
  -0.14300000E+01           0.00000000E+00
  -0.14200000E+01           0.00000000E+00
  -0.14100000E+01           0.00000000E+00
  -0.14000000E+01           0.00000000E+00
  -0.13900000E+01           0.00000000E+00
  -0.13800000E+01           0.00000000E+00
  -0.13700000E+01           0.00000000E+00
  -0.13600000E+01           0.00000000E+00
  -0.13500000E+01           0.00000000E+00
  -0.13400000E+01           0.00000000E+00
  -0.13300000E+01           0.00000000E+00
  -0.13200000E+01           0.00000000E+00
  -0.13100000E+01           0.00000000E+00
  -0.13000000E+01           0.00000000E+00
  -0.12900000E+01           0.00000000E+00
  -0.12800000E+01           0.00000000E+00
  -0.12700000E+01           0.00000000E+00
  -0.12600000E+01           0.00000000E+00
  -0.12500000E+01           0.00000000E+00
  -0.12400000E+01           0.00000000E+00
  -0.12300000E+01           0.00000000E+00
  -0.12200000E+01           0.00000000E+00
  -0.12100000E+01           0.00000000E+00
  -0.12000000E+01           0.00000000E+00
  -0.11900000E+01           0.00000000E+00
  -0.11800000E+01           0.00000000E+00
  -0.11700000E+01           0.00000000E+00
  -0.11600000E+01           0.00000000E+00
  -0.11500000E+01           0.00000000E+00
  -0.11400000E+01           0.00000000E+00
  -0.11300000E+01           0.00000000E+00
  -0.11200000E+01           0.00000000E+00
  -0.11100000E+01           0.00000000E+00
  -0.11000000E+01           0.00000000E+00
  -0.10900000E+01           0.00000000E+00
  -0.10800000E+01           0.00000000E+00
  -0.10700000E+01           0.00000000E+00
  -0.10600000E+01           0.00000000E+00
  -0.10500000E+01           0.00000000E+00
  -0.10400000E+01           0.00000000E+00
  -0.10300000E+01           0.00000000E+00
  -0.10200000E+01           0.00000000E+00
  -0.10100000E+01           0.00000000E+00
  -0.10000000E+01           0.00000000E+00
  -0.99000000E+00           0.00000000E+00
  -0.98000000E+00           0.00000000E+00
  -0.97000000E+00           0.00000000E+00
  -0.96000000E+00           0.00000000E+00
  -0.95000000E+00           0.00000000E+00
  -0.94000000E+00           0.00000000E+00
  -0.93000000E+00           0.00000000E+00
  -0.92000000E+00           0.00000000E+00
  -0.91000000E+00           0.00000000E+00
  -0.90000000E+00           0.00000000E+00
  -0.89000000E+00           0.00000000E+00
  -0.88000000E+00           0.00000000E+00
  -0.87000000E+00           0.00000000E+00
  -0.86000000E+00           0.00000000E+00
  -0.85000000E+00           0.00000000E+00
  -0.84000000E+00           0.00000000E+00
  -0.83000000E+00           0.00000000E+00
  -0.82000000E+00           0.00000000E+00
  -0.81000000E+00           0.00000000E+00
  -0.80000000E+00           0.00000000E+00
  -0.79000000E+00           0.00000000E+00
  -0.78000000E+00           0.00000000E+00
  -0.77000000E+00           0.00000000E+00
  -0.76000000E+00           0.00000000E+00
  -0.75000000E+00           0.00000000E+00
  -0.74000000E+00           0.00000000E+00
  -0.73000000E+00           0.00000000E+00
  -0.72000000E+00           0.00000000E+00
  -0.71000000E+00           0.00000000E+00
  -0.70000000E+00           0.00000000E+00
  -0.69000000E+00           0.00000000E+00
  -0.68000000E+00           0.00000000E+00
  -0.67000000E+00           0.00000000E+00
  -0.66000000E+00           0.00000000E+00
  -0.65000000E+00           0.00000000E+00
  -0.64000000E+00           0.00000000E+00
  -0.63000000E+00           0.00000000E+00
  -0.62000000E+00           0.00000000E+00
  -0.61000000E+00           0.00000000E+00
  -0.60000000E+00           0.00000000E+00
  -0.59000000E+00           0.00000000E+00
  -0.58000000E+00           0.00000000E+00
  -0.57000000E+00           0.00000000E+00
  -0.56000000E+00           0.00000000E+00
  -0.55000000E+00           0.00000000E+00
  -0.54000000E+00           0.00000000E+00
  -0.53000000E+00           0.00000000E+00
  -0.52000000E+00           0.00000000E+00
  -0.51000000E+00           0.00000000E+00
  -0.50000000E+00           0.00000000E+00
  -0.49000000E+00           0.00000000E+00
  -0.48000000E+00           0.00000000E+00
  -0.47000000E+00           0.00000000E+00
  -0.46000000E+00           0.00000000E+00
  -0.45000000E+00           0.00000000E+00
  -0.44000000E+00           0.00000000E+00
  -0.43000000E+00           0.00000000E+00
  -0.42000000E+00           0.00000000E+00
  -0.41000000E+00           0.00000000E+00
  -0.40000000E+00           0.00000000E+00
  -0.39000000E+00           0.00000000E+00
  -0.38000000E+00           0.00000000E+00
  -0.37000000E+00           0.00000000E+00
  -0.36000000E+00           0.00000000E+00
  -0.35000000E+00           0.00000000E+00
  -0.34000000E+00           0.00000000E+00
  -0.33000000E+00           0.00000000E+00
  -0.32000000E+00           0.00000000E+00
  -0.31000000E+00           0.00000000E+00
  -0.30000000E+00           0.00000000E+00
  -0.29000000E+00           0.00000000E+00
  -0.28000000E+00           0.00000000E+00
  -0.27000000E+00           0.00000000E+00
  -0.26000000E+00           0.00000000E+00
  -0.25000000E+00           0.00000000E+00
  -0.24000000E+00           0.00000000E+00
  -0.23000000E+00           0.00000000E+00
  -0.22000000E+00           0.00000000E+00
  -0.21000000E+00           0.00000000E+00
  -0.20000000E+00           0.00000000E+00
  -0.19000000E+00           0.00000000E+00
  -0.18000000E+00           0.00000000E+00
  -0.17000000E+00           0.00000000E+00
  -0.16000000E+00           0.00000000E+00
  -0.15000000E+00           0.00000000E+00
  -0.14000000E+00           0.00000000E+00
  -0.13000000E+00           0.00000000E+00
  -0.12000000E+00           0.00000000E+00
  -0.11000000E+00           0.00000000E+00
  -0.10000000E+00           0.00000000E+00
  -0.90000000E-01           0.00000000E+00
  -0.80000000E-01           0.00000000E+00
  -0.70000000E-01           0.00000000E+00
  -0.60000000E-01           0.00000000E+00
  -0.50000000E-01           0.00000000E+00
  -0.40000000E-01           0.00000000E+00
  -0.30000000E-01           0.00000000E+00
  -0.20000000E-01           0.00000000E+00
  -0.10000000E-01           0.00000000E+00
   0.00000000E+00           0.22048611E-04
   0.10000000E-01           0.59340278E-03
   0.20000000E-01           0.21828125E-02
   0.30000000E-01           0.48260417E-02
   0.40000000E-01           0.84401042E-02
   0.50000000E-01           0.12897743E-01
   0.60000000E-01           0.18474653E-01
   0.70000000E-01           0.24602083E-01
   0.80000000E-01           0.31544444E-01
   0.90000000E-01           0.39383160E-01
   0.10000000E+00           0.48146528E-01
   0.11000000E+00           0.57125000E-01
   0.12000000E+00           0.66905382E-01
   0.13000000E+00           0.77431771E-01
   0.14000000E+00           0.88303819E-01
   0.15000000E+00           0.99756597E-01
   0.16000000E+00           0.11136823E+00
   0.17000000E+00           0.12405955E+00
   0.18000000E+00           0.13729115E+00
   0.19000000E+00           0.15073872E+00
   0.20000000E+00           0.16418854E+00
   0.21000000E+00           0.17772639E+00
   0.22000000E+00           0.19198542E+00
   0.23000000E+00           0.20707031E+00
   0.24000000E+00           0.22162326E+00
   0.25000000E+00           0.23664497E+00
   0.26000000E+00           0.25117257E+00
   0.27000000E+00           0.26687708E+00
   0.28000000E+00           0.28252691E+00
   0.29000000E+00           0.29779219E+00
   0.30000000E+00           0.31353733E+00
   0.31000000E+00           0.32927222E+00
   0.32000000E+00           0.34447986E+00
   0.33000000E+00           0.36093663E+00
   0.34000000E+00           0.37608854E+00
   0.35000000E+00           0.39216615E+00
   0.36000000E+00           0.40738160E+00
   0.37000000E+00           0.42258819E+00
   0.38000000E+00           0.43854028E+00
   0.39000000E+00           0.45383976E+00
   0.40000000E+00           0.46891285E+00
   0.41000000E+00           0.48342934E+00
   0.42000000E+00           0.49796858E+00
   0.43000000E+00           0.51345851E+00
   0.44000000E+00           0.52820799E+00
   0.45000000E+00           0.54301476E+00
   0.46000000E+00           0.55494236E+00
   0.47000000E+00           0.56922274E+00
   0.48000000E+00           0.58384236E+00
   0.49000000E+00           0.59654288E+00
   0.50000000E+00           0.60949271E+00
   0.51000000E+00           0.62271562E+00
   0.52000000E+00           0.63443559E+00
   0.53000000E+00           0.64639705E+00
   0.54000000E+00           0.65822361E+00
   0.55000000E+00           0.66986979E+00
   0.56000000E+00           0.68129236E+00
   0.57000000E+00           0.69196267E+00
   0.58000000E+00           0.70259323E+00
   0.59000000E+00           0.71201007E+00
   0.60000000E+00           0.72214115E+00
   0.61000000E+00           0.73189601E+00
   0.62000000E+00           0.74060903E+00
   0.63000000E+00           0.74916771E+00
   0.64000000E+00           0.75703681E+00
   0.65000000E+00           0.76598715E+00
   0.66000000E+00           0.77269878E+00
   0.67000000E+00           0.77956580E+00
   0.68000000E+00           0.78642865E+00
   0.69000000E+00           0.79305573E+00
   0.70000000E+00           0.79887587E+00
   0.71000000E+00           0.80514549E+00
   0.72000000E+00           0.80999306E+00
   0.73000000E+00           0.81540885E+00
   0.74000000E+00           0.81876597E+00
   0.75000000E+00           0.82227986E+00
   0.76000000E+00           0.82697552E+00
   0.77000000E+00           0.83030781E+00
   0.78000000E+00           0.83349878E+00
   0.79000000E+00           0.83498437E+00
   0.80000000E+00           0.83691476E+00
   0.81000000E+00           0.83928559E+00
   0.82000000E+00           0.84098403E+00
   0.83000000E+00           0.84168264E+00
   0.84000000E+00           0.84208646E+00
   0.85000000E+00           0.84326806E+00
   0.86000000E+00           0.84299028E+00
   0.87000000E+00           0.84254618E+00
   0.88000000E+00           0.84105937E+00
   0.89000000E+00           0.84054583E+00
   0.90000000E+00           0.83949115E+00
   0.91000000E+00           0.83799201E+00
   0.92000000E+00           0.83603576E+00
   0.93000000E+00           0.83409948E+00
   0.94000000E+00           0.83150104E+00
   0.95000000E+00           0.82807760E+00
   0.96000000E+00           0.82501215E+00
   0.97000000E+00           0.82182656E+00
   0.98000000E+00           0.81870677E+00
   0.99000000E+00           0.81381840E+00
   0.10000000E+01           0.80977292E+00
   0.10100000E+01           0.80506701E+00
   0.10200000E+01           0.80135260E+00
   0.10300000E+01           0.79625104E+00
   0.10400000E+01           0.79164722E+00
   0.10500000E+01           0.78572153E+00
   0.10600000E+01           0.77979896E+00
   0.10700000E+01           0.77408594E+00
   0.10800000E+01           0.76838837E+00
   0.10900000E+01           0.76214410E+00
   0.11000000E+01           0.75542361E+00
   0.11100000E+01           0.74881233E+00
   0.11200000E+01           0.74248733E+00
   0.11300000E+01           0.73591892E+00
   0.11400000E+01           0.72847934E+00
   0.11500000E+01           0.72142622E+00
   0.11600000E+01           0.71387170E+00
   0.11700000E+01           0.70655712E+00
   0.11800000E+01           0.69882274E+00
   0.11900000E+01           0.69120069E+00
   0.12000000E+01           0.68355573E+00
   0.12100000E+01           0.67522344E+00
   0.12200000E+01           0.66801493E+00
   0.12300000E+01           0.65919219E+00
   0.12400000E+01           0.65132934E+00
   0.12500000E+01           0.64295000E+00
   0.12600000E+01           0.63433698E+00
   0.12700000E+01           0.62649080E+00
   0.12800000E+01           0.61765469E+00
   0.12900000E+01           0.60948733E+00
   0.13000000E+01           0.60134340E+00
   0.13100000E+01           0.59239531E+00
   0.13200000E+01           0.58365799E+00
   0.13300000E+01           0.57471424E+00
   0.13400000E+01           0.56590660E+00
   0.13500000E+01           0.55758177E+00
   0.13600000E+01           0.54877899E+00
   0.13700000E+01           0.53996788E+00
   0.13800000E+01           0.53181927E+00
   0.13900000E+01           0.52316163E+00
   0.14000000E+01           0.51408437E+00
   0.14100000E+01           0.50520764E+00
   0.14200000E+01           0.49681979E+00
   0.14300000E+01           0.48805469E+00
   0.14400000E+01           0.47991319E+00
   0.14500000E+01           0.47118073E+00
   0.14600000E+01           0.46296545E+00
   0.14700000E+01           0.45394479E+00
   0.14800000E+01           0.44567483E+00
   0.14900000E+01           0.43777951E+00
   0.15000000E+01           0.42917292E+00
   0.15100000E+01           0.42087240E+00
   0.15200000E+01           0.41324184E+00
   0.15300000E+01           0.40495990E+00
   0.15400000E+01           0.39658750E+00
   0.15500000E+01           0.38881007E+00
   0.15600000E+01           0.38059618E+00
   0.15700000E+01           0.37283576E+00
   0.15800000E+01           0.36492830E+00
   0.15900000E+01           0.35701024E+00
   0.16000000E+01           0.34997587E+00
   0.16100000E+01           0.34164983E+00
   0.16200000E+01           0.33464983E+00
   0.16300000E+01           0.32708663E+00
   0.16400000E+01           0.32008003E+00
   0.16500000E+01           0.31292778E+00
   0.16600000E+01           0.30565486E+00
   0.16700000E+01           0.29875191E+00
   0.16800000E+01           0.29215260E+00
   0.16900000E+01           0.28481944E+00
   0.17000000E+01           0.27795156E+00
   0.17100000E+01           0.27199427E+00
   0.17200000E+01           0.26499080E+00
   0.17300000E+01           0.25840590E+00
   0.17400000E+01           0.25217187E+00
   0.17500000E+01           0.24609149E+00
   0.17600000E+01           0.23940573E+00
   0.17700000E+01           0.23400521E+00
   0.17800000E+01           0.22773698E+00
   0.17900000E+01           0.22199965E+00
   0.18000000E+01           0.21588420E+00
   0.18100000E+01           0.21069653E+00
   0.18200000E+01           0.20486354E+00
   0.18300000E+01           0.19939375E+00
   0.18400000E+01           0.19432812E+00
   0.18500000E+01           0.18926267E+00
   0.18600000E+01           0.18370694E+00
   0.18700000E+01           0.17864288E+00
   0.18800000E+01           0.17382569E+00
   0.18900000E+01           0.16914115E+00
   0.19000000E+01           0.16428090E+00
   0.19100000E+01           0.15948003E+00
   0.19200000E+01           0.15499358E+00
   0.19300000E+01           0.15010955E+00
   0.19400000E+01           0.14617847E+00
   0.19500000E+01           0.14205399E+00
   0.19600000E+01           0.13735295E+00
   0.19700000E+01           0.13358264E+00
   0.19800000E+01           0.12927795E+00
   0.19900000E+01           0.12559948E+00
   0.20000000E+01           0.12170052E+00
   0.20100000E+01           0.11785764E+00
   0.20200000E+01           0.11420243E+00
   0.20300000E+01           0.11074184E+00
   0.20400000E+01           0.10735694E+00
   0.20500000E+01           0.10374878E+00
   0.20600000E+01           0.10065590E+00
   0.20700000E+01           0.97270139E-01
   0.20800000E+01           0.94128125E-01
   0.20900000E+01           0.91206597E-01
   0.21000000E+01           0.88197743E-01
   0.21100000E+01           0.85176042E-01
   0.21200000E+01           0.82564410E-01
   0.21300000E+01           0.79643924E-01
   0.21400000E+01           0.76829340E-01
   0.21500000E+01           0.74466493E-01
   0.21600000E+01           0.71894444E-01
   0.21700000E+01           0.69251910E-01
   0.21800000E+01           0.66966146E-01
   0.21900000E+01           0.64657812E-01
   0.22000000E+01           0.62648785E-01
   0.22100000E+01           0.60230903E-01
   0.22200000E+01           0.58297569E-01
   0.22300000E+01           0.56130208E-01
   0.22400000E+01           0.54165972E-01
   0.22500000E+01           0.52235243E-01
   0.22600000E+01           0.50216840E-01
   0.22700000E+01           0.48445312E-01
   0.22800000E+01           0.46793403E-01
   0.22900000E+01           0.44940451E-01
   0.23000000E+01           0.43337500E-01
   0.23100000E+01           0.41800174E-01
   0.23200000E+01           0.40194444E-01
   0.23300000E+01           0.38690799E-01
   0.23400000E+01           0.37142535E-01
   0.23500000E+01           0.35783507E-01
   0.23600000E+01           0.34421875E-01
   0.23700000E+01           0.33136285E-01
   0.23800000E+01           0.31795833E-01
   0.23900000E+01           0.30546701E-01
   0.24000000E+01           0.29433333E-01
   0.24100000E+01           0.28275174E-01
   0.24200000E+01           0.27154514E-01
   0.24300000E+01           0.25935417E-01
   0.24400000E+01           0.24974653E-01
   0.24500000E+01           0.23992708E-01
   0.24600000E+01           0.23103125E-01
   0.24700000E+01           0.22084722E-01
   0.24800000E+01           0.21003472E-01
   0.24900000E+01           0.20254167E-01
   0.25000000E+01           0.19457465E-01
   0.25100000E+01           0.18636111E-01
   0.25200000E+01           0.17865104E-01
   0.25300000E+01           0.17096528E-01
   0.25400000E+01           0.16408507E-01
   0.25500000E+01           0.15765799E-01
   0.25600000E+01           0.15046354E-01
   0.25700000E+01           0.14360069E-01
   0.25800000E+01           0.13737153E-01
   0.25900000E+01           0.13139236E-01
   0.26000000E+01           0.12583854E-01
   0.26100000E+01           0.12076042E-01
   0.26200000E+01           0.11497396E-01
   0.26300000E+01           0.11040972E-01
   0.26400000E+01           0.10461285E-01
   0.26500000E+01           0.10039583E-01
   0.26600000E+01           0.95770833E-02
   0.26700000E+01           0.91527778E-02
   0.26800000E+01           0.86973958E-02
   0.26900000E+01           0.82348958E-02
   0.27000000E+01           0.79557292E-02
   0.27100000E+01           0.75399306E-02
   0.27200000E+01           0.71904514E-02
   0.27300000E+01           0.69027778E-02
   0.27400000E+01           0.64968750E-02
   0.27500000E+01           0.62062500E-02
   0.27600000E+01           0.59194444E-02
   0.27700000E+01           0.56597222E-02
   0.27800000E+01           0.53649306E-02
   0.27900000E+01           0.51343750E-02
   0.28000000E+01           0.48468750E-02
   0.28100000E+01           0.46157986E-02
   0.28200000E+01           0.43493056E-02
   0.28300000E+01           0.41538194E-02
   0.28400000E+01           0.39454861E-02
   0.28500000E+01           0.37619792E-02
   0.28600000E+01           0.35708333E-02
   0.28700000E+01           0.33675347E-02
   0.28800000E+01           0.32149306E-02
   0.28900000E+01           0.30369792E-02
   0.29000000E+01           0.29151042E-02
   0.29100000E+01           0.27236111E-02
   0.29200000E+01           0.25798611E-02
   0.29300000E+01           0.24500000E-02
   0.29400000E+01           0.23262153E-02
   0.29500000E+01           0.21975694E-02
   0.29600000E+01           0.20934028E-02
   0.29700000E+01           0.19427083E-02
   0.29800000E+01           0.18428819E-02
   0.29900000E+01           0.17508681E-02
   0.30000000E+01           0.16574653E-02
   0.30100000E+01           0.15835069E-02
   0.30200000E+01           0.14538194E-02
   0.30300000E+01           0.14137153E-02
   0.30400000E+01           0.13112847E-02
   0.30500000E+01           0.12348958E-02
   0.30600000E+01           0.11710069E-02
   0.30700000E+01           0.11017361E-02
   0.30800000E+01           0.10411458E-02
   0.30900000E+01           0.97447917E-03
   0.31000000E+01           0.94027778E-03
   0.31100000E+01           0.86875000E-03
   0.31200000E+01           0.80104167E-03
   0.31300000E+01           0.75972222E-03
   0.31400000E+01           0.71215278E-03
   0.31500000E+01           0.68281250E-03
   0.31600000E+01           0.63420139E-03
   0.31700000E+01           0.59687500E-03
   0.31800000E+01           0.55850694E-03
   0.31900000E+01           0.52413194E-03
   0.32000000E+01           0.50312500E-03
   0.32100000E+01           0.46684028E-03
   0.32200000E+01           0.42743056E-03
   0.32300000E+01           0.39288194E-03
   0.32400000E+01           0.36354167E-03
   0.32500000E+01           0.33593750E-03
   0.32600000E+01           0.32361111E-03
   0.32700000E+01           0.31718750E-03
   0.32800000E+01           0.28697917E-03
   0.32900000E+01           0.25277778E-03
   0.33000000E+01           0.24861111E-03
   0.33100000E+01           0.21944444E-03
   0.33200000E+01           0.21788194E-03
   0.33300000E+01           0.20833333E-03
   0.33400000E+01           0.19166667E-03
   0.33500000E+01           0.16059028E-03
   0.33600000E+01           0.16493056E-03
   0.33700000E+01           0.15138889E-03
   0.33800000E+01           0.14409722E-03
   0.33900000E+01           0.12899306E-03
   0.34000000E+01           0.12100694E-03
   0.34100000E+01           0.11232639E-03
   0.34200000E+01           0.10034722E-03
   0.34300000E+01           0.93576389E-04
   0.34400000E+01           0.92187500E-04
   0.34500000E+01           0.85069444E-04
   0.34600000E+01           0.78298611E-04
   0.34700000E+01           0.67708333E-04
   0.34800000E+01           0.62500000E-04
   0.34900000E+01           0.61805556E-04
   0.35000000E+01           0.52951389E-04
   0.35100000E+01           0.46006944E-04
   0.35200000E+01           0.50694444E-04
   0.35300000E+01           0.41319444E-04
   0.35400000E+01           0.37673611E-04
   0.35500000E+01           0.32638889E-04
   0.35600000E+01           0.30208333E-04
   0.35700000E+01           0.30902778E-04
   0.35800000E+01           0.22569444E-04
   0.35900000E+01           0.25000000E-04
   0.36000000E+01           0.21354167E-04
   0.36100000E+01           0.22569444E-04
   0.36200000E+01           0.19444444E-04
   0.36300000E+01           0.15972222E-04
   0.36400000E+01           0.15972222E-04
   0.36500000E+01           0.13541667E-04
   0.36600000E+01           0.11979167E-04
   0.36700000E+01           0.10069444E-04
   0.36800000E+01           0.10069444E-04
   0.36900000E+01           0.72916667E-05
   0.37000000E+01           0.86805556E-05
   0.37100000E+01           0.74652778E-05
   0.37200000E+01           0.64236111E-05
   0.37300000E+01           0.64236111E-05
   0.37400000E+01           0.48611111E-05
   0.37500000E+01           0.60763889E-05
   0.37600000E+01           0.26041667E-05
   0.37700000E+01           0.39930556E-05
   0.37800000E+01           0.31250000E-05
   0.37900000E+01           0.22569444E-05
   0.38000000E+01           0.20833333E-05
   0.38100000E+01           0.27777778E-05
   0.38200000E+01           0.15625000E-05
   0.38300000E+01           0.17361111E-05
   0.38400000E+01           0.10416667E-05
   0.38500000E+01           0.86805556E-06
   0.38600000E+01           0.69444444E-06
   0.38700000E+01           0.34722222E-06
   0.38800000E+01           0.00000000E+00
   0.38900000E+01           0.52083333E-06
   0.39000000E+01           0.00000000E+00
   0.39100000E+01           0.17361111E-06
   0.39200000E+01           0.00000000E+00
   0.39300000E+01           0.17361111E-06
   0.39400000E+01           0.00000000E+00
   0.39500000E+01           0.00000000E+00
   0.39600000E+01           0.00000000E+00
   0.39700000E+01           0.00000000E+00
   0.39800000E+01           0.00000000E+00
   0.39900000E+01           0.00000000E+00
   0.40000000E+01           0.00000000E+00
 #T=   201.0000
  -0.40000000E+01           0.00000000E+00
  -0.39900000E+01           0.00000000E+00
  -0.39800000E+01           0.00000000E+00
  -0.39700000E+01           0.00000000E+00
  -0.39600000E+01           0.00000000E+00
  -0.39500000E+01           0.00000000E+00
  -0.39400000E+01           0.00000000E+00
  -0.39300000E+01           0.00000000E+00
  -0.39200000E+01           0.00000000E+00
  -0.39100000E+01           0.00000000E+00
  -0.39000000E+01           0.00000000E+00
  -0.38900000E+01           0.00000000E+00
  -0.38800000E+01           0.00000000E+00
  -0.38700000E+01           0.00000000E+00
  -0.38600000E+01           0.00000000E+00
  -0.38500000E+01           0.00000000E+00
  -0.38400000E+01           0.00000000E+00
  -0.38300000E+01           0.00000000E+00
  -0.38200000E+01           0.00000000E+00
  -0.38100000E+01           0.00000000E+00
  -0.38000000E+01           0.00000000E+00
  -0.37900000E+01           0.00000000E+00
  -0.37800000E+01           0.00000000E+00
  -0.37700000E+01           0.00000000E+00
  -0.37600000E+01           0.00000000E+00
  -0.37500000E+01           0.00000000E+00
  -0.37400000E+01           0.00000000E+00
  -0.37300000E+01           0.00000000E+00
  -0.37200000E+01           0.00000000E+00
  -0.37100000E+01           0.00000000E+00
  -0.37000000E+01           0.00000000E+00
  -0.36900000E+01           0.00000000E+00
  -0.36800000E+01           0.00000000E+00
  -0.36700000E+01           0.00000000E+00
  -0.36600000E+01           0.00000000E+00
  -0.36500000E+01           0.00000000E+00
  -0.36400000E+01           0.00000000E+00
  -0.36300000E+01           0.00000000E+00
  -0.36200000E+01           0.00000000E+00
  -0.36100000E+01           0.00000000E+00
  -0.36000000E+01           0.00000000E+00
  -0.35900000E+01           0.00000000E+00
  -0.35800000E+01           0.00000000E+00
  -0.35700000E+01           0.00000000E+00
  -0.35600000E+01           0.00000000E+00
  -0.35500000E+01           0.00000000E+00
  -0.35400000E+01           0.00000000E+00
  -0.35300000E+01           0.00000000E+00
  -0.35200000E+01           0.00000000E+00
  -0.35100000E+01           0.00000000E+00
  -0.35000000E+01           0.00000000E+00
  -0.34900000E+01           0.00000000E+00
  -0.34800000E+01           0.00000000E+00
  -0.34700000E+01           0.00000000E+00
  -0.34600000E+01           0.00000000E+00
  -0.34500000E+01           0.00000000E+00
  -0.34400000E+01           0.00000000E+00
  -0.34300000E+01           0.00000000E+00
  -0.34200000E+01           0.00000000E+00
  -0.34100000E+01           0.00000000E+00
  -0.34000000E+01           0.00000000E+00
  -0.33900000E+01           0.00000000E+00
  -0.33800000E+01           0.00000000E+00
  -0.33700000E+01           0.00000000E+00
  -0.33600000E+01           0.00000000E+00
  -0.33500000E+01           0.00000000E+00
  -0.33400000E+01           0.00000000E+00
  -0.33300000E+01           0.00000000E+00
  -0.33200000E+01           0.00000000E+00
  -0.33100000E+01           0.00000000E+00
  -0.33000000E+01           0.00000000E+00
  -0.32900000E+01           0.00000000E+00
  -0.32800000E+01           0.00000000E+00
  -0.32700000E+01           0.00000000E+00
  -0.32600000E+01           0.00000000E+00
  -0.32500000E+01           0.00000000E+00
  -0.32400000E+01           0.00000000E+00
  -0.32300000E+01           0.00000000E+00
  -0.32200000E+01           0.00000000E+00
  -0.32100000E+01           0.00000000E+00
  -0.32000000E+01           0.00000000E+00
  -0.31900000E+01           0.00000000E+00
  -0.31800000E+01           0.00000000E+00
  -0.31700000E+01           0.00000000E+00
  -0.31600000E+01           0.00000000E+00
  -0.31500000E+01           0.00000000E+00
  -0.31400000E+01           0.00000000E+00
  -0.31300000E+01           0.00000000E+00
  -0.31200000E+01           0.00000000E+00
  -0.31100000E+01           0.00000000E+00
  -0.31000000E+01           0.00000000E+00
  -0.30900000E+01           0.00000000E+00
  -0.30800000E+01           0.00000000E+00
  -0.30700000E+01           0.00000000E+00
  -0.30600000E+01           0.00000000E+00
  -0.30500000E+01           0.00000000E+00
  -0.30400000E+01           0.00000000E+00
  -0.30300000E+01           0.00000000E+00
  -0.30200000E+01           0.00000000E+00
  -0.30100000E+01           0.00000000E+00
  -0.30000000E+01           0.00000000E+00
  -0.29900000E+01           0.00000000E+00
  -0.29800000E+01           0.00000000E+00
  -0.29700000E+01           0.00000000E+00
  -0.29600000E+01           0.00000000E+00
  -0.29500000E+01           0.00000000E+00
  -0.29400000E+01           0.00000000E+00
  -0.29300000E+01           0.00000000E+00
  -0.29200000E+01           0.00000000E+00
  -0.29100000E+01           0.00000000E+00
  -0.29000000E+01           0.00000000E+00
  -0.28900000E+01           0.00000000E+00
  -0.28800000E+01           0.00000000E+00
  -0.28700000E+01           0.00000000E+00
  -0.28600000E+01           0.00000000E+00
  -0.28500000E+01           0.00000000E+00
  -0.28400000E+01           0.00000000E+00
  -0.28300000E+01           0.00000000E+00
  -0.28200000E+01           0.00000000E+00
  -0.28100000E+01           0.00000000E+00
  -0.28000000E+01           0.00000000E+00
  -0.27900000E+01           0.00000000E+00
  -0.27800000E+01           0.00000000E+00
  -0.27700000E+01           0.00000000E+00
  -0.27600000E+01           0.00000000E+00
  -0.27500000E+01           0.00000000E+00
  -0.27400000E+01           0.00000000E+00
  -0.27300000E+01           0.00000000E+00
  -0.27200000E+01           0.00000000E+00
  -0.27100000E+01           0.00000000E+00
  -0.27000000E+01           0.00000000E+00
  -0.26900000E+01           0.00000000E+00
  -0.26800000E+01           0.00000000E+00
  -0.26700000E+01           0.00000000E+00
  -0.26600000E+01           0.00000000E+00
  -0.26500000E+01           0.00000000E+00
  -0.26400000E+01           0.00000000E+00
  -0.26300000E+01           0.00000000E+00
  -0.26200000E+01           0.00000000E+00
  -0.26100000E+01           0.00000000E+00
  -0.26000000E+01           0.00000000E+00
  -0.25900000E+01           0.00000000E+00
  -0.25800000E+01           0.00000000E+00
  -0.25700000E+01           0.00000000E+00
  -0.25600000E+01           0.00000000E+00
  -0.25500000E+01           0.00000000E+00
  -0.25400000E+01           0.00000000E+00
  -0.25300000E+01           0.00000000E+00
  -0.25200000E+01           0.00000000E+00
  -0.25100000E+01           0.00000000E+00
  -0.25000000E+01           0.00000000E+00
  -0.24900000E+01           0.00000000E+00
  -0.24800000E+01           0.00000000E+00
  -0.24700000E+01           0.00000000E+00
  -0.24600000E+01           0.00000000E+00
  -0.24500000E+01           0.00000000E+00
  -0.24400000E+01           0.00000000E+00
  -0.24300000E+01           0.00000000E+00
  -0.24200000E+01           0.00000000E+00
  -0.24100000E+01           0.00000000E+00
  -0.24000000E+01           0.00000000E+00
  -0.23900000E+01           0.00000000E+00
  -0.23800000E+01           0.00000000E+00
  -0.23700000E+01           0.00000000E+00
  -0.23600000E+01           0.00000000E+00
  -0.23500000E+01           0.00000000E+00
  -0.23400000E+01           0.00000000E+00
  -0.23300000E+01           0.00000000E+00
  -0.23200000E+01           0.00000000E+00
  -0.23100000E+01           0.00000000E+00
  -0.23000000E+01           0.00000000E+00
  -0.22900000E+01           0.00000000E+00
  -0.22800000E+01           0.00000000E+00
  -0.22700000E+01           0.00000000E+00
  -0.22600000E+01           0.00000000E+00
  -0.22500000E+01           0.00000000E+00
  -0.22400000E+01           0.00000000E+00
  -0.22300000E+01           0.00000000E+00
  -0.22200000E+01           0.00000000E+00
  -0.22100000E+01           0.00000000E+00
  -0.22000000E+01           0.00000000E+00
  -0.21900000E+01           0.00000000E+00
  -0.21800000E+01           0.00000000E+00
  -0.21700000E+01           0.00000000E+00
  -0.21600000E+01           0.00000000E+00
  -0.21500000E+01           0.00000000E+00
  -0.21400000E+01           0.00000000E+00
  -0.21300000E+01           0.00000000E+00
  -0.21200000E+01           0.00000000E+00
  -0.21100000E+01           0.00000000E+00
  -0.21000000E+01           0.00000000E+00
  -0.20900000E+01           0.00000000E+00
  -0.20800000E+01           0.00000000E+00
  -0.20700000E+01           0.00000000E+00
  -0.20600000E+01           0.00000000E+00
  -0.20500000E+01           0.00000000E+00
  -0.20400000E+01           0.00000000E+00
  -0.20300000E+01           0.00000000E+00
  -0.20200000E+01           0.00000000E+00
  -0.20100000E+01           0.00000000E+00
  -0.20000000E+01           0.00000000E+00
  -0.19900000E+01           0.00000000E+00
  -0.19800000E+01           0.00000000E+00
  -0.19700000E+01           0.00000000E+00
  -0.19600000E+01           0.00000000E+00
  -0.19500000E+01           0.00000000E+00
  -0.19400000E+01           0.00000000E+00
  -0.19300000E+01           0.00000000E+00
  -0.19200000E+01           0.00000000E+00
  -0.19100000E+01           0.00000000E+00
  -0.19000000E+01           0.00000000E+00
  -0.18900000E+01           0.00000000E+00
  -0.18800000E+01           0.00000000E+00
  -0.18700000E+01           0.00000000E+00
  -0.18600000E+01           0.00000000E+00
  -0.18500000E+01           0.00000000E+00
  -0.18400000E+01           0.00000000E+00
  -0.18300000E+01           0.00000000E+00
  -0.18200000E+01           0.00000000E+00
  -0.18100000E+01           0.00000000E+00
  -0.18000000E+01           0.00000000E+00
  -0.17900000E+01           0.00000000E+00
  -0.17800000E+01           0.00000000E+00
  -0.17700000E+01           0.00000000E+00
  -0.17600000E+01           0.00000000E+00
  -0.17500000E+01           0.00000000E+00
  -0.17400000E+01           0.00000000E+00
  -0.17300000E+01           0.00000000E+00
  -0.17200000E+01           0.00000000E+00
  -0.17100000E+01           0.00000000E+00
  -0.17000000E+01           0.00000000E+00
  -0.16900000E+01           0.00000000E+00
  -0.16800000E+01           0.00000000E+00
  -0.16700000E+01           0.00000000E+00
  -0.16600000E+01           0.00000000E+00
  -0.16500000E+01           0.00000000E+00
  -0.16400000E+01           0.00000000E+00
  -0.16300000E+01           0.00000000E+00
  -0.16200000E+01           0.00000000E+00
  -0.16100000E+01           0.00000000E+00
  -0.16000000E+01           0.00000000E+00
  -0.15900000E+01           0.00000000E+00
  -0.15800000E+01           0.00000000E+00
  -0.15700000E+01           0.00000000E+00
  -0.15600000E+01           0.00000000E+00
  -0.15500000E+01           0.00000000E+00
  -0.15400000E+01           0.00000000E+00
  -0.15300000E+01           0.00000000E+00
  -0.15200000E+01           0.00000000E+00
  -0.15100000E+01           0.00000000E+00
  -0.15000000E+01           0.00000000E+00
  -0.14900000E+01           0.00000000E+00
  -0.14800000E+01           0.00000000E+00
  -0.14700000E+01           0.00000000E+00
  -0.14600000E+01           0.00000000E+00
  -0.14500000E+01           0.00000000E+00
  -0.14400000E+01           0.00000000E+00
  -0.14300000E+01           0.00000000E+00
  -0.14200000E+01           0.00000000E+00
  -0.14100000E+01           0.00000000E+00
  -0.14000000E+01           0.00000000E+00
  -0.13900000E+01           0.00000000E+00
  -0.13800000E+01           0.00000000E+00
  -0.13700000E+01           0.00000000E+00
  -0.13600000E+01           0.00000000E+00
  -0.13500000E+01           0.00000000E+00
  -0.13400000E+01           0.00000000E+00
  -0.13300000E+01           0.00000000E+00
  -0.13200000E+01           0.00000000E+00
  -0.13100000E+01           0.00000000E+00
  -0.13000000E+01           0.00000000E+00
  -0.12900000E+01           0.00000000E+00
  -0.12800000E+01           0.00000000E+00
  -0.12700000E+01           0.00000000E+00
  -0.12600000E+01           0.00000000E+00
  -0.12500000E+01           0.00000000E+00
  -0.12400000E+01           0.00000000E+00
  -0.12300000E+01           0.00000000E+00
  -0.12200000E+01           0.00000000E+00
  -0.12100000E+01           0.00000000E+00
  -0.12000000E+01           0.00000000E+00
  -0.11900000E+01           0.00000000E+00
  -0.11800000E+01           0.00000000E+00
  -0.11700000E+01           0.00000000E+00
  -0.11600000E+01           0.00000000E+00
  -0.11500000E+01           0.00000000E+00
  -0.11400000E+01           0.00000000E+00
  -0.11300000E+01           0.00000000E+00
  -0.11200000E+01           0.00000000E+00
  -0.11100000E+01           0.00000000E+00
  -0.11000000E+01           0.00000000E+00
  -0.10900000E+01           0.00000000E+00
  -0.10800000E+01           0.00000000E+00
  -0.10700000E+01           0.00000000E+00
  -0.10600000E+01           0.00000000E+00
  -0.10500000E+01           0.00000000E+00
  -0.10400000E+01           0.00000000E+00
  -0.10300000E+01           0.00000000E+00
  -0.10200000E+01           0.00000000E+00
  -0.10100000E+01           0.00000000E+00
  -0.10000000E+01           0.00000000E+00
  -0.99000000E+00           0.00000000E+00
  -0.98000000E+00           0.00000000E+00
  -0.97000000E+00           0.00000000E+00
  -0.96000000E+00           0.00000000E+00
  -0.95000000E+00           0.00000000E+00
  -0.94000000E+00           0.00000000E+00
  -0.93000000E+00           0.00000000E+00
  -0.92000000E+00           0.00000000E+00
  -0.91000000E+00           0.00000000E+00
  -0.90000000E+00           0.00000000E+00
  -0.89000000E+00           0.00000000E+00
  -0.88000000E+00           0.00000000E+00
  -0.87000000E+00           0.00000000E+00
  -0.86000000E+00           0.00000000E+00
  -0.85000000E+00           0.00000000E+00
  -0.84000000E+00           0.00000000E+00
  -0.83000000E+00           0.00000000E+00
  -0.82000000E+00           0.00000000E+00
  -0.81000000E+00           0.00000000E+00
  -0.80000000E+00           0.00000000E+00
  -0.79000000E+00           0.00000000E+00
  -0.78000000E+00           0.00000000E+00
  -0.77000000E+00           0.00000000E+00
  -0.76000000E+00           0.00000000E+00
  -0.75000000E+00           0.00000000E+00
  -0.74000000E+00           0.00000000E+00
  -0.73000000E+00           0.00000000E+00
  -0.72000000E+00           0.00000000E+00
  -0.71000000E+00           0.00000000E+00
  -0.70000000E+00           0.00000000E+00
  -0.69000000E+00           0.00000000E+00
  -0.68000000E+00           0.00000000E+00
  -0.67000000E+00           0.00000000E+00
  -0.66000000E+00           0.00000000E+00
  -0.65000000E+00           0.00000000E+00
  -0.64000000E+00           0.00000000E+00
  -0.63000000E+00           0.00000000E+00
  -0.62000000E+00           0.00000000E+00
  -0.61000000E+00           0.00000000E+00
  -0.60000000E+00           0.00000000E+00
  -0.59000000E+00           0.00000000E+00
  -0.58000000E+00           0.00000000E+00
  -0.57000000E+00           0.00000000E+00
  -0.56000000E+00           0.00000000E+00
  -0.55000000E+00           0.00000000E+00
  -0.54000000E+00           0.00000000E+00
  -0.53000000E+00           0.00000000E+00
  -0.52000000E+00           0.00000000E+00
  -0.51000000E+00           0.00000000E+00
  -0.50000000E+00           0.00000000E+00
  -0.49000000E+00           0.00000000E+00
  -0.48000000E+00           0.00000000E+00
  -0.47000000E+00           0.00000000E+00
  -0.46000000E+00           0.00000000E+00
  -0.45000000E+00           0.00000000E+00
  -0.44000000E+00           0.00000000E+00
  -0.43000000E+00           0.00000000E+00
  -0.42000000E+00           0.00000000E+00
  -0.41000000E+00           0.00000000E+00
  -0.40000000E+00           0.00000000E+00
  -0.39000000E+00           0.00000000E+00
  -0.38000000E+00           0.00000000E+00
  -0.37000000E+00           0.00000000E+00
  -0.36000000E+00           0.00000000E+00
  -0.35000000E+00           0.00000000E+00
  -0.34000000E+00           0.00000000E+00
  -0.33000000E+00           0.00000000E+00
  -0.32000000E+00           0.00000000E+00
  -0.31000000E+00           0.00000000E+00
  -0.30000000E+00           0.00000000E+00
  -0.29000000E+00           0.00000000E+00
  -0.28000000E+00           0.00000000E+00
  -0.27000000E+00           0.00000000E+00
  -0.26000000E+00           0.00000000E+00
  -0.25000000E+00           0.00000000E+00
  -0.24000000E+00           0.00000000E+00
  -0.23000000E+00           0.00000000E+00
  -0.22000000E+00           0.00000000E+00
  -0.21000000E+00           0.00000000E+00
  -0.20000000E+00           0.00000000E+00
  -0.19000000E+00           0.00000000E+00
  -0.18000000E+00           0.00000000E+00
  -0.17000000E+00           0.00000000E+00
  -0.16000000E+00           0.00000000E+00
  -0.15000000E+00           0.00000000E+00
  -0.14000000E+00           0.00000000E+00
  -0.13000000E+00           0.00000000E+00
  -0.12000000E+00           0.00000000E+00
  -0.11000000E+00           0.00000000E+00
  -0.10000000E+00           0.00000000E+00
  -0.90000000E-01           0.00000000E+00
  -0.80000000E-01           0.00000000E+00
  -0.70000000E-01           0.00000000E+00
  -0.60000000E-01           0.00000000E+00
  -0.50000000E-01           0.00000000E+00
  -0.40000000E-01           0.00000000E+00
  -0.30000000E-01           0.00000000E+00
  -0.20000000E-01           0.00000000E+00
  -0.10000000E-01           0.00000000E+00
   0.00000000E+00           0.22569444E-04
   0.10000000E-01           0.60069444E-03
   0.20000000E-01           0.21815972E-02
   0.30000000E-01           0.47348958E-02
   0.40000000E-01           0.83375000E-02
   0.50000000E-01           0.12807292E-01
   0.60000000E-01           0.18121354E-01
   0.70000000E-01           0.24239931E-01
   0.80000000E-01           0.31085417E-01
   0.90000000E-01           0.38866493E-01
   0.10000000E+00           0.47426736E-01
   0.11000000E+00           0.56572222E-01
   0.12000000E+00           0.66025000E-01
   0.13000000E+00           0.76356424E-01
   0.14000000E+00           0.87280903E-01
   0.15000000E+00           0.98790799E-01
   0.16000000E+00           0.11046684E+00
   0.17000000E+00           0.12294774E+00
   0.18000000E+00           0.13550486E+00
   0.19000000E+00           0.14886528E+00
   0.20000000E+00           0.16274497E+00
   0.21000000E+00           0.17583576E+00
   0.22000000E+00           0.18992934E+00
   0.23000000E+00           0.20448437E+00
   0.24000000E+00           0.21931059E+00
   0.25000000E+00           0.23429340E+00
   0.26000000E+00           0.24905208E+00
   0.27000000E+00           0.26399462E+00
   0.28000000E+00           0.27971372E+00
   0.29000000E+00           0.29502934E+00
   0.30000000E+00           0.31035139E+00
   0.31000000E+00           0.32606840E+00
   0.32000000E+00           0.34134462E+00
   0.33000000E+00           0.35688958E+00
   0.34000000E+00           0.37304427E+00
   0.35000000E+00           0.38787361E+00
   0.36000000E+00           0.40407882E+00
   0.37000000E+00           0.41903906E+00
   0.38000000E+00           0.43410521E+00
   0.39000000E+00           0.44957292E+00
   0.40000000E+00           0.46436076E+00
   0.41000000E+00           0.47906458E+00
   0.42000000E+00           0.49404392E+00
   0.43000000E+00           0.50821997E+00
   0.44000000E+00           0.52353767E+00
   0.45000000E+00           0.53713524E+00
   0.46000000E+00           0.55166788E+00
   0.47000000E+00           0.56496354E+00
   0.48000000E+00           0.57889236E+00
   0.49000000E+00           0.59177101E+00
   0.50000000E+00           0.60504514E+00
   0.51000000E+00           0.61780139E+00
   0.52000000E+00           0.63016580E+00
   0.53000000E+00           0.64124896E+00
   0.54000000E+00           0.65408854E+00
   0.55000000E+00           0.66471823E+00
   0.56000000E+00           0.67639063E+00
   0.57000000E+00           0.68753142E+00
   0.58000000E+00           0.69725590E+00
   0.59000000E+00           0.70772899E+00
   0.60000000E+00           0.71773490E+00
   0.61000000E+00           0.72750087E+00
   0.62000000E+00           0.73621024E+00
   0.63000000E+00           0.74508941E+00
   0.64000000E+00           0.75345694E+00
   0.65000000E+00           0.76102500E+00
   0.66000000E+00           0.76747847E+00
   0.67000000E+00           0.77558455E+00
   0.68000000E+00           0.78169253E+00
   0.69000000E+00           0.78821424E+00
   0.70000000E+00           0.79473490E+00
   0.71000000E+00           0.80056250E+00
   0.72000000E+00           0.80660903E+00
   0.73000000E+00           0.81056806E+00
   0.74000000E+00           0.81541146E+00
   0.75000000E+00           0.81894705E+00
   0.76000000E+00           0.82306788E+00
   0.77000000E+00           0.82647743E+00
   0.78000000E+00           0.82993003E+00
   0.79000000E+00           0.83206545E+00
   0.80000000E+00           0.83440451E+00
   0.81000000E+00           0.83649948E+00
   0.82000000E+00           0.83725139E+00
   0.83000000E+00           0.83894896E+00
   0.84000000E+00           0.83960069E+00
   0.85000000E+00           0.84098403E+00
   0.86000000E+00           0.84118177E+00
   0.87000000E+00           0.84034635E+00
   0.88000000E+00           0.83941424E+00
   0.89000000E+00           0.83945243E+00
   0.90000000E+00           0.83781701E+00
   0.91000000E+00           0.83581250E+00
   0.92000000E+00           0.83507691E+00
   0.93000000E+00           0.83236163E+00
   0.94000000E+00           0.82932014E+00
   0.95000000E+00           0.82694705E+00
   0.96000000E+00           0.82343281E+00
   0.97000000E+00           0.82104132E+00
   0.98000000E+00           0.81693941E+00
   0.99000000E+00           0.81398715E+00
   0.10000000E+01           0.80877049E+00
   0.10100000E+01           0.80526927E+00
   0.10200000E+01           0.80014080E+00
   0.10300000E+01           0.79575295E+00
   0.10400000E+01           0.79062500E+00
   0.10500000E+01           0.78520000E+00
   0.10600000E+01           0.77980156E+00
   0.10700000E+01           0.77428507E+00
   0.10800000E+01           0.76824392E+00
   0.10900000E+01           0.76193646E+00
   0.11000000E+01           0.75562083E+00
   0.11100000E+01           0.74946441E+00
   0.11200000E+01           0.74321424E+00
   0.11300000E+01           0.73592326E+00
   0.11400000E+01           0.72877187E+00
   0.11500000E+01           0.72183767E+00
   0.11600000E+01           0.71511059E+00
   0.11700000E+01           0.70742344E+00
   0.11800000E+01           0.70021302E+00
   0.11900000E+01           0.69246215E+00
   0.12000000E+01           0.68398854E+00
   0.12100000E+01           0.67767708E+00
   0.12200000E+01           0.66909670E+00
   0.12300000E+01           0.66134774E+00
   0.12400000E+01           0.65210330E+00
   0.12500000E+01           0.64440833E+00
   0.12600000E+01           0.63696128E+00
   0.12700000E+01           0.62827604E+00
   0.12800000E+01           0.61908646E+00
   0.12900000E+01           0.61107396E+00
   0.13000000E+01           0.60217066E+00
   0.13100000E+01           0.59392951E+00
   0.13200000E+01           0.58583507E+00
   0.13300000E+01           0.57723420E+00
   0.13400000E+01           0.56873455E+00
   0.13500000E+01           0.55998785E+00
   0.13600000E+01           0.55116823E+00
   0.13700000E+01           0.54284948E+00
   0.13800000E+01           0.53407882E+00
   0.13900000E+01           0.52576059E+00
   0.14000000E+01           0.51634184E+00
   0.14100000E+01           0.50874028E+00
   0.14200000E+01           0.49958385E+00
   0.14300000E+01           0.49053281E+00
   0.14400000E+01           0.48226285E+00
   0.14500000E+01           0.47387830E+00
   0.14600000E+01           0.46575677E+00
   0.14700000E+01           0.45712483E+00
   0.14800000E+01           0.44850000E+00
   0.14900000E+01           0.43997951E+00
   0.15000000E+01           0.43265382E+00
   0.15100000E+01           0.42406024E+00
   0.15200000E+01           0.41571389E+00
   0.15300000E+01           0.40774983E+00
   0.15400000E+01           0.39954253E+00
   0.15500000E+01           0.39138872E+00
   0.15600000E+01           0.38352014E+00
   0.15700000E+01           0.37612934E+00
   0.15800000E+01           0.36787535E+00
   0.15900000E+01           0.36019392E+00
   0.16000000E+01           0.35229826E+00
   0.16100000E+01           0.34565052E+00
   0.16200000E+01           0.33755087E+00
   0.16300000E+01           0.33067240E+00
   0.16400000E+01           0.32266701E+00
   0.16500000E+01           0.31569479E+00
   0.16600000E+01           0.30896597E+00
   0.16700000E+01           0.30187708E+00
   0.16800000E+01           0.29506493E+00
   0.16900000E+01           0.28819497E+00
   0.17000000E+01           0.28123472E+00
   0.17100000E+01           0.27443316E+00
   0.17200000E+01           0.26789062E+00
   0.17300000E+01           0.26155486E+00
   0.17400000E+01           0.25502760E+00
   0.17500000E+01           0.24893698E+00
   0.17600000E+01           0.24248090E+00
   0.17700000E+01           0.23663385E+00
   0.17800000E+01           0.23065208E+00
   0.17900000E+01           0.22492344E+00
   0.18000000E+01           0.21902292E+00
   0.18100000E+01           0.21322691E+00
   0.18200000E+01           0.20784792E+00
   0.18300000E+01           0.20204306E+00
   0.18400000E+01           0.19664358E+00
   0.18500000E+01           0.19175000E+00
   0.18600000E+01           0.18647795E+00
   0.18700000E+01           0.18168472E+00
   0.18800000E+01           0.17601215E+00
   0.18900000E+01           0.17146181E+00
   0.19000000E+01           0.16691580E+00
   0.19100000E+01           0.16194427E+00
   0.19200000E+01           0.15719201E+00
   0.19300000E+01           0.15249965E+00
   0.19400000E+01           0.14806562E+00
   0.19500000E+01           0.14388038E+00
   0.19600000E+01           0.13952691E+00
   0.19700000E+01           0.13572135E+00
   0.19800000E+01           0.13146979E+00
   0.19900000E+01           0.12759062E+00
   0.20000000E+01           0.12366528E+00
   0.20100000E+01           0.12011875E+00
   0.20200000E+01           0.11627795E+00
   0.20300000E+01           0.11261215E+00
   0.20400000E+01           0.10929219E+00
   0.20500000E+01           0.10580851E+00
   0.20600000E+01           0.10237361E+00
   0.20700000E+01           0.99243750E-01
   0.20800000E+01           0.95859028E-01
   0.20900000E+01           0.92772743E-01
   0.21000000E+01           0.89694792E-01
   0.21100000E+01           0.86875868E-01
   0.21200000E+01           0.84182639E-01
   0.21300000E+01           0.81137500E-01
   0.21400000E+01           0.78667535E-01
   0.21500000E+01           0.75975000E-01
   0.21600000E+01           0.73434722E-01
   0.21700000E+01           0.70897743E-01
   0.21800000E+01           0.68577778E-01
   0.21900000E+01           0.66270833E-01
   0.22000000E+01           0.63970139E-01
   0.22100000E+01           0.61642708E-01
   0.22200000E+01           0.59728646E-01
   0.22300000E+01           0.57592014E-01
   0.22400000E+01           0.55318750E-01
   0.22500000E+01           0.53330729E-01
   0.22600000E+01           0.51460590E-01
   0.22700000E+01           0.49643056E-01
   0.22800000E+01           0.47673785E-01
   0.22900000E+01           0.46053819E-01
   0.23000000E+01           0.44391667E-01
   0.23100000E+01           0.42739410E-01
   0.23200000E+01           0.41218576E-01
   0.23300000E+01           0.39662500E-01
   0.23400000E+01           0.38255903E-01
   0.23500000E+01           0.36776042E-01
   0.23600000E+01           0.35256076E-01
   0.23700000E+01           0.34010590E-01
   0.23800000E+01           0.32632465E-01
   0.23900000E+01           0.31531250E-01
   0.24000000E+01           0.30138021E-01
   0.24100000E+01           0.29047049E-01
   0.24200000E+01           0.27891146E-01
   0.24300000E+01           0.26752951E-01
   0.24400000E+01           0.25703472E-01
   0.24500000E+01           0.24729861E-01
   0.24600000E+01           0.23695139E-01
   0.24700000E+01           0.22764757E-01
   0.24800000E+01           0.21767014E-01
   0.24900000E+01           0.21050868E-01
   0.25000000E+01           0.20055556E-01
   0.25100000E+01           0.19178125E-01
   0.25200000E+01           0.18356944E-01
   0.25300000E+01           0.17647917E-01
   0.25400000E+01           0.16883333E-01
   0.25500000E+01           0.16169271E-01
   0.25600000E+01           0.15427083E-01
   0.25700000E+01           0.14875347E-01
   0.25800000E+01           0.14086458E-01
   0.25900000E+01           0.13599653E-01
   0.26000000E+01           0.12951910E-01
   0.26100000E+01           0.12362326E-01
   0.26200000E+01           0.11923785E-01
   0.26300000E+01           0.11282118E-01
   0.26400000E+01           0.10847049E-01
   0.26500000E+01           0.10339410E-01
   0.26600000E+01           0.98711806E-02
   0.26700000E+01           0.94701389E-02
   0.26800000E+01           0.90536458E-02
   0.26900000E+01           0.85678819E-02
   0.27000000E+01           0.82177083E-02
   0.27100000E+01           0.78593750E-02
   0.27200000E+01           0.74376736E-02
   0.27300000E+01           0.71258681E-02
   0.27400000E+01           0.66717014E-02
   0.27500000E+01           0.64196181E-02
   0.27600000E+01           0.61225694E-02
   0.27700000E+01           0.59027778E-02
   0.27800000E+01           0.55161458E-02
   0.27900000E+01           0.52829861E-02
   0.28000000E+01           0.50673611E-02
   0.28100000E+01           0.48310764E-02
   0.28200000E+01           0.46038194E-02
   0.28300000E+01           0.43352431E-02
   0.28400000E+01           0.40967014E-02
   0.28500000E+01           0.39409722E-02
   0.28600000E+01           0.37131944E-02
   0.28700000E+01           0.34894097E-02
   0.28800000E+01           0.33102431E-02
   0.28900000E+01           0.31729167E-02
   0.29000000E+01           0.30177083E-02
   0.29100000E+01           0.28718750E-02
   0.29200000E+01           0.27416667E-02
   0.29300000E+01           0.25380208E-02
   0.29400000E+01           0.24085069E-02
   0.29500000E+01           0.22857639E-02
   0.29600000E+01           0.21765625E-02
   0.29700000E+01           0.20071181E-02
   0.29800000E+01           0.19536458E-02
   0.29900000E+01           0.18562500E-02
   0.30000000E+01           0.17269097E-02
   0.30100000E+01           0.16552083E-02
   0.30200000E+01           0.15394097E-02
   0.30300000E+01           0.14734375E-02
   0.30400000E+01           0.13475694E-02
   0.30500000E+01           0.12885417E-02
   0.30600000E+01           0.12496528E-02
   0.30700000E+01           0.11706597E-02
   0.30800000E+01           0.10710069E-02
   0.30900000E+01           0.10394097E-02
   0.31000000E+01           0.97395833E-03
   0.31100000E+01           0.92170139E-03
   0.31200000E+01           0.85381944E-03
   0.31300000E+01           0.79652778E-03
   0.31400000E+01           0.76180556E-03
   0.31500000E+01           0.69704861E-03
   0.31600000E+01           0.65972222E-03
   0.31700000E+01           0.63489583E-03
   0.31800000E+01           0.59010417E-03
   0.31900000E+01           0.53333333E-03
   0.32000000E+01           0.52118056E-03
   0.32100000E+01           0.48732639E-03
   0.32200000E+01           0.45625000E-03
   0.32300000E+01           0.43680556E-03
   0.32400000E+01           0.38576389E-03
   0.32500000E+01           0.35920139E-03
   0.32600000E+01           0.35711806E-03
   0.32700000E+01           0.32951389E-03
   0.32800000E+01           0.29600694E-03
   0.32900000E+01           0.29027778E-03
   0.33000000E+01           0.26510417E-03
   0.33100000E+01           0.23958333E-03
   0.33200000E+01           0.22447917E-03
   0.33300000E+01           0.21163194E-03
   0.33400000E+01           0.18281250E-03
   0.33500000E+01           0.18541667E-03
   0.33600000E+01           0.16961806E-03
   0.33700000E+01           0.15607639E-03
   0.33800000E+01           0.14114583E-03
   0.33900000E+01           0.14010417E-03
   0.34000000E+01           0.13159722E-03
   0.34100000E+01           0.11510417E-03
   0.34200000E+01           0.10607639E-03
   0.34300000E+01           0.99305556E-04
   0.34400000E+01           0.97569444E-04
   0.34500000E+01           0.94444444E-04
   0.34600000E+01           0.83159722E-04
   0.34700000E+01           0.73263889E-04
   0.34800000E+01           0.62500000E-04
   0.34900000E+01           0.61284722E-04
   0.35000000E+01           0.57118056E-04
   0.35100000E+01           0.55555556E-04
   0.35200000E+01           0.51388889E-04
   0.35300000E+01           0.41840278E-04
   0.35400000E+01           0.38715278E-04
   0.35500000E+01           0.37152778E-04
   0.35600000E+01           0.34548611E-04
   0.35700000E+01           0.27256944E-04
   0.35800000E+01           0.26215278E-04
   0.35900000E+01           0.24826389E-04
   0.36000000E+01           0.22395833E-04
   0.36100000E+01           0.19618056E-04
   0.36200000E+01           0.19965278E-04
   0.36300000E+01           0.19444444E-04
   0.36400000E+01           0.15104167E-04
   0.36500000E+01           0.15104167E-04
   0.36600000E+01           0.11111111E-04
   0.36700000E+01           0.10937500E-04
   0.36800000E+01           0.86805556E-05
   0.36900000E+01           0.98958333E-05
   0.37000000E+01           0.92013889E-05
   0.37100000E+01           0.85069444E-05
   0.37200000E+01           0.65972222E-05
   0.37300000E+01           0.53819444E-05
   0.37400000E+01           0.39930556E-05
   0.37500000E+01           0.46875000E-05
   0.37600000E+01           0.34722222E-05
   0.37700000E+01           0.39930556E-05
   0.37800000E+01           0.29513889E-05
   0.37900000E+01           0.24305556E-05
   0.38000000E+01           0.26041667E-05
   0.38100000E+01           0.17361111E-05
   0.38200000E+01           0.22569444E-05
   0.38300000E+01           0.26041667E-05
   0.38400000E+01           0.17361111E-05
   0.38500000E+01           0.17361111E-05
   0.38600000E+01           0.10416667E-05
   0.38700000E+01           0.10416667E-05
   0.38800000E+01           0.00000000E+00
   0.38900000E+01           0.34722222E-06
   0.39000000E+01           0.52083333E-06
   0.39100000E+01           0.34722222E-06
   0.39200000E+01           0.17361111E-06
   0.39300000E+01           0.00000000E+00
   0.39400000E+01           0.34722222E-06
   0.39500000E+01           0.00000000E+00
   0.39600000E+01           0.00000000E+00
   0.39700000E+01           0.00000000E+00
   0.39800000E+01           0.00000000E+00
   0.39900000E+01           0.00000000E+00
   0.40000000E+01           0.00000000E+00
 #T=   202.0000
  -0.40000000E+01           0.00000000E+00
  -0.39900000E+01           0.00000000E+00
  -0.39800000E+01           0.00000000E+00
  -0.39700000E+01           0.00000000E+00
  -0.39600000E+01           0.00000000E+00
  -0.39500000E+01           0.00000000E+00
  -0.39400000E+01           0.00000000E+00
  -0.39300000E+01           0.00000000E+00
  -0.39200000E+01           0.00000000E+00
  -0.39100000E+01           0.00000000E+00
  -0.39000000E+01           0.00000000E+00
  -0.38900000E+01           0.00000000E+00
  -0.38800000E+01           0.00000000E+00
  -0.38700000E+01           0.00000000E+00
  -0.38600000E+01           0.00000000E+00
  -0.38500000E+01           0.00000000E+00
  -0.38400000E+01           0.00000000E+00
  -0.38300000E+01           0.00000000E+00
  -0.38200000E+01           0.00000000E+00
  -0.38100000E+01           0.00000000E+00
  -0.38000000E+01           0.00000000E+00
  -0.37900000E+01           0.00000000E+00
  -0.37800000E+01           0.00000000E+00
  -0.37700000E+01           0.00000000E+00
  -0.37600000E+01           0.00000000E+00
  -0.37500000E+01           0.00000000E+00
  -0.37400000E+01           0.00000000E+00
  -0.37300000E+01           0.00000000E+00
  -0.37200000E+01           0.00000000E+00
  -0.37100000E+01           0.00000000E+00
  -0.37000000E+01           0.00000000E+00
  -0.36900000E+01           0.00000000E+00
  -0.36800000E+01           0.00000000E+00
  -0.36700000E+01           0.00000000E+00
  -0.36600000E+01           0.00000000E+00
  -0.36500000E+01           0.00000000E+00
  -0.36400000E+01           0.00000000E+00
  -0.36300000E+01           0.00000000E+00
  -0.36200000E+01           0.00000000E+00
  -0.36100000E+01           0.00000000E+00
  -0.36000000E+01           0.00000000E+00
  -0.35900000E+01           0.00000000E+00
  -0.35800000E+01           0.00000000E+00
  -0.35700000E+01           0.00000000E+00
  -0.35600000E+01           0.00000000E+00
  -0.35500000E+01           0.00000000E+00
  -0.35400000E+01           0.00000000E+00
  -0.35300000E+01           0.00000000E+00
  -0.35200000E+01           0.00000000E+00
  -0.35100000E+01           0.00000000E+00
  -0.35000000E+01           0.00000000E+00
  -0.34900000E+01           0.00000000E+00
  -0.34800000E+01           0.00000000E+00
  -0.34700000E+01           0.00000000E+00
  -0.34600000E+01           0.00000000E+00
  -0.34500000E+01           0.00000000E+00
  -0.34400000E+01           0.00000000E+00
  -0.34300000E+01           0.00000000E+00
  -0.34200000E+01           0.00000000E+00
  -0.34100000E+01           0.00000000E+00
  -0.34000000E+01           0.00000000E+00
  -0.33900000E+01           0.00000000E+00
  -0.33800000E+01           0.00000000E+00
  -0.33700000E+01           0.00000000E+00
  -0.33600000E+01           0.00000000E+00
  -0.33500000E+01           0.00000000E+00
  -0.33400000E+01           0.00000000E+00
  -0.33300000E+01           0.00000000E+00
  -0.33200000E+01           0.00000000E+00
  -0.33100000E+01           0.00000000E+00
  -0.33000000E+01           0.00000000E+00
  -0.32900000E+01           0.00000000E+00
  -0.32800000E+01           0.00000000E+00
  -0.32700000E+01           0.00000000E+00
  -0.32600000E+01           0.00000000E+00
  -0.32500000E+01           0.00000000E+00
  -0.32400000E+01           0.00000000E+00
  -0.32300000E+01           0.00000000E+00
  -0.32200000E+01           0.00000000E+00
  -0.32100000E+01           0.00000000E+00
  -0.32000000E+01           0.00000000E+00
  -0.31900000E+01           0.00000000E+00
  -0.31800000E+01           0.00000000E+00
  -0.31700000E+01           0.00000000E+00
  -0.31600000E+01           0.00000000E+00
  -0.31500000E+01           0.00000000E+00
  -0.31400000E+01           0.00000000E+00
  -0.31300000E+01           0.00000000E+00
  -0.31200000E+01           0.00000000E+00
  -0.31100000E+01           0.00000000E+00
  -0.31000000E+01           0.00000000E+00
  -0.30900000E+01           0.00000000E+00
  -0.30800000E+01           0.00000000E+00
  -0.30700000E+01           0.00000000E+00
  -0.30600000E+01           0.00000000E+00
  -0.30500000E+01           0.00000000E+00
  -0.30400000E+01           0.00000000E+00
  -0.30300000E+01           0.00000000E+00
  -0.30200000E+01           0.00000000E+00
  -0.30100000E+01           0.00000000E+00
  -0.30000000E+01           0.00000000E+00
  -0.29900000E+01           0.00000000E+00
  -0.29800000E+01           0.00000000E+00
  -0.29700000E+01           0.00000000E+00
  -0.29600000E+01           0.00000000E+00
  -0.29500000E+01           0.00000000E+00
  -0.29400000E+01           0.00000000E+00
  -0.29300000E+01           0.00000000E+00
  -0.29200000E+01           0.00000000E+00
  -0.29100000E+01           0.00000000E+00
  -0.29000000E+01           0.00000000E+00
  -0.28900000E+01           0.00000000E+00
  -0.28800000E+01           0.00000000E+00
  -0.28700000E+01           0.00000000E+00
  -0.28600000E+01           0.00000000E+00
  -0.28500000E+01           0.00000000E+00
  -0.28400000E+01           0.00000000E+00
  -0.28300000E+01           0.00000000E+00
  -0.28200000E+01           0.00000000E+00
  -0.28100000E+01           0.00000000E+00
  -0.28000000E+01           0.00000000E+00
  -0.27900000E+01           0.00000000E+00
  -0.27800000E+01           0.00000000E+00
  -0.27700000E+01           0.00000000E+00
  -0.27600000E+01           0.00000000E+00
  -0.27500000E+01           0.00000000E+00
  -0.27400000E+01           0.00000000E+00
  -0.27300000E+01           0.00000000E+00
  -0.27200000E+01           0.00000000E+00
  -0.27100000E+01           0.00000000E+00
  -0.27000000E+01           0.00000000E+00
  -0.26900000E+01           0.00000000E+00
  -0.26800000E+01           0.00000000E+00
  -0.26700000E+01           0.00000000E+00
  -0.26600000E+01           0.00000000E+00
  -0.26500000E+01           0.00000000E+00
  -0.26400000E+01           0.00000000E+00
  -0.26300000E+01           0.00000000E+00
  -0.26200000E+01           0.00000000E+00
  -0.26100000E+01           0.00000000E+00
  -0.26000000E+01           0.00000000E+00
  -0.25900000E+01           0.00000000E+00
  -0.25800000E+01           0.00000000E+00
  -0.25700000E+01           0.00000000E+00
  -0.25600000E+01           0.00000000E+00
  -0.25500000E+01           0.00000000E+00
  -0.25400000E+01           0.00000000E+00
  -0.25300000E+01           0.00000000E+00
  -0.25200000E+01           0.00000000E+00
  -0.25100000E+01           0.00000000E+00
  -0.25000000E+01           0.00000000E+00
  -0.24900000E+01           0.00000000E+00
  -0.24800000E+01           0.00000000E+00
  -0.24700000E+01           0.00000000E+00
  -0.24600000E+01           0.00000000E+00
  -0.24500000E+01           0.00000000E+00
  -0.24400000E+01           0.00000000E+00
  -0.24300000E+01           0.00000000E+00
  -0.24200000E+01           0.00000000E+00
  -0.24100000E+01           0.00000000E+00
  -0.24000000E+01           0.00000000E+00
  -0.23900000E+01           0.00000000E+00
  -0.23800000E+01           0.00000000E+00
  -0.23700000E+01           0.00000000E+00
  -0.23600000E+01           0.00000000E+00
  -0.23500000E+01           0.00000000E+00
  -0.23400000E+01           0.00000000E+00
  -0.23300000E+01           0.00000000E+00
  -0.23200000E+01           0.00000000E+00
  -0.23100000E+01           0.00000000E+00
  -0.23000000E+01           0.00000000E+00
  -0.22900000E+01           0.00000000E+00
  -0.22800000E+01           0.00000000E+00
  -0.22700000E+01           0.00000000E+00
  -0.22600000E+01           0.00000000E+00
  -0.22500000E+01           0.00000000E+00
  -0.22400000E+01           0.00000000E+00
  -0.22300000E+01           0.00000000E+00
  -0.22200000E+01           0.00000000E+00
  -0.22100000E+01           0.00000000E+00
  -0.22000000E+01           0.00000000E+00
  -0.21900000E+01           0.00000000E+00
  -0.21800000E+01           0.00000000E+00
  -0.21700000E+01           0.00000000E+00
  -0.21600000E+01           0.00000000E+00
  -0.21500000E+01           0.00000000E+00
  -0.21400000E+01           0.00000000E+00
  -0.21300000E+01           0.00000000E+00
  -0.21200000E+01           0.00000000E+00
  -0.21100000E+01           0.00000000E+00
  -0.21000000E+01           0.00000000E+00
  -0.20900000E+01           0.00000000E+00
  -0.20800000E+01           0.00000000E+00
  -0.20700000E+01           0.00000000E+00
  -0.20600000E+01           0.00000000E+00
  -0.20500000E+01           0.00000000E+00
  -0.20400000E+01           0.00000000E+00
  -0.20300000E+01           0.00000000E+00
  -0.20200000E+01           0.00000000E+00
  -0.20100000E+01           0.00000000E+00
  -0.20000000E+01           0.00000000E+00
  -0.19900000E+01           0.00000000E+00
  -0.19800000E+01           0.00000000E+00
  -0.19700000E+01           0.00000000E+00
  -0.19600000E+01           0.00000000E+00
  -0.19500000E+01           0.00000000E+00
  -0.19400000E+01           0.00000000E+00
  -0.19300000E+01           0.00000000E+00
  -0.19200000E+01           0.00000000E+00
  -0.19100000E+01           0.00000000E+00
  -0.19000000E+01           0.00000000E+00
  -0.18900000E+01           0.00000000E+00
  -0.18800000E+01           0.00000000E+00
  -0.18700000E+01           0.00000000E+00
  -0.18600000E+01           0.00000000E+00
  -0.18500000E+01           0.00000000E+00
  -0.18400000E+01           0.00000000E+00
  -0.18300000E+01           0.00000000E+00
  -0.18200000E+01           0.00000000E+00
  -0.18100000E+01           0.00000000E+00
  -0.18000000E+01           0.00000000E+00
  -0.17900000E+01           0.00000000E+00
  -0.17800000E+01           0.00000000E+00
  -0.17700000E+01           0.00000000E+00
  -0.17600000E+01           0.00000000E+00
  -0.17500000E+01           0.00000000E+00
  -0.17400000E+01           0.00000000E+00
  -0.17300000E+01           0.00000000E+00
  -0.17200000E+01           0.00000000E+00
  -0.17100000E+01           0.00000000E+00
  -0.17000000E+01           0.00000000E+00
  -0.16900000E+01           0.00000000E+00
  -0.16800000E+01           0.00000000E+00
  -0.16700000E+01           0.00000000E+00
  -0.16600000E+01           0.00000000E+00
  -0.16500000E+01           0.00000000E+00
  -0.16400000E+01           0.00000000E+00
  -0.16300000E+01           0.00000000E+00
  -0.16200000E+01           0.00000000E+00
  -0.16100000E+01           0.00000000E+00
  -0.16000000E+01           0.00000000E+00
  -0.15900000E+01           0.00000000E+00
  -0.15800000E+01           0.00000000E+00
  -0.15700000E+01           0.00000000E+00
  -0.15600000E+01           0.00000000E+00
  -0.15500000E+01           0.00000000E+00
  -0.15400000E+01           0.00000000E+00
  -0.15300000E+01           0.00000000E+00
  -0.15200000E+01           0.00000000E+00
  -0.15100000E+01           0.00000000E+00
  -0.15000000E+01           0.00000000E+00
  -0.14900000E+01           0.00000000E+00
[...]
  -0.64000000E+00           0.00000000E+00
  -0.63000000E+00           0.00000000E+00
  -0.62000000E+00           0.00000000E+00
  -0.61000000E+00           0.00000000E+00
  -0.60000000E+00           0.00000000E+00
  -0.59000000E+00           0.00000000E+00
  -0.58000000E+00           0.00000000E+00
  -0.57000000E+00           0.00000000E+00
  -0.56000000E+00           0.00000000E+00
  -0.55000000E+00           0.00000000E+00
  -0.54000000E+00           0.00000000E+00
  -0.53000000E+00           0.00000000E+00
  -0.52000000E+00           0.00000000E+00
  -0.51000000E+00           0.00000000E+00
  -0.50000000E+00           0.00000000E+00
  -0.49000000E+00           0.00000000E+00
  -0.48000000E+00           0.00000000E+00
  -0.47000000E+00           0.00000000E+00
  -0.46000000E+00           0.00000000E+00
  -0.45000000E+00           0.00000000E+00
  -0.44000000E+00           0.00000000E+00
  -0.43000000E+00           0.00000000E+00
  -0.42000000E+00           0.00000000E+00
  -0.41000000E+00           0.00000000E+00
  -0.40000000E+00           0.00000000E+00
  -0.39000000E+00           0.00000000E+00
  -0.38000000E+00           0.00000000E+00
  -0.37000000E+00           0.00000000E+00
  -0.36000000E+00           0.00000000E+00
  -0.35000000E+00           0.00000000E+00
  -0.34000000E+00           0.00000000E+00
  -0.33000000E+00           0.00000000E+00
  -0.32000000E+00           0.00000000E+00
  -0.31000000E+00           0.00000000E+00
  -0.30000000E+00           0.00000000E+00
  -0.29000000E+00           0.00000000E+00
  -0.28000000E+00           0.00000000E+00
  -0.27000000E+00           0.00000000E+00
  -0.26000000E+00           0.00000000E+00
  -0.25000000E+00           0.00000000E+00
  -0.24000000E+00           0.00000000E+00
  -0.23000000E+00           0.00000000E+00
  -0.22000000E+00           0.00000000E+00
  -0.21000000E+00           0.00000000E+00
  -0.20000000E+00           0.00000000E+00
  -0.19000000E+00           0.00000000E+00
  -0.18000000E+00           0.00000000E+00
  -0.17000000E+00           0.00000000E+00
  -0.16000000E+00           0.00000000E+00
  -0.15000000E+00           0.00000000E+00
  -0.14000000E+00           0.00000000E+00
  -0.13000000E+00           0.00000000E+00
  -0.12000000E+00           0.00000000E+00
  -0.11000000E+00           0.00000000E+00
  -0.10000000E+00           0.00000000E+00
  -0.90000000E-01           0.00000000E+00
  -0.80000000E-01           0.00000000E+00
  -0.70000000E-01           0.00000000E+00
  -0.60000000E-01           0.00000000E+00
  -0.50000000E-01           0.00000000E+00
  -0.40000000E-01           0.00000000E+00
  -0.30000000E-01           0.00000000E+00
  -0.20000000E-01           0.00000000E+00
  -0.10000000E-01           0.00000000E+00
   0.00000000E+00           0.74652778E-05
   0.10000000E-01           0.21267361E-03
   0.20000000E-01           0.79375000E-03
   0.30000000E-01           0.17279514E-02
   0.40000000E-01           0.30536458E-02
   0.50000000E-01           0.47251736E-02
   0.60000000E-01           0.67097222E-02
   0.70000000E-01           0.90402778E-02
   0.80000000E-01           0.11697743E-01
   0.90000000E-01           0.14764583E-01
   0.10000000E+00           0.18124306E-01
   0.11000000E+00           0.21754340E-01
   0.12000000E+00           0.25730556E-01
   0.13000000E+00           0.29892535E-01
   0.14000000E+00           0.34278125E-01
   0.15000000E+00           0.39127778E-01
   0.16000000E+00           0.44223611E-01
   0.17000000E+00           0.49339236E-01
   0.18000000E+00           0.54914236E-01
   0.19000000E+00           0.60563194E-01
   0.20000000E+00           0.66499479E-01
   0.21000000E+00           0.72849132E-01
   0.22000000E+00           0.79169965E-01
   0.23000000E+00           0.85738889E-01
   0.24000000E+00           0.92547049E-01
   0.25000000E+00           0.99524306E-01
   0.26000000E+00           0.10675781E+00
   0.27000000E+00           0.11374809E+00
   0.28000000E+00           0.12193628E+00
   0.29000000E+00           0.12882465E+00
   0.30000000E+00           0.13677170E+00
   0.31000000E+00           0.14491910E+00
   0.32000000E+00           0.15258854E+00
   0.33000000E+00           0.16075573E+00
   0.34000000E+00           0.16921337E+00
   0.35000000E+00           0.17778976E+00
   0.36000000E+00           0.18597726E+00
   0.37000000E+00           0.19427587E+00
   0.38000000E+00           0.20298003E+00
   0.39000000E+00           0.21142118E+00
   0.40000000E+00           0.22012726E+00
   0.41000000E+00           0.22920017E+00
   0.42000000E+00           0.23795365E+00
   0.43000000E+00           0.24673524E+00
   0.44000000E+00           0.25557656E+00
   0.45000000E+00           0.26476719E+00
   0.46000000E+00           0.27337969E+00
   0.47000000E+00           0.28256146E+00
   0.48000000E+00           0.29120868E+00
   0.49000000E+00           0.30045417E+00
   0.50000000E+00           0.30911372E+00
   0.51000000E+00           0.31835365E+00
   0.52000000E+00           0.32705069E+00
   0.53000000E+00           0.33620747E+00
   0.54000000E+00           0.34525729E+00
   0.55000000E+00           0.35426597E+00
   0.56000000E+00           0.36241024E+00
   0.57000000E+00           0.37115712E+00
   0.58000000E+00           0.37941667E+00
   0.59000000E+00           0.38847535E+00
   0.60000000E+00           0.39732413E+00
   0.61000000E+00           0.40517170E+00
   0.62000000E+00           0.41433472E+00
   0.63000000E+00           0.42152153E+00
   0.64000000E+00           0.43019514E+00
   0.65000000E+00           0.43821997E+00
   0.66000000E+00           0.44580816E+00
   0.67000000E+00           0.45388247E+00
   0.68000000E+00           0.46255069E+00
   0.69000000E+00           0.46994323E+00
   0.70000000E+00           0.47756198E+00
   0.71000000E+00           0.48497170E+00
   0.72000000E+00           0.49174653E+00
   0.73000000E+00           0.49901840E+00
   0.74000000E+00           0.50656302E+00
   0.75000000E+00           0.51342882E+00
   0.76000000E+00           0.52042899E+00
   0.77000000E+00           0.52699618E+00
   0.78000000E+00           0.53324132E+00
   0.79000000E+00           0.54034774E+00
   0.80000000E+00           0.54660712E+00
   0.81000000E+00           0.55249097E+00
   0.82000000E+00           0.55801389E+00
   0.83000000E+00           0.56461111E+00
   0.84000000E+00           0.56957691E+00
   0.85000000E+00           0.57570469E+00
   0.86000000E+00           0.58039184E+00
   0.87000000E+00           0.58574566E+00
   0.88000000E+00           0.59149931E+00
   0.89000000E+00           0.59572726E+00
   0.90000000E+00           0.60022778E+00
   0.91000000E+00           0.60511094E+00
   0.92000000E+00           0.60990781E+00
   0.93000000E+00           0.61419132E+00
   0.94000000E+00           0.61777986E+00
   0.95000000E+00           0.62185069E+00
   0.96000000E+00           0.62551736E+00
   0.97000000E+00           0.62812500E+00
   0.98000000E+00           0.63246007E+00
   0.99000000E+00           0.63566528E+00
   0.10000000E+01           0.63752708E+00
   0.10100000E+01           0.64118837E+00
   0.10200000E+01           0.64368698E+00
   0.10300000E+01           0.64735000E+00
   0.10400000E+01           0.64828872E+00
   0.10500000E+01           0.65089618E+00
   0.10600000E+01           0.65306319E+00
   0.10700000E+01           0.65455503E+00
   0.10800000E+01           0.65639549E+00
   0.10900000E+01           0.65813160E+00
   0.11000000E+01           0.65900243E+00
   0.11100000E+01           0.66105538E+00
   0.11200000E+01           0.66123281E+00
   0.11300000E+01           0.66145486E+00
   0.11400000E+01           0.66253281E+00
   0.11500000E+01           0.66320729E+00
   0.11600000E+01           0.66398403E+00
   0.11700000E+01           0.66391076E+00
   0.11800000E+01           0.66451528E+00
   0.11900000E+01           0.66428212E+00
   0.12000000E+01           0.66357760E+00
   0.12100000E+01           0.66270556E+00
   0.12200000E+01           0.66266840E+00
   0.12300000E+01           0.66231562E+00
   0.12400000E+01           0.66070521E+00
   0.12500000E+01           0.66011649E+00
   0.12600000E+01           0.65860885E+00
   0.12700000E+01           0.65754097E+00
   0.12800000E+01           0.65579340E+00
   0.12900000E+01           0.65416215E+00
   0.13000000E+01           0.65198819E+00
   0.13100000E+01           0.65078767E+00
   0.13200000E+01           0.64851076E+00
   0.13300000E+01           0.64663854E+00
   0.13400000E+01           0.64442118E+00
   0.13500000E+01           0.64116007E+00
   0.13600000E+01           0.63938438E+00
   0.13700000E+01           0.63607604E+00
   0.13800000E+01           0.63358750E+00
   0.13900000E+01           0.63095451E+00
   0.14000000E+01           0.62753160E+00
   0.14100000E+01           0.62424306E+00
   0.14200000E+01           0.62116979E+00
   0.14300000E+01           0.61821597E+00
   0.14400000E+01           0.61441944E+00
   0.14500000E+01           0.61098177E+00
   0.14600000E+01           0.60700330E+00
   0.14700000E+01           0.60384236E+00
   0.14800000E+01           0.59969323E+00
   0.14900000E+01           0.59577170E+00
   0.15000000E+01           0.59207622E+00
   0.15100000E+01           0.58725295E+00
   0.15200000E+01           0.58298351E+00
   0.15300000E+01           0.57909566E+00
   0.15400000E+01           0.57460052E+00
   0.15500000E+01           0.57029167E+00
   0.15600000E+01           0.56569844E+00
   0.15700000E+01           0.56082760E+00
   0.15800000E+01           0.55584271E+00
   0.15900000E+01           0.55149722E+00
   0.16000000E+01           0.54651580E+00
   0.16100000E+01           0.54118628E+00
   0.16200000E+01           0.53677292E+00
   0.16300000E+01           0.53176493E+00
   0.16400000E+01           0.52634479E+00
   0.16500000E+01           0.52201962E+00
   0.16600000E+01           0.51641545E+00
   0.16700000E+01           0.51114253E+00
   0.16800000E+01           0.50625937E+00
   0.16900000E+01           0.50017309E+00
   0.17000000E+01           0.49510469E+00
   0.17100000E+01           0.48972691E+00
   0.17200000E+01           0.48394392E+00
   0.17300000E+01           0.47882049E+00
   0.17400000E+01           0.47306597E+00
   0.17500000E+01           0.46797951E+00
   0.17600000E+01           0.46169948E+00
   0.17700000E+01           0.45650312E+00
   0.17800000E+01           0.45073785E+00
   0.17900000E+01           0.44484618E+00
   0.18000000E+01           0.43919115E+00
   0.18100000E+01           0.43316927E+00
   0.18200000E+01           0.42744236E+00
   0.18300000E+01           0.42222969E+00
   0.18400000E+01           0.41605226E+00
   0.18500000E+01           0.41049444E+00
   0.18600000E+01           0.40449844E+00
   0.18700000E+01           0.39834583E+00
   0.18800000E+01           0.39289618E+00
   0.18900000E+01           0.38710295E+00
   0.19000000E+01           0.38118368E+00
   0.19100000E+01           0.37541215E+00
   0.19200000E+01           0.36978733E+00
   0.19300000E+01           0.36410538E+00
   0.19400000E+01           0.35823594E+00
   0.19500000E+01           0.35173733E+00
   0.19600000E+01           0.34602865E+00
   0.19700000E+01           0.34038177E+00
   0.19800000E+01           0.33431927E+00
   0.19900000E+01           0.32852552E+00
   0.20000000E+01           0.32247552E+00
   0.20100000E+01           0.31696337E+00
   0.20200000E+01           0.31126076E+00
   0.20300000E+01           0.30540608E+00
   0.20400000E+01           0.29987222E+00
   0.20500000E+01           0.29409253E+00
   0.20600000E+01           0.28870764E+00
   0.20700000E+01           0.28347396E+00
   0.20800000E+01           0.27842448E+00
   0.20900000E+01           0.27315920E+00
   0.21000000E+01           0.26744306E+00
   0.21100000E+01           0.26258854E+00
   0.21200000E+01           0.25722222E+00
   0.21300000E+01           0.25233125E+00
   0.21400000E+01           0.24691111E+00
   0.21500000E+01           0.24280590E+00
   0.21600000E+01           0.23775677E+00
   0.21700000E+01           0.23292031E+00
   0.21800000E+01           0.22778281E+00
   0.21900000E+01           0.22357622E+00
   0.22000000E+01           0.21888299E+00
   0.22100000E+01           0.21435226E+00
   0.22200000E+01           0.20983333E+00
   0.22300000E+01           0.20536632E+00
   0.22400000E+01           0.20115260E+00
   0.22500000E+01           0.19701493E+00
   0.22600000E+01           0.19290955E+00
   0.22700000E+01           0.18850174E+00
   0.22800000E+01           0.18442014E+00
   0.22900000E+01           0.18054826E+00
   0.23000000E+01           0.17662396E+00
   0.23100000E+01           0.17283819E+00
   0.23200000E+01           0.16861910E+00
   0.23300000E+01           0.16499896E+00
   0.23400000E+01           0.16113507E+00
   0.23500000E+01           0.15734983E+00
   0.23600000E+01           0.15383177E+00
   0.23700000E+01           0.15033281E+00
   0.23800000E+01           0.14672951E+00
   0.23900000E+01           0.14343056E+00
   0.24000000E+01           0.14030885E+00
   0.24100000E+01           0.13700434E+00
   0.24200000E+01           0.13350174E+00
   0.24300000E+01           0.13046476E+00
   0.24400000E+01           0.12701267E+00
   0.24500000E+01           0.12429983E+00
   0.24600000E+01           0.12101285E+00
   0.24700000E+01           0.11812760E+00
   0.24800000E+01           0.11508819E+00
   0.24900000E+01           0.11211146E+00
   0.25000000E+01           0.10941701E+00
   0.25100000E+01           0.10674045E+00
   0.25200000E+01           0.10408785E+00
   0.25300000E+01           0.10146372E+00
   0.25400000E+01           0.98646007E-01
   0.25500000E+01           0.96543750E-01
   0.25600000E+01           0.93751562E-01
   0.25700000E+01           0.91072396E-01
   0.25800000E+01           0.88704167E-01
   0.25900000E+01           0.86345139E-01
   0.26000000E+01           0.84323090E-01
   0.26100000E+01           0.81863542E-01
   0.26200000E+01           0.79710417E-01
   0.26300000E+01           0.77529167E-01
   0.26400000E+01           0.75299479E-01
   0.26500000E+01           0.73254861E-01
   0.26600000E+01           0.71140278E-01
   0.26700000E+01           0.69192188E-01
   0.26800000E+01           0.67282812E-01
   0.26900000E+01           0.65554687E-01
   0.27000000E+01           0.63556076E-01
   0.27100000E+01           0.61886979E-01
   0.27200000E+01           0.59895139E-01
   0.27300000E+01           0.58246007E-01
   0.27400000E+01           0.56427951E-01
   0.27500000E+01           0.54806250E-01
   0.27600000E+01           0.53091667E-01
   0.27700000E+01           0.51490972E-01
   0.27800000E+01           0.50099306E-01
   0.27900000E+01           0.48360243E-01
   0.28000000E+01           0.47045486E-01
   0.28100000E+01           0.45533160E-01
   0.28200000E+01           0.44064410E-01
   0.28300000E+01           0.42873090E-01
   0.28400000E+01           0.41456771E-01
   0.28500000E+01           0.40150174E-01
   0.28600000E+01           0.38796181E-01
   0.28700000E+01           0.37595486E-01
   0.28800000E+01           0.36372396E-01
   0.28900000E+01           0.35244097E-01
   0.29000000E+01           0.34108333E-01
   0.29100000E+01           0.32962153E-01
   0.29200000E+01           0.31862500E-01
   0.29300000E+01           0.30706944E-01
   0.29400000E+01           0.29779167E-01
   0.29500000E+01           0.28668576E-01
   0.29600000E+01           0.27842535E-01
   0.29700000E+01           0.26825694E-01
   0.29800000E+01           0.26019792E-01
   0.29900000E+01           0.25148264E-01
   0.30000000E+01           0.24293403E-01
   0.30100000E+01           0.23426042E-01
   0.30200000E+01           0.22439410E-01
   0.30300000E+01           0.21601042E-01
   0.30400000E+01           0.20921528E-01
   0.30500000E+01           0.20121181E-01
   0.30600000E+01           0.19317882E-01
   0.30700000E+01           0.18685937E-01
   0.30800000E+01           0.18069097E-01
   0.30900000E+01           0.17364931E-01
   0.31000000E+01           0.16638715E-01
   0.31100000E+01           0.16062500E-01
   0.31200000E+01           0.15401215E-01
   0.31300000E+01           0.14801910E-01
   0.31400000E+01           0.14348090E-01
   0.31500000E+01           0.13742361E-01
   0.31600000E+01           0.13164757E-01
   0.31700000E+01           0.12535417E-01
   0.31800000E+01           0.12147569E-01
   0.31900000E+01           0.11641493E-01
   0.32000000E+01           0.11137500E-01
   0.32100000E+01           0.10601736E-01
   0.32200000E+01           0.10196007E-01
   0.32300000E+01           0.98541667E-02
   0.32400000E+01           0.93611111E-02
   0.32500000E+01           0.89425347E-02
   0.32600000E+01           0.86031250E-02
   0.32700000E+01           0.82565972E-02
   0.32800000E+01           0.77939236E-02
   0.32900000E+01           0.75024306E-02
   0.33000000E+01           0.72218750E-02
   0.33100000E+01           0.68083333E-02
   0.33200000E+01           0.65965278E-02
   0.33300000E+01           0.62210069E-02
   0.33400000E+01           0.59564236E-02
   0.33500000E+01           0.56694444E-02
   0.33600000E+01           0.54588542E-02
   0.33700000E+01           0.51550347E-02
   0.33800000E+01           0.48861111E-02
   0.33900000E+01           0.46335069E-02
   0.34000000E+01           0.43960069E-02
   0.34100000E+01           0.42442708E-02
   0.34200000E+01           0.39449653E-02
   0.34300000E+01           0.37637153E-02
   0.34400000E+01           0.35357639E-02
   0.34500000E+01           0.33828125E-02
   0.34600000E+01           0.32130208E-02
   0.34700000E+01           0.30404514E-02
   0.34800000E+01           0.28439236E-02
   0.34900000E+01           0.26717014E-02
   0.35000000E+01           0.25678819E-02
   0.35100000E+01           0.24131944E-02
   0.35200000E+01           0.22557292E-02
   0.35300000E+01           0.21098958E-02
   0.35400000E+01           0.20071181E-02
   0.35500000E+01           0.18918403E-02
   0.35600000E+01           0.17909722E-02
   0.35700000E+01           0.16732639E-02
   0.35800000E+01           0.15447917E-02
   0.35900000E+01           0.14350694E-02
   0.36000000E+01           0.13375000E-02
   0.36100000E+01           0.12548611E-02
   0.36200000E+01           0.11791667E-02
   0.36300000E+01           0.10800347E-02
   0.36400000E+01           0.99600694E-03
   0.36500000E+01           0.91770833E-03
   0.36600000E+01           0.87951389E-03
   0.36700000E+01           0.81475694E-03
   0.36800000E+01           0.70538194E-03
   0.36900000E+01           0.68090278E-03
   0.37000000E+01           0.62378472E-03
   0.37100000E+01           0.58107639E-03
   0.37200000E+01           0.53281250E-03
   0.37300000E+01           0.48750000E-03
   0.37400000E+01           0.43645833E-03
   0.37500000E+01           0.38819444E-03
   0.37600000E+01           0.35295139E-03
   0.37700000E+01           0.33576389E-03
   0.37800000E+01           0.29010417E-03
   0.37900000E+01           0.24878472E-03
   0.38000000E+01           0.22743056E-03
   0.38100000E+01           0.19531250E-03
   0.38200000E+01           0.17430556E-03
   0.38300000E+01           0.15347222E-03
   0.38400000E+01           0.13211806E-03
   0.38500000E+01           0.11059028E-03
   0.38600000E+01           0.10642361E-03
   0.38700000E+01           0.81250000E-04
   0.38800000E+01           0.68923611E-04
   0.38900000E+01           0.56423611E-04
   0.39000000E+01           0.47916667E-04
   0.39100000E+01           0.39583333E-04
   0.39200000E+01           0.29861111E-04
   0.39300000E+01           0.21180556E-04
   0.39400000E+01           0.19965278E-04
   0.39500000E+01           0.86805556E-05
   0.39600000E+01           0.78125000E-05
   0.39700000E+01           0.26041667E-05
   0.39800000E+01           0.12152778E-05
   0.39900000E+01           0.69444444E-06
   0.40000000E+01           0.00000000E+00
