 #written on 11Aug2024 at 08:10:10 
 #----------------------------------------------- MONTECARLO ---------------------------------------------------#
 # Temp      Magnetization     Energy_ave          C_M              Sus              U_E              U_M       #
 #--------------------------------------------------------------------------------------------------------------#
 200.0000   0.59863982E-02  -0.61480644E+03   0.14978444E+01   0.74164397E-04   0.66657499E+00   0.44145340E+00
 201.0000   0.60084385E-02  -0.61329165E+03   0.15077159E+01   0.74137590E-04   0.66657300E+00   0.44230633E+00
 202.0000   0.60231369E-02  -0.61178917E+03   0.15163376E+01   0.74297821E-04   0.66657106E+00   0.44180741E+00
 203.0000   0.60434637E-02  -0.61026207E+03   0.15246005E+01   0.74392768E-04   0.66656910E+00   0.44156839E+00
 204.0000   0.60648001E-02  -0.60874077E+03   0.15354608E+01   0.74568580E-04   0.66656694E+00   0.44199425E+00
 205.0000   0.60835938E-02  -0.60717454E+03   0.15554513E+01   0.74798035E-04   0.66656413E+00   0.44143562E+00
 206.0000   0.60972720E-02  -0.60561149E+03   0.15622221E+01   0.74566713E-04   0.66656213E+00   0.44252485E+00
 207.0000   0.61191130E-02  -0.60403814E+03   0.15801809E+01   0.74580457E-04   0.66655935E+00   0.44306624E+00
 208.0000   0.61405523E-02  -0.60244004E+03   0.15920752E+01   0.74954540E-04   0.66655691E+00   0.44208184E+00
 209.0000   0.61596541E-02  -0.60086460E+03   0.16144502E+01   0.74913373E-04   0.66655371E+00   0.44239836E+00
 210.0000   0.61813837E-02  -0.59923639E+03   0.16326271E+01   0.75009907E-04   0.66655071E+00   0.44298288E+00
 211.0000   0.61921799E-02  -0.59763425E+03   0.16468748E+01   0.75162459E-04   0.66654796E+00   0.44167394E+00
 212.0000   0.62139105E-02  -0.59597078E+03   0.16532732E+01   0.75063946E-04   0.66654570E+00   0.44286561E+00
 213.0000   0.62368022E-02  -0.59428762E+03   0.16798721E+01   0.75164746E-04   0.66654189E+00   0.44334266E+00
 214.0000   0.62575777E-02  -0.59262337E+03   0.16832944E+01   0.75466787E-04   0.66653974E+00   0.44297672E+00
 215.0000   0.62689791E-02  -0.59093227E+03   0.17059037E+01   0.75408675E-04   0.66653609E+00   0.44268675E+00
 216.0000   0.62917116E-02  -0.58921589E+03   0.17250473E+01   0.75623378E-04   0.66653262E+00   0.44242128E+00
 217.0000   0.63135970E-02  -0.58748417E+03   0.17377695E+01   0.75625048E-04   0.66652958E+00   0.44379495E+00
 218.0000   0.63328970E-02  -0.58574284E+03   0.17579886E+01   0.75716510E-04   0.66652587E+00   0.44372046E+00
 219.0000   0.63440215E-02  -0.58398077E+03   0.17760476E+01   0.75511490E-04   0.66652225E+00   0.44371178E+00
 220.0000   0.63644005E-02  -0.58218227E+03   0.17922237E+01   0.75796951E-04   0.66651869E+00   0.44335640E+00
 221.0000   0.63821011E-02  -0.58036785E+03   0.18139417E+01   0.76071801E-04   0.66651458E+00   0.44265661E+00
 222.0000   0.64063252E-02  -0.57857354E+03   0.18365236E+01   0.75852897E-04   0.66651035E+00   0.44404943E+00
 223.0000   0.64189005E-02  -0.57672149E+03   0.18578186E+01   0.76212954E-04   0.66650607E+00   0.44304124E+00
 224.0000   0.64406431E-02  -0.57486248E+03   0.18738918E+01   0.76167961E-04   0.66650218E+00   0.44351966E+00
 225.0000   0.64626394E-02  -0.57299292E+03   0.19014347E+01   0.76247873E-04   0.66649715E+00   0.44407256E+00
 226.0000   0.64839073E-02  -0.57107136E+03   0.19216723E+01   0.76304807E-04   0.66649267E+00   0.44417247E+00
 227.0000   0.65050912E-02  -0.56912670E+03   0.19446791E+01   0.76579924E-04   0.66648781E+00   0.44387473E+00
 228.0000   0.65230872E-02  -0.56716888E+03   0.19708207E+01   0.76669147E-04   0.66648255E+00   0.44401533E+00
 229.0000   0.65427562E-02  -0.56520599E+03   0.19929537E+01   0.76712627E-04   0.66647755E+00   0.44403055E+00
 230.0000   0.65606227E-02  -0.56320352E+03   0.20130076E+01   0.76879309E-04   0.66647260E+00   0.44412035E+00
 231.0000   0.65770589E-02  -0.56119934E+03   0.20361726E+01   0.76820234E-04   0.66646722E+00   0.44438530E+00
 232.0000   0.65979322E-02  -0.55912969E+03   0.20562037E+01   0.77113583E-04   0.66646199E+00   0.44403017E+00
 233.0000   0.66165584E-02  -0.55706069E+03   0.20801075E+01   0.77175563E-04   0.66645628E+00   0.44443496E+00
 234.0000   0.66384517E-02  -0.55498517E+03   0.20994316E+01   0.77413906E-04   0.66645090E+00   0.44399343E+00
 235.0000   0.66628253E-02  -0.55286961E+03   0.21031209E+01   0.77480923E-04   0.66644696E+00   0.44422866E+00
 236.0000   0.66717686E-02  -0.55074050E+03   0.21063386E+01   0.77468349E-04   0.66644300E+00   0.44446182E+00
 237.0000   0.67013943E-02  -0.54865504E+03   0.21082313E+01   0.77908692E-04   0.66643914E+00   0.44379759E+00
 238.0000   0.67115296E-02  -0.54654204E+03   0.21135081E+01   0.77689272E-04   0.66643484E+00   0.44401202E+00
 239.0000   0.67374203E-02  -0.54441468E+03   0.21066241E+01   0.77859182E-04   0.66643177E+00   0.44485906E+00
 240.0000   0.67614834E-02  -0.54234183E+03   0.20754424E+01   0.78302295E-04   0.66643149E+00   0.44411315E+00
 241.0000   0.67768490E-02  -0.54025291E+03   0.20460782E+01   0.78295354E-04   0.66643103E+00   0.44386037E+00
 242.0000   0.67992694E-02  -0.53825151E+03   0.20156530E+01   0.78346402E-04   0.66643082E+00   0.44461339E+00
 243.0000   0.68140871E-02  -0.53625290E+03   0.19838402E+01   0.78454294E-04   0.66643085E+00   0.44427017E+00
 244.0000   0.68329456E-02  -0.53431053E+03   0.19255062E+01   0.78458289E-04   0.66643415E+00   0.44473268E+00
 245.0000   0.68544650E-02  -0.53236909E+03   0.18726266E+01   0.78639405E-04   0.66643700E+00   0.44459104E+00
 246.0000   0.68675292E-02  -0.53053662E+03   0.18350098E+01   0.78717389E-04   0.66643819E+00   0.44415335E+00
 247.0000   0.68889414E-02  -0.52871265E+03   0.17804265E+01   0.78837180E-04   0.66644162E+00   0.44414938E+00
 248.0000   0.69041763E-02  -0.52696680E+03   0.17374330E+01   0.79006331E-04   0.66644381E+00   0.44408219E+00
 249.0000   0.69235072E-02  -0.52525573E+03   0.16855200E+01   0.79028077E-04   0.66644731E+00   0.44421133E+00
 250.0000   0.69431709E-02  -0.52361927E+03   0.16456907E+01   0.79168809E-04   0.66644941E+00   0.44397361E+00
 251.0000   0.69576086E-02  -0.52198853E+03   0.15934403E+01   0.79196501E-04   0.66645331E+00   0.44405067E+00
 252.0000   0.69747378E-02  -0.52042278E+03   0.15598300E+01   0.79229475E-04   0.66645487E+00   0.44420714E+00
 253.0000   0.69941969E-02  -0.51887849E+03   0.15269994E+01   0.79412883E-04   0.66645646E+00   0.44440455E+00
 254.0000   0.70102474E-02  -0.51737411E+03   0.14892049E+01   0.79311712E-04   0.66645885E+00   0.44462721E+00
 255.0000   0.70267581E-02  -0.51592144E+03   0.14599206E+01   0.79263213E-04   0.66646018E+00   0.44519962E+00
 256.0000   0.70457575E-02  -0.51445412E+03   0.14362804E+01   0.79449838E-04   0.66646075E+00   0.44505240E+00
 257.0000   0.70618767E-02  -0.51304217E+03   0.14051999E+01   0.79559528E-04   0.66646254E+00   0.44473447E+00
 258.0000   0.70755023E-02  -0.51168102E+03   0.13816081E+01   0.79599057E-04   0.66646333E+00   0.44413213E+00
 259.0000   0.70944562E-02  -0.51027601E+03   0.13555688E+01   0.79814908E-04   0.66646452E+00   0.44450065E+00
 260.0000   0.71059875E-02  -0.50890512E+03   0.13375950E+01   0.79692628E-04   0.66646457E+00   0.44485449E+00
 261.0000   0.71252998E-02  -0.50757472E+03   0.13133875E+01   0.79742112E-04   0.66646566E+00   0.44469509E+00
 262.0000   0.71343315E-02  -0.50627360E+03   0.13011906E+01   0.79698233E-04   0.66646498E+00   0.44426462E+00
 263.0000   0.71590908E-02  -0.50499364E+03   0.12827966E+01   0.80036963E-04   0.66646530E+00   0.44394193E+00
 264.0000   0.71735755E-02  -0.50371999E+03   0.12623280E+01   0.79863387E-04   0.66646600E+00   0.44478125E+00
 265.0000   0.71923561E-02  -0.50246936E+03   0.12545856E+01   0.79988414E-04   0.66646472E+00   0.44466843E+00
 266.0000   0.71996077E-02  -0.50122452E+03   0.12335489E+01   0.80094206E-04   0.66646563E+00   0.44414720E+00
 267.0000   0.72150770E-02  -0.49998731E+03   0.12219893E+01   0.79831891E-04   0.66646501E+00   0.44477181E+00
 268.0000   0.72411938E-02  -0.49875806E+03   0.12094347E+01   0.80361274E-04   0.66646458E+00   0.44445646E+00
 269.0000   0.72554194E-02  -0.49757979E+03   0.11987896E+01   0.80173553E-04   0.66646392E+00   0.44480453E+00
 270.0000   0.72641669E-02  -0.49637988E+03   0.11866289E+01   0.80168051E-04   0.66646351E+00   0.44450151E+00
 271.0000   0.72806090E-02  -0.49518995E+03   0.11707159E+01   0.80477525E-04   0.66646379E+00   0.44380323E+00
 272.0000   0.72951876E-02  -0.49401867E+03   0.11617146E+01   0.80373403E-04   0.66646288E+00   0.44396515E+00
 273.0000   0.73118723E-02  -0.49287003E+03   0.11555447E+01   0.80391679E-04   0.66646152E+00   0.44416216E+00
 274.0000   0.73251616E-02  -0.49171412E+03   0.11429467E+01   0.80407087E-04   0.66646131E+00   0.44412242E+00
 275.0000   0.73393356E-02  -0.49058535E+03   0.11324227E+01   0.80533656E-04   0.66646078E+00   0.44389554E+00
 276.0000   0.73604006E-02  -0.48945140E+03   0.11214430E+01   0.80493409E-04   0.66646034E+00   0.44435667E+00
 277.0000   0.73703962E-02  -0.48833491E+03   0.11115653E+01   0.80444170E-04   0.66645973E+00   0.44463855E+00
 278.0000   0.73882933E-02  -0.48725432E+03   0.11001903E+01   0.80661817E-04   0.66645944E+00   0.44424591E+00
 279.0000   0.74085690E-02  -0.48613857E+03   0.10986405E+01   0.80576234E-04   0.66645729E+00   0.44478503E+00
 280.0000   0.74191412E-02  -0.48503555E+03   0.10848978E+01   0.80587955E-04   0.66645748E+00   0.44424907E+00
 281.0000   0.74338466E-02  -0.48396446E+03   0.10738428E+01   0.80571275E-04   0.66645721E+00   0.44450311E+00
 282.0000   0.74434327E-02  -0.48288050E+03   0.10678707E+01   0.80653301E-04   0.66645594E+00   0.44346936E+00
 283.0000   0.74555151E-02  -0.48181871E+03   0.10594181E+01   0.80564714E-04   0.66645520E+00   0.44440854E+00
 284.0000   0.74672987E-02  -0.48076417E+03   0.10546182E+01   0.80480247E-04   0.66645373E+00   0.44455717E+00
 285.0000   0.74818582E-02  -0.47972069E+03   0.10441891E+01   0.80646992E-04   0.66645344E+00   0.44429005E+00
 286.0000   0.74933363E-02  -0.47867859E+03   0.10395783E+01   0.80440587E-04   0.66645194E+00   0.44486833E+00
 287.0000   0.75212969E-02  -0.47765087E+03   0.10275230E+01   0.80839910E-04   0.66645203E+00   0.44441351E+00
 288.0000   0.75301497E-02  -0.47663683E+03   0.10249381E+01   0.80627640E-04   0.66645017E+00   0.44518064E+00
 289.0000   0.75444327E-02  -0.47560987E+03   0.10175728E+01   0.80881600E-04   0.66644928E+00   0.44409753E+00
 290.0000   0.75587638E-02  -0.47457203E+03   0.10093536E+01   0.80797595E-04   0.66644859E+00   0.44444030E+00
 291.0000   0.75717466E-02  -0.47357722E+03   0.10047914E+01   0.80850414E-04   0.66644716E+00   0.44448403E+00
 292.0000   0.75871301E-02  -0.47258582E+03   0.99249488E+00   0.80785178E-04   0.66644745E+00   0.44452453E+00
 293.0000   0.76001996E-02  -0.47158275E+03   0.99226071E+00   0.81055643E-04   0.66644506E+00   0.44409189E+00
 294.0000   0.76117899E-02  -0.47061207E+03   0.98416526E+00   0.80978229E-04   0.66644444E+00   0.44413442E+00
 295.0000   0.76208083E-02  -0.46962687E+03   0.97580739E+00   0.80835062E-04   0.66644391E+00   0.44413946E+00
 296.0000   0.76382534E-02  -0.46864463E+03   0.96917661E+00   0.80776546E-04   0.66644298E+00   0.44458445E+00
 297.0000   0.76524363E-02  -0.46769515E+03   0.96316655E+00   0.80684927E-04   0.66644195E+00   0.44516495E+00
 298.0000   0.76697818E-02  -0.46672019E+03   0.95737817E+00   0.81008987E-04   0.66644085E+00   0.44455431E+00
 299.0000   0.76889943E-02  -0.46576859E+03   0.94898072E+00   0.80995801E-04   0.66644042E+00   0.44495661E+00
