 #written on 18Sep2024 at 07:58:43 
 #----------------- MONTECARLO -------------------#
 #        M                      P(M)             #
 #------------------------------------------------#
 #T=   350.0000
  -0.20000000E+01           0.00000000E+00
  -0.19900000E+01           0.00000000E+00
  -0.19800000E+01           0.00000000E+00
  -0.19700000E+01           0.00000000E+00
  -0.19600000E+01           0.00000000E+00
  -0.19500000E+01           0.00000000E+00
  -0.19400000E+01           0.00000000E+00
  -0.19300000E+01           0.00000000E+00
  -0.19200000E+01           0.00000000E+00
  -0.19100000E+01           0.00000000E+00
  -0.19000000E+01           0.00000000E+00
  -0.18900000E+01           0.00000000E+00
  -0.18800000E+01           0.00000000E+00
  -0.18700000E+01           0.00000000E+00
  -0.18600000E+01           0.00000000E+00
  -0.18500000E+01           0.00000000E+00
  -0.18400000E+01           0.00000000E+00
  -0.18300000E+01           0.00000000E+00
  -0.18200000E+01           0.00000000E+00
  -0.18100000E+01           0.00000000E+00
  -0.18000000E+01           0.00000000E+00
  -0.17900000E+01           0.00000000E+00
  -0.17800000E+01           0.00000000E+00
  -0.17700000E+01           0.00000000E+00
  -0.17600000E+01           0.00000000E+00
  -0.17500000E+01           0.00000000E+00
  -0.17400000E+01           0.00000000E+00
  -0.17300000E+01           0.00000000E+00
  -0.17200000E+01           0.00000000E+00
  -0.17100000E+01           0.00000000E+00
  -0.17000000E+01           0.00000000E+00
  -0.16900000E+01           0.00000000E+00
  -0.16800000E+01           0.00000000E+00
  -0.16700000E+01           0.00000000E+00
  -0.16600000E+01           0.00000000E+00
  -0.16500000E+01           0.00000000E+00
  -0.16400000E+01           0.00000000E+00
  -0.16300000E+01           0.00000000E+00
  -0.16200000E+01           0.00000000E+00
  -0.16100000E+01           0.00000000E+00
  -0.16000000E+01           0.00000000E+00
  -0.15900000E+01           0.00000000E+00
  -0.15800000E+01           0.00000000E+00
  -0.15700000E+01           0.00000000E+00
  -0.15600000E+01           0.00000000E+00
  -0.15500000E+01           0.00000000E+00
  -0.15400000E+01           0.00000000E+00
  -0.15300000E+01           0.00000000E+00
  -0.15200000E+01           0.00000000E+00
  -0.15100000E+01           0.00000000E+00
  -0.15000000E+01           0.00000000E+00
  -0.14900000E+01           0.00000000E+00
  -0.14800000E+01           0.00000000E+00
  -0.14700000E+01           0.00000000E+00
  -0.14600000E+01           0.00000000E+00
  -0.14500000E+01           0.00000000E+00
  -0.14400000E+01           0.00000000E+00
  -0.14300000E+01           0.00000000E+00
  -0.14200000E+01           0.00000000E+00
  -0.14100000E+01           0.00000000E+00
  -0.14000000E+01           0.00000000E+00
  -0.13900000E+01           0.00000000E+00
  -0.13800000E+01           0.00000000E+00
  -0.13700000E+01           0.00000000E+00
  -0.13600000E+01           0.00000000E+00
  -0.13500000E+01           0.00000000E+00
  -0.13400000E+01           0.00000000E+00
  -0.13300000E+01           0.00000000E+00
  -0.13200000E+01           0.00000000E+00
  -0.13100000E+01           0.00000000E+00
  -0.13000000E+01           0.00000000E+00
  -0.12900000E+01           0.00000000E+00
  -0.12800000E+01           0.00000000E+00
  -0.12700000E+01           0.00000000E+00
  -0.12600000E+01           0.00000000E+00
  -0.12500000E+01           0.00000000E+00
  -0.12400000E+01           0.00000000E+00
  -0.12300000E+01           0.00000000E+00
  -0.12200000E+01           0.00000000E+00
  -0.12100000E+01           0.00000000E+00
  -0.12000000E+01           0.00000000E+00
  -0.11900000E+01           0.00000000E+00
  -0.11800000E+01           0.00000000E+00
  -0.11700000E+01           0.00000000E+00
  -0.11600000E+01           0.00000000E+00
  -0.11500000E+01           0.00000000E+00
  -0.11400000E+01           0.00000000E+00
  -0.11300000E+01           0.00000000E+00
  -0.11200000E+01           0.00000000E+00
  -0.11100000E+01           0.00000000E+00
  -0.11000000E+01           0.00000000E+00
  -0.10900000E+01           0.00000000E+00
  -0.10800000E+01           0.00000000E+00
  -0.10700000E+01           0.00000000E+00
  -0.10600000E+01           0.00000000E+00
  -0.10500000E+01           0.00000000E+00
  -0.10400000E+01           0.00000000E+00
  -0.10300000E+01           0.00000000E+00
  -0.10200000E+01           0.00000000E+00
  -0.10100000E+01           0.00000000E+00
  -0.10000000E+01           0.00000000E+00
  -0.99000000E+00           0.00000000E+00
  -0.98000000E+00           0.00000000E+00
  -0.97000000E+00           0.00000000E+00
  -0.96000000E+00           0.00000000E+00
  -0.95000000E+00           0.00000000E+00
  -0.94000000E+00           0.00000000E+00
  -0.93000000E+00           0.00000000E+00
  -0.92000000E+00           0.00000000E+00
  -0.91000000E+00           0.00000000E+00
  -0.90000000E+00           0.00000000E+00
  -0.89000000E+00           0.00000000E+00
  -0.88000000E+00           0.00000000E+00
  -0.87000000E+00           0.00000000E+00
  -0.86000000E+00           0.00000000E+00
  -0.85000000E+00           0.00000000E+00
  -0.84000000E+00           0.00000000E+00
  -0.83000000E+00           0.00000000E+00
  -0.82000000E+00           0.00000000E+00
  -0.81000000E+00           0.00000000E+00
  -0.80000000E+00           0.00000000E+00
  -0.79000000E+00           0.00000000E+00
  -0.78000000E+00           0.00000000E+00
  -0.77000000E+00           0.00000000E+00
  -0.76000000E+00           0.00000000E+00
  -0.75000000E+00           0.00000000E+00
  -0.74000000E+00           0.00000000E+00
  -0.73000000E+00           0.00000000E+00
  -0.72000000E+00           0.00000000E+00
  -0.71000000E+00           0.00000000E+00
  -0.70000000E+00           0.00000000E+00
  -0.69000000E+00           0.00000000E+00
  -0.68000000E+00           0.00000000E+00
  -0.67000000E+00           0.00000000E+00
  -0.66000000E+00           0.00000000E+00
  -0.65000000E+00           0.00000000E+00
  -0.64000000E+00           0.00000000E+00
  -0.63000000E+00           0.00000000E+00
  -0.62000000E+00           0.00000000E+00
  -0.61000000E+00           0.00000000E+00
  -0.60000000E+00           0.00000000E+00
  -0.59000000E+00           0.00000000E+00
  -0.58000000E+00           0.00000000E+00
  -0.57000000E+00           0.00000000E+00
  -0.56000000E+00           0.00000000E+00
  -0.55000000E+00           0.00000000E+00
  -0.54000000E+00           0.00000000E+00
  -0.53000000E+00           0.00000000E+00
  -0.52000000E+00           0.00000000E+00
  -0.51000000E+00           0.00000000E+00
  -0.50000000E+00           0.00000000E+00
  -0.49000000E+00           0.00000000E+00
  -0.48000000E+00           0.00000000E+00
  -0.47000000E+00           0.00000000E+00
  -0.46000000E+00           0.00000000E+00
  -0.45000000E+00           0.00000000E+00
  -0.44000000E+00           0.00000000E+00
  -0.43000000E+00           0.00000000E+00
  -0.42000000E+00           0.00000000E+00
  -0.41000000E+00           0.00000000E+00
  -0.40000000E+00           0.00000000E+00
  -0.39000000E+00           0.00000000E+00
  -0.38000000E+00           0.00000000E+00
  -0.37000000E+00           0.00000000E+00
  -0.36000000E+00           0.00000000E+00
  -0.35000000E+00           0.00000000E+00
  -0.34000000E+00           0.00000000E+00
  -0.33000000E+00           0.00000000E+00
  -0.32000000E+00           0.00000000E+00
  -0.31000000E+00           0.00000000E+00
  -0.30000000E+00           0.00000000E+00
  -0.29000000E+00           0.00000000E+00
  -0.28000000E+00           0.00000000E+00
  -0.27000000E+00           0.00000000E+00
  -0.26000000E+00           0.00000000E+00
  -0.25000000E+00           0.00000000E+00
  -0.24000000E+00           0.00000000E+00
  -0.23000000E+00           0.00000000E+00
  -0.22000000E+00           0.00000000E+00
  -0.21000000E+00           0.00000000E+00
  -0.20000000E+00           0.00000000E+00
  -0.19000000E+00           0.00000000E+00
  -0.18000000E+00           0.00000000E+00
  -0.17000000E+00           0.00000000E+00
  -0.16000000E+00           0.00000000E+00
  -0.15000000E+00           0.00000000E+00
  -0.14000000E+00           0.00000000E+00
  -0.13000000E+00           0.00000000E+00
  -0.12000000E+00           0.00000000E+00
  -0.11000000E+00           0.00000000E+00
  -0.10000000E+00           0.00000000E+00
  -0.90000000E-01           0.00000000E+00
  -0.80000000E-01           0.00000000E+00
  -0.70000000E-01           0.00000000E+00
  -0.60000000E-01           0.00000000E+00
  -0.50000000E-01           0.00000000E+00
  -0.40000000E-01           0.00000000E+00
  -0.30000000E-01           0.00000000E+00
  -0.20000000E-01           0.00000000E+00
  -0.10000000E-01           0.00000000E+00
   0.00000000E+00           0.28256173E-03
   0.10000000E-01           0.22840278E-02
   0.20000000E-01           0.46116512E-02
   0.30000000E-01           0.68689043E-02
   0.40000000E-01           0.92097994E-02
   0.50000000E-01           0.11488503E-01
   0.60000000E-01           0.13847377E-01
   0.70000000E-01           0.16095370E-01
   0.80000000E-01           0.18465586E-01
   0.90000000E-01           0.20853086E-01
   0.10000000E+00           0.23104167E-01
   0.11000000E+00           0.25378781E-01
   0.12000000E+00           0.27820679E-01
   0.13000000E+00           0.30211806E-01
   0.14000000E+00           0.32517207E-01
   0.15000000E+00           0.34902238E-01
   0.16000000E+00           0.37289892E-01
   0.17000000E+00           0.39732407E-01
   0.18000000E+00           0.42141667E-01
   0.19000000E+00           0.44652315E-01
   0.20000000E+00           0.47074151E-01
   0.21000000E+00           0.49488503E-01
   0.22000000E+00           0.51832253E-01
   0.23000000E+00           0.54626543E-01
   0.24000000E+00           0.56979012E-01
   0.25000000E+00           0.59648765E-01
   0.26000000E+00           0.62110031E-01
   0.27000000E+00           0.64678781E-01
   0.28000000E+00           0.67259105E-01
   0.29000000E+00           0.69895448E-01
   0.30000000E+00           0.72547454E-01
   0.31000000E+00           0.75264583E-01
   0.32000000E+00           0.78055170E-01
   0.33000000E+00           0.80664352E-01
   0.34000000E+00           0.83352006E-01
   0.35000000E+00           0.86319213E-01
   0.36000000E+00           0.88989660E-01
   0.37000000E+00           0.91949228E-01
   0.38000000E+00           0.94706559E-01
   0.39000000E+00           0.97580710E-01
   0.40000000E+00           0.10065849E+00
   0.41000000E+00           0.10366690E+00
   0.42000000E+00           0.10645988E+00
   0.43000000E+00           0.10964159E+00
   0.44000000E+00           0.11274900E+00
   0.45000000E+00           0.11570062E+00
   0.46000000E+00           0.11889745E+00
   0.47000000E+00           0.12220810E+00
   0.48000000E+00           0.12540934E+00
   0.49000000E+00           0.12852793E+00
   0.50000000E+00           0.13187785E+00
   0.51000000E+00           0.13530370E+00
   0.52000000E+00           0.13858287E+00
   0.53000000E+00           0.14186968E+00
   0.54000000E+00           0.14553434E+00
   0.55000000E+00           0.14894128E+00
   0.56000000E+00           0.15269051E+00
   0.57000000E+00           0.15597824E+00
   0.58000000E+00           0.15981281E+00
   0.59000000E+00           0.16343727E+00
   0.60000000E+00           0.16708542E+00
   0.61000000E+00           0.17075193E+00
   0.62000000E+00           0.17490154E+00
   0.63000000E+00           0.17859776E+00
   0.64000000E+00           0.18252261E+00
   0.65000000E+00           0.18665571E+00
   0.66000000E+00           0.19066003E+00
   0.67000000E+00           0.19465054E+00
   0.68000000E+00           0.19876790E+00
   0.69000000E+00           0.20301211E+00
   0.70000000E+00           0.20718904E+00
   0.71000000E+00           0.21189776E+00
   0.72000000E+00           0.21630965E+00
   0.73000000E+00           0.22058418E+00
   0.74000000E+00           0.22522384E+00
   0.75000000E+00           0.22971181E+00
   0.76000000E+00           0.23429715E+00
   0.77000000E+00           0.23908341E+00
   0.78000000E+00           0.24381944E+00
   0.79000000E+00           0.24860756E+00
   0.80000000E+00           0.25357755E+00
   0.81000000E+00           0.25856582E+00
   0.82000000E+00           0.26351265E+00
   0.83000000E+00           0.26881968E+00
   0.84000000E+00           0.27394074E+00
   0.85000000E+00           0.27897392E+00
   0.86000000E+00           0.28442469E+00
   0.87000000E+00           0.28979568E+00
   0.88000000E+00           0.29525355E+00
   0.89000000E+00           0.30053063E+00
   0.90000000E+00           0.30641312E+00
   0.91000000E+00           0.31214969E+00
   0.92000000E+00           0.31787971E+00
   0.93000000E+00           0.32369799E+00
   0.94000000E+00           0.32958426E+00
   0.95000000E+00           0.33559931E+00
   0.96000000E+00           0.34150833E+00
   0.97000000E+00           0.34778904E+00
   0.98000000E+00           0.35375301E+00
   0.99000000E+00           0.36011937E+00
   0.10000000E+01           0.36671744E+00
   0.10100000E+01           0.37309769E+00
   0.10200000E+01           0.37941512E+00
   0.10300000E+01           0.38591265E+00
   0.10400000E+01           0.39333272E+00
   0.10500000E+01           0.40000826E+00
   0.10600000E+01           0.40698403E+00
   0.10700000E+01           0.41348372E+00
   0.10800000E+01           0.42092238E+00
   0.10900000E+01           0.42773025E+00
   0.11000000E+01           0.43515147E+00
   0.11100000E+01           0.44223387E+00
   0.11200000E+01           0.44991489E+00
   0.11300000E+01           0.45725517E+00
   0.11400000E+01           0.46504213E+00
   0.11500000E+01           0.47280934E+00
   0.11600000E+01           0.48044761E+00
   0.11700000E+01           0.48862515E+00
   0.11800000E+01           0.49647762E+00
   0.11900000E+01           0.50460895E+00
   0.12000000E+01           0.51242369E+00
   0.12100000E+01           0.52102330E+00
   0.12200000E+01           0.52923981E+00
   0.12300000E+01           0.53783310E+00
   0.12400000E+01           0.54639815E+00
   0.12500000E+01           0.55504120E+00
   0.12600000E+01           0.56360139E+00
   0.12700000E+01           0.57262994E+00
   0.12800000E+01           0.58170069E+00
   0.12900000E+01           0.59075440E+00
   0.13000000E+01           0.59984645E+00
   0.13100000E+01           0.60941289E+00
   0.13200000E+01           0.61868619E+00
   0.13300000E+01           0.62806582E+00
   0.13400000E+01           0.63746042E+00
   0.13500000E+01           0.64770826E+00
   0.13600000E+01           0.65675787E+00
   0.13700000E+01           0.66694985E+00
   0.13800000E+01           0.67712616E+00
   0.13900000E+01           0.68684267E+00
   0.14000000E+01           0.69755085E+00
   0.14100000E+01           0.70821636E+00
   0.14200000E+01           0.71850718E+00
   0.14300000E+01           0.72890733E+00
   0.14400000E+01           0.73967099E+00
   0.14500000E+01           0.75042284E+00
   0.14600000E+01           0.76148179E+00
   0.14700000E+01           0.77184992E+00
   0.14800000E+01           0.78285448E+00
   0.14900000E+01           0.79480718E+00
   0.15000000E+01           0.80566829E+00
   0.15100000E+01           0.81746852E+00
   0.15200000E+01           0.82860448E+00
   0.15300000E+01           0.84027431E+00
   0.15400000E+01           0.85233989E+00
   0.15500000E+01           0.86408935E+00
   0.15600000E+01           0.87622353E+00
   0.15700000E+01           0.88800895E+00
   0.15800000E+01           0.90053627E+00
   0.15900000E+01           0.91243333E+00
   0.16000000E+01           0.92503017E+00
   0.16100000E+01           0.93789560E+00
   0.16200000E+01           0.94986597E+00
   0.16300000E+01           0.96306196E+00
   0.16400000E+01           0.97613758E+00
   0.16500000E+01           0.98923650E+00
   0.16600000E+01           0.10019405E+01
   0.16700000E+01           0.10154380E+01
   0.16800000E+01           0.10283456E+01
   0.16900000E+01           0.10424083E+01
   0.17000000E+01           0.10558872E+01
   0.17100000E+01           0.10691829E+01
   0.17200000E+01           0.10829231E+01
   0.17300000E+01           0.10967714E+01
   0.17400000E+01           0.11110079E+01
   0.17500000E+01           0.11254599E+01
   0.17600000E+01           0.11396946E+01
   0.17700000E+01           0.11535580E+01
   0.17800000E+01           0.11681941E+01
   0.17900000E+01           0.11831525E+01
   0.18000000E+01           0.11974823E+01
   0.18100000E+01           0.12122532E+01
   0.18200000E+01           0.12274294E+01
   0.18300000E+01           0.12420765E+01
   0.18400000E+01           0.12577865E+01
   0.18500000E+01           0.12718026E+01
   0.18600000E+01           0.12879120E+01
   0.18700000E+01           0.13031906E+01
   0.18800000E+01           0.13186085E+01
   0.18900000E+01           0.13346322E+01
   0.19000000E+01           0.13503083E+01
   0.19100000E+01           0.13658106E+01
   0.19200000E+01           0.13816123E+01
   0.19300000E+01           0.13981711E+01
   0.19400000E+01           0.14138343E+01
   0.19500000E+01           0.14298470E+01
   0.19600000E+01           0.14461593E+01
   0.19700000E+01           0.14633291E+01
   0.19800000E+01           0.14793610E+01
   0.19900000E+01           0.14964421E+01
   0.20000000E+01           0.75422539E+00
 #T=   351.0000
  -0.20000000E+01           0.00000000E+00
  -0.19900000E+01           0.00000000E+00
  -0.19800000E+01           0.00000000E+00
  -0.19700000E+01           0.00000000E+00
  -0.19600000E+01           0.00000000E+00
  -0.19500000E+01           0.00000000E+00
  -0.19400000E+01           0.00000000E+00
  -0.19300000E+01           0.00000000E+00
  -0.19200000E+01           0.00000000E+00
  -0.19100000E+01           0.00000000E+00
  -0.19000000E+01           0.00000000E+00
  -0.18900000E+01           0.00000000E+00
  -0.18800000E+01           0.00000000E+00
  -0.18700000E+01           0.00000000E+00
  -0.18600000E+01           0.00000000E+00
  -0.18500000E+01           0.00000000E+00
  -0.18400000E+01           0.00000000E+00
  -0.18300000E+01           0.00000000E+00
  -0.18200000E+01           0.00000000E+00
  -0.18100000E+01           0.00000000E+00
  -0.18000000E+01           0.00000000E+00
  -0.17900000E+01           0.00000000E+00
  -0.17800000E+01           0.00000000E+00
  -0.17700000E+01           0.00000000E+00
  -0.17600000E+01           0.00000000E+00
  -0.17500000E+01           0.00000000E+00
  -0.17400000E+01           0.00000000E+00
  -0.17300000E+01           0.00000000E+00
  -0.17200000E+01           0.00000000E+00
  -0.17100000E+01           0.00000000E+00
  -0.17000000E+01           0.00000000E+00
  -0.16900000E+01           0.00000000E+00
  -0.16800000E+01           0.00000000E+00
  -0.16700000E+01           0.00000000E+00
  -0.16600000E+01           0.00000000E+00
  -0.16500000E+01           0.00000000E+00
  -0.16400000E+01           0.00000000E+00
  -0.16300000E+01           0.00000000E+00
  -0.16200000E+01           0.00000000E+00
  -0.16100000E+01           0.00000000E+00
  -0.16000000E+01           0.00000000E+00
  -0.15900000E+01           0.00000000E+00
  -0.15800000E+01           0.00000000E+00
  -0.15700000E+01           0.00000000E+00
  -0.15600000E+01           0.00000000E+00
  -0.15500000E+01           0.00000000E+00
  -0.15400000E+01           0.00000000E+00
  -0.15300000E+01           0.00000000E+00
  -0.15200000E+01           0.00000000E+00
  -0.15100000E+01           0.00000000E+00
  -0.15000000E+01           0.00000000E+00
  -0.14900000E+01           0.00000000E+00
  -0.14800000E+01           0.00000000E+00
  -0.14700000E+01           0.00000000E+00
  -0.14600000E+01           0.00000000E+00
  -0.14500000E+01           0.00000000E+00
  -0.14400000E+01           0.00000000E+00
  -0.14300000E+01           0.00000000E+00
  -0.14200000E+01           0.00000000E+00
  -0.14100000E+01           0.00000000E+00
  -0.14000000E+01           0.00000000E+00
  -0.13900000E+01           0.00000000E+00
  -0.13800000E+01           0.00000000E+00
  -0.13700000E+01           0.00000000E+00
  -0.13600000E+01           0.00000000E+00
  -0.13500000E+01           0.00000000E+00
  -0.13400000E+01           0.00000000E+00
  -0.13300000E+01           0.00000000E+00
  -0.13200000E+01           0.00000000E+00
  -0.13100000E+01           0.00000000E+00
  -0.13000000E+01           0.00000000E+00
  -0.12900000E+01           0.00000000E+00
  -0.12800000E+01           0.00000000E+00
  -0.12700000E+01           0.00000000E+00
  -0.12600000E+01           0.00000000E+00
  -0.12500000E+01           0.00000000E+00
  -0.12400000E+01           0.00000000E+00
  -0.12300000E+01           0.00000000E+00
  -0.12200000E+01           0.00000000E+00
  -0.12100000E+01           0.00000000E+00
  -0.12000000E+01           0.00000000E+00
  -0.11900000E+01           0.00000000E+00
  -0.11800000E+01           0.00000000E+00
  -0.11700000E+01           0.00000000E+00
  -0.11600000E+01           0.00000000E+00
  -0.11500000E+01           0.00000000E+00
  -0.11400000E+01           0.00000000E+00
  -0.11300000E+01           0.00000000E+00
  -0.11200000E+01           0.00000000E+00
  -0.11100000E+01           0.00000000E+00
  -0.11000000E+01           0.00000000E+00
  -0.10900000E+01           0.00000000E+00
  -0.10800000E+01           0.00000000E+00
  -0.10700000E+01           0.00000000E+00
  -0.10600000E+01           0.00000000E+00
  -0.10500000E+01           0.00000000E+00
  -0.10400000E+01           0.00000000E+00
  -0.10300000E+01           0.00000000E+00
  -0.10200000E+01           0.00000000E+00
  -0.10100000E+01           0.00000000E+00
  -0.10000000E+01           0.00000000E+00
  -0.99000000E+00           0.00000000E+00
  -0.98000000E+00           0.00000000E+00
  -0.97000000E+00           0.00000000E+00
  -0.96000000E+00           0.00000000E+00
  -0.95000000E+00           0.00000000E+00
  -0.94000000E+00           0.00000000E+00
  -0.93000000E+00           0.00000000E+00
  -0.92000000E+00           0.00000000E+00
  -0.91000000E+00           0.00000000E+00
  -0.90000000E+00           0.00000000E+00
  -0.89000000E+00           0.00000000E+00
  -0.88000000E+00           0.00000000E+00
  -0.87000000E+00           0.00000000E+00
  -0.86000000E+00           0.00000000E+00
  -0.85000000E+00           0.00000000E+00
  -0.84000000E+00           0.00000000E+00
  -0.83000000E+00           0.00000000E+00
  -0.82000000E+00           0.00000000E+00
  -0.81000000E+00           0.00000000E+00
  -0.80000000E+00           0.00000000E+00
  -0.79000000E+00           0.00000000E+00
  -0.78000000E+00           0.00000000E+00
  -0.77000000E+00           0.00000000E+00
  -0.76000000E+00           0.00000000E+00
  -0.75000000E+00           0.00000000E+00
  -0.74000000E+00           0.00000000E+00
  -0.73000000E+00           0.00000000E+00
  -0.72000000E+00           0.00000000E+00
  -0.71000000E+00           0.00000000E+00
  -0.70000000E+00           0.00000000E+00
  -0.69000000E+00           0.00000000E+00
  -0.68000000E+00           0.00000000E+00
  -0.67000000E+00           0.00000000E+00
  -0.66000000E+00           0.00000000E+00
  -0.65000000E+00           0.00000000E+00
  -0.64000000E+00           0.00000000E+00
  -0.63000000E+00           0.00000000E+00
  -0.62000000E+00           0.00000000E+00
  -0.61000000E+00           0.00000000E+00
  -0.60000000E+00           0.00000000E+00
  -0.59000000E+00           0.00000000E+00
  -0.58000000E+00           0.00000000E+00
  -0.57000000E+00           0.00000000E+00
  -0.56000000E+00           0.00000000E+00
  -0.55000000E+00           0.00000000E+00
  -0.54000000E+00           0.00000000E+00
  -0.53000000E+00           0.00000000E+00
  -0.52000000E+00           0.00000000E+00
  -0.51000000E+00           0.00000000E+00
  -0.50000000E+00           0.00000000E+00
  -0.49000000E+00           0.00000000E+00
  -0.48000000E+00           0.00000000E+00
  -0.47000000E+00           0.00000000E+00
  -0.46000000E+00           0.00000000E+00
  -0.45000000E+00           0.00000000E+00
  -0.44000000E+00           0.00000000E+00
  -0.43000000E+00           0.00000000E+00
  -0.42000000E+00           0.00000000E+00
  -0.41000000E+00           0.00000000E+00
  -0.40000000E+00           0.00000000E+00
  -0.39000000E+00           0.00000000E+00
  -0.38000000E+00           0.00000000E+00
  -0.37000000E+00           0.00000000E+00
  -0.36000000E+00           0.00000000E+00
  -0.35000000E+00           0.00000000E+00
  -0.34000000E+00           0.00000000E+00
  -0.33000000E+00           0.00000000E+00
  -0.32000000E+00           0.00000000E+00
  -0.31000000E+00           0.00000000E+00
  -0.30000000E+00           0.00000000E+00
  -0.29000000E+00           0.00000000E+00
  -0.28000000E+00           0.00000000E+00
  -0.27000000E+00           0.00000000E+00
  -0.26000000E+00           0.00000000E+00
  -0.25000000E+00           0.00000000E+00
  -0.24000000E+00           0.00000000E+00
  -0.23000000E+00           0.00000000E+00
  -0.22000000E+00           0.00000000E+00
  -0.21000000E+00           0.00000000E+00
  -0.20000000E+00           0.00000000E+00
  -0.19000000E+00           0.00000000E+00
  -0.18000000E+00           0.00000000E+00
  -0.17000000E+00           0.00000000E+00
  -0.16000000E+00           0.00000000E+00
  -0.15000000E+00           0.00000000E+00
  -0.14000000E+00           0.00000000E+00
  -0.13000000E+00           0.00000000E+00
  -0.12000000E+00           0.00000000E+00
  -0.11000000E+00           0.00000000E+00
  -0.10000000E+00           0.00000000E+00
  -0.90000000E-01           0.00000000E+00
  -0.80000000E-01           0.00000000E+00
  -0.70000000E-01           0.00000000E+00
  -0.60000000E-01           0.00000000E+00
  -0.50000000E-01           0.00000000E+00
  -0.40000000E-01           0.00000000E+00
  -0.30000000E-01           0.00000000E+00
  -0.20000000E-01           0.00000000E+00
  -0.10000000E-01           0.00000000E+00
   0.00000000E+00           0.29637346E-03
   0.10000000E-01           0.23606481E-02
   0.20000000E-01           0.46975309E-02
   0.30000000E-01           0.70314043E-02
   0.40000000E-01           0.93315586E-02
   0.50000000E-01           0.11727932E-01
   0.60000000E-01           0.14102546E-01
   0.70000000E-01           0.16445293E-01
   0.80000000E-01           0.18905633E-01
   0.90000000E-01           0.21209182E-01
   0.10000000E+00           0.23590818E-01
   0.11000000E+00           0.25995448E-01
   0.12000000E+00           0.28390972E-01
   0.13000000E+00           0.30818210E-01
   0.14000000E+00           0.33220833E-01
   0.15000000E+00           0.35560262E-01
   0.16000000E+00           0.38031096E-01
   0.17000000E+00           0.40445756E-01
   0.18000000E+00           0.42990278E-01
   0.19000000E+00           0.45408796E-01
   0.20000000E+00           0.47900231E-01
   0.21000000E+00           0.50504552E-01
   0.22000000E+00           0.53061111E-01
   0.23000000E+00           0.55500849E-01
   0.24000000E+00           0.58013272E-01
   0.25000000E+00           0.60839352E-01
   0.26000000E+00           0.63250772E-01
   0.27000000E+00           0.65998534E-01
   0.28000000E+00           0.68567207E-01
   0.29000000E+00           0.71194599E-01
   0.30000000E+00           0.73963117E-01
   0.31000000E+00           0.76660648E-01
   0.32000000E+00           0.79486497E-01
   0.33000000E+00           0.82095448E-01
   0.34000000E+00           0.85003781E-01
   0.35000000E+00           0.87857022E-01
   0.36000000E+00           0.90588117E-01
   0.37000000E+00           0.93428164E-01
   0.38000000E+00           0.96499306E-01
   0.39000000E+00           0.99311343E-01
   0.40000000E+00           0.10237785E+00
   0.41000000E+00           0.10542654E+00
   0.42000000E+00           0.10826505E+00
   0.43000000E+00           0.11130177E+00
   0.44000000E+00           0.11458657E+00
   0.45000000E+00           0.11777392E+00
   0.46000000E+00           0.12090293E+00
   0.47000000E+00           0.12417446E+00
   0.48000000E+00           0.12742485E+00
   0.49000000E+00           0.13073819E+00
   0.50000000E+00           0.13406397E+00
   0.51000000E+00           0.13733989E+00
   0.52000000E+00           0.14071427E+00
   0.53000000E+00           0.14422716E+00
   0.54000000E+00           0.14788681E+00
   0.55000000E+00           0.15123248E+00
   0.56000000E+00           0.15472917E+00
   0.57000000E+00           0.15822924E+00
   0.58000000E+00           0.16237500E+00
   0.59000000E+00           0.16599992E+00
   0.60000000E+00           0.16983341E+00
   0.61000000E+00           0.17370370E+00
   0.62000000E+00           0.17760756E+00
   0.63000000E+00           0.18122253E+00
   0.64000000E+00           0.18542207E+00
   0.65000000E+00           0.18946080E+00
   0.66000000E+00           0.19339707E+00
   0.67000000E+00           0.19746366E+00
   0.68000000E+00           0.20162523E+00
   0.69000000E+00           0.20596204E+00
   0.70000000E+00           0.21029537E+00
   0.71000000E+00           0.21460995E+00
   0.72000000E+00           0.21899676E+00
   0.73000000E+00           0.22328349E+00
   0.74000000E+00           0.22815008E+00
   0.75000000E+00           0.23260471E+00
   0.76000000E+00           0.23725085E+00
   0.77000000E+00           0.24197207E+00
   0.78000000E+00           0.24661890E+00
   0.79000000E+00           0.25188372E+00
   0.80000000E+00           0.25641813E+00
   0.81000000E+00           0.26126173E+00
   0.82000000E+00           0.26671489E+00
   0.83000000E+00           0.27183086E+00
   0.84000000E+00           0.27693580E+00
   0.85000000E+00           0.28205293E+00
   0.86000000E+00           0.28767006E+00
   0.87000000E+00           0.29260540E+00
   0.88000000E+00           0.29818418E+00
   0.89000000E+00           0.30374043E+00
   0.90000000E+00           0.30926852E+00
   0.91000000E+00           0.31502122E+00
   0.92000000E+00           0.32095363E+00
   0.93000000E+00           0.32647160E+00
   0.94000000E+00           0.33254151E+00
   0.95000000E+00           0.33862770E+00
   0.96000000E+00           0.34452431E+00
   0.97000000E+00           0.35041535E+00
   0.98000000E+00           0.35666636E+00
   0.99000000E+00           0.36338873E+00
   0.10000000E+01           0.36959113E+00
   0.10100000E+01           0.37626512E+00
   0.10200000E+01           0.38267554E+00
   0.10300000E+01           0.38916968E+00
   0.10400000E+01           0.39606752E+00
   0.10500000E+01           0.40251806E+00
   0.10600000E+01           0.40996551E+00
   0.10700000E+01           0.41620077E+00
   0.10800000E+01           0.42365617E+00
   0.10900000E+01           0.43054444E+00
   0.11000000E+01           0.43790262E+00
   0.11100000E+01           0.44527623E+00
   0.11200000E+01           0.45296312E+00
   0.11300000E+01           0.46004414E+00
   0.11400000E+01           0.46776026E+00
   0.11500000E+01           0.47544799E+00
   0.11600000E+01           0.48307130E+00
   0.11700000E+01           0.49114205E+00
   0.11800000E+01           0.49888966E+00
   0.11900000E+01           0.50703272E+00
   0.12000000E+01           0.51523171E+00
   0.12100000E+01           0.52335131E+00
   0.12200000E+01           0.53169915E+00
   0.12300000E+01           0.54018356E+00
   0.12400000E+01           0.54898927E+00
   0.12500000E+01           0.55689483E+00
   0.12600000E+01           0.56577731E+00
   0.12700000E+01           0.57499915E+00
   0.12800000E+01           0.58372052E+00
   0.12900000E+01           0.59253202E+00
   0.13000000E+01           0.60189830E+00
   0.13100000E+01           0.61132948E+00
   0.13200000E+01           0.62019799E+00
   0.13300000E+01           0.62962454E+00
   0.13400000E+01           0.63913333E+00
   0.13500000E+01           0.64887685E+00
   0.13600000E+01           0.65833927E+00
   0.13700000E+01           0.66791211E+00
   0.13800000E+01           0.67854776E+00
   0.13900000E+01           0.68810255E+00
   0.14000000E+01           0.69858804E+00
   0.14100000E+01           0.70879020E+00
   0.14200000E+01           0.71894977E+00
   0.14300000E+01           0.72910316E+00
   0.14400000E+01           0.73991520E+00
   0.14500000E+01           0.75067955E+00
   0.14600000E+01           0.76115818E+00
   0.14700000E+01           0.77227477E+00
   0.14800000E+01           0.78343657E+00
   0.14900000E+01           0.79467940E+00
   0.15000000E+01           0.80543156E+00
   0.15100000E+01           0.81643441E+00
   0.15200000E+01           0.82804174E+00
   0.15300000E+01           0.83972747E+00
   0.15400000E+01           0.85119653E+00
   0.15500000E+01           0.86321034E+00
   0.15600000E+01           0.87467037E+00
   0.15700000E+01           0.88673835E+00
   0.15800000E+01           0.89885039E+00
   0.15900000E+01           0.91074321E+00
   0.16000000E+01           0.92322824E+00
   0.16100000E+01           0.93550586E+00
   0.16200000E+01           0.94854992E+00
   0.16300000E+01           0.96060394E+00
   0.16400000E+01           0.97296111E+00
   0.16500000E+01           0.98603796E+00
   0.16600000E+01           0.99866667E+00
   0.16700000E+01           0.10110761E+01
   0.16800000E+01           0.10250282E+01
   0.16900000E+01           0.10385845E+01
   0.17000000E+01           0.10514979E+01
   0.17100000E+01           0.10653668E+01
   0.17200000E+01           0.10786177E+01
   0.17300000E+01           0.10925068E+01
   0.17400000E+01           0.11057524E+01
   0.17500000E+01           0.11196722E+01
   0.17600000E+01           0.11337952E+01
   0.17700000E+01           0.11482016E+01
   0.17800000E+01           0.11626960E+01
   0.17900000E+01           0.11761296E+01
   0.18000000E+01           0.11901833E+01
   0.18100000E+01           0.12051248E+01
   0.18200000E+01           0.12203050E+01
   0.18300000E+01           0.12349613E+01
   0.18400000E+01           0.12494604E+01
   0.18500000E+01           0.12639680E+01
   0.18600000E+01           0.12791995E+01
   0.18700000E+01           0.12944930E+01
   0.18800000E+01           0.13092503E+01
   0.18900000E+01           0.13253161E+01
   0.19000000E+01           0.13407836E+01
   0.19100000E+01           0.13555933E+01
   0.19200000E+01           0.13712045E+01
   0.19300000E+01           0.13867808E+01
   0.19400000E+01           0.14023954E+01
   0.19500000E+01           0.14189565E+01
   0.19600000E+01           0.14348415E+01
   0.19700000E+01           0.14513975E+01
   0.19800000E+01           0.14672424E+01
   0.19900000E+01           0.14833855E+01
   0.20000000E+01           0.74782261E+00
 #T=   352.0000
  -0.20000000E+01           0.00000000E+00
  -0.19900000E+01           0.00000000E+00
  -0.19800000E+01           0.00000000E+00
  -0.19700000E+01           0.00000000E+00
  -0.19600000E+01           0.00000000E+00
  -0.19500000E+01           0.00000000E+00
  -0.19400000E+01           0.00000000E+00
  -0.19300000E+01           0.00000000E+00
  -0.19200000E+01           0.00000000E+00
  -0.19100000E+01           0.00000000E+00
  -0.19000000E+01           0.00000000E+00
  -0.18900000E+01           0.00000000E+00
  -0.18800000E+01           0.00000000E+00
  -0.18700000E+01           0.00000000E+00
  -0.18600000E+01           0.00000000E+00
  -0.18500000E+01           0.00000000E+00
  -0.18400000E+01           0.00000000E+00
  -0.18300000E+01           0.00000000E+00
  -0.18200000E+01           0.00000000E+00
  -0.18100000E+01           0.00000000E+00
  -0.18000000E+01           0.00000000E+00
  -0.17900000E+01           0.00000000E+00
  -0.17800000E+01           0.00000000E+00
  -0.17700000E+01           0.00000000E+00
  -0.17600000E+01           0.00000000E+00
  -0.17500000E+01           0.00000000E+00
  -0.17400000E+01           0.00000000E+00
  -0.17300000E+01           0.00000000E+00
  -0.17200000E+01           0.00000000E+00
  -0.17100000E+01           0.00000000E+00
  -0.17000000E+01           0.00000000E+00
  -0.16900000E+01           0.00000000E+00
  -0.16800000E+01           0.00000000E+00
  -0.16700000E+01           0.00000000E+00
  -0.16600000E+01           0.00000000E+00
  -0.16500000E+01           0.00000000E+00
  -0.16400000E+01           0.00000000E+00
  -0.16300000E+01           0.00000000E+00
  -0.16200000E+01           0.00000000E+00
  -0.16100000E+01           0.00000000E+00
  -0.16000000E+01           0.00000000E+00
  -0.15900000E+01           0.00000000E+00
  -0.15800000E+01           0.00000000E+00
  -0.15700000E+01           0.00000000E+00
  -0.15600000E+01           0.00000000E+00
  -0.15500000E+01           0.00000000E+00
  -0.15400000E+01           0.00000000E+00
  -0.15300000E+01           0.00000000E+00
  -0.15200000E+01           0.00000000E+00
  -0.15100000E+01           0.00000000E+00
  -0.15000000E+01           0.00000000E+00
  -0.14900000E+01           0.00000000E+00
  -0.14800000E+01           0.00000000E+00
  -0.14700000E+01           0.00000000E+00
  -0.14600000E+01           0.00000000E+00
  -0.14500000E+01           0.00000000E+00
  -0.14400000E+01           0.00000000E+00
  -0.14300000E+01           0.00000000E+00
  -0.14200000E+01           0.00000000E+00
  -0.14100000E+01           0.00000000E+00
  -0.14000000E+01           0.00000000E+00
  -0.13900000E+01           0.00000000E+00
  -0.13800000E+01           0.00000000E+00
  -0.13700000E+01           0.00000000E+00
  -0.13600000E+01           0.00000000E+00
  -0.13500000E+01           0.00000000E+00
  -0.13400000E+01           0.00000000E+00
  -0.13300000E+01           0.00000000E+00
  -0.13200000E+01           0.00000000E+00
  -0.13100000E+01           0.00000000E+00
  -0.13000000E+01           0.00000000E+00
  -0.12900000E+01           0.00000000E+00
  -0.12800000E+01           0.00000000E+00
  -0.12700000E+01           0.00000000E+00
  -0.12600000E+01           0.00000000E+00
  -0.12500000E+01           0.00000000E+00
  -0.12400000E+01           0.00000000E+00
  -0.12300000E+01           0.00000000E+00
  -0.12200000E+01           0.00000000E+00
  -0.12100000E+01           0.00000000E+00
  -0.12000000E+01           0.00000000E+00
  -0.11900000E+01           0.00000000E+00
  -0.11800000E+01           0.00000000E+00
  -0.11700000E+01           0.00000000E+00
  -0.11600000E+01           0.00000000E+00
  -0.11500000E+01           0.00000000E+00
  -0.11400000E+01           0.00000000E+00
  -0.11300000E+01           0.00000000E+00
  -0.11200000E+01           0.00000000E+00
  -0.11100000E+01           0.00000000E+00
  -0.11000000E+01           0.00000000E+00
  -0.10900000E+01           0.00000000E+00
  -0.10800000E+01           0.00000000E+00
  -0.10700000E+01           0.00000000E+00
  -0.10600000E+01           0.00000000E+00
  -0.10500000E+01           0.00000000E+00
  -0.10400000E+01           0.00000000E+00
  -0.10300000E+01           0.00000000E+00
  -0.10200000E+01           0.00000000E+00
  -0.10100000E+01           0.00000000E+00
  -0.10000000E+01           0.00000000E+00
  -0.99000000E+00           0.00000000E+00
  -0.98000000E+00           0.00000000E+00
  -0.97000000E+00           0.00000000E+00
  -0.96000000E+00           0.00000000E+00
  -0.95000000E+00           0.00000000E+00
  -0.94000000E+00           0.00000000E+00
  -0.93000000E+00           0.00000000E+00
  -0.92000000E+00           0.00000000E+00
  -0.91000000E+00           0.00000000E+00
  -0.90000000E+00           0.00000000E+00
  -0.89000000E+00           0.00000000E+00
  -0.88000000E+00           0.00000000E+00
  -0.87000000E+00           0.00000000E+00
  -0.86000000E+00           0.00000000E+00
  -0.85000000E+00           0.00000000E+00
  -0.84000000E+00           0.00000000E+00
  -0.83000000E+00           0.00000000E+00
  -0.82000000E+00           0.00000000E+00
  -0.81000000E+00           0.00000000E+00
  -0.80000000E+00           0.00000000E+00
  -0.79000000E+00           0.00000000E+00
  -0.78000000E+00           0.00000000E+00
  -0.77000000E+00           0.00000000E+00
  -0.76000000E+00           0.00000000E+00
  -0.75000000E+00           0.00000000E+00
  -0.74000000E+00           0.00000000E+00
  -0.73000000E+00           0.00000000E+00
  -0.72000000E+00           0.00000000E+00
  -0.71000000E+00           0.00000000E+00
  -0.70000000E+00           0.00000000E+00
  -0.69000000E+00           0.00000000E+00
  -0.68000000E+00           0.00000000E+00
  -0.67000000E+00           0.00000000E+00
  -0.66000000E+00           0.00000000E+00
  -0.65000000E+00           0.00000000E+00
  -0.64000000E+00           0.00000000E+00
  -0.63000000E+00           0.00000000E+00
  -0.62000000E+00           0.00000000E+00
  -0.61000000E+00           0.00000000E+00
  -0.60000000E+00           0.00000000E+00
  -0.59000000E+00           0.00000000E+00
  -0.58000000E+00           0.00000000E+00
  -0.57000000E+00           0.00000000E+00
  -0.56000000E+00           0.00000000E+00
  -0.55000000E+00           0.00000000E+00
  -0.54000000E+00           0.00000000E+00
  -0.53000000E+00           0.00000000E+00
  -0.52000000E+00           0.00000000E+00
  -0.51000000E+00           0.00000000E+00
  -0.50000000E+00           0.00000000E+00
  -0.49000000E+00           0.00000000E+00
  -0.48000000E+00           0.00000000E+00
  -0.47000000E+00           0.00000000E+00
  -0.46000000E+00           0.00000000E+00
  -0.45000000E+00           0.00000000E+00
  -0.44000000E+00           0.00000000E+00
  -0.43000000E+00           0.00000000E+00
  -0.42000000E+00           0.00000000E+00
  -0.41000000E+00           0.00000000E+00
  -0.40000000E+00           0.00000000E+00
  -0.39000000E+00           0.00000000E+00
  -0.38000000E+00           0.00000000E+00
  -0.37000000E+00           0.00000000E+00
  -0.36000000E+00           0.00000000E+00
  -0.35000000E+00           0.00000000E+00
  -0.34000000E+00           0.00000000E+00
  -0.33000000E+00           0.00000000E+00
  -0.32000000E+00           0.00000000E+00
  -0.31000000E+00           0.00000000E+00
  -0.30000000E+00           0.00000000E+00
  -0.29000000E+00           0.00000000E+00
  -0.28000000E+00           0.00000000E+00
  -0.27000000E+00           0.00000000E+00
  -0.26000000E+00           0.00000000E+00
  -0.25000000E+00           0.00000000E+00
  -0.24000000E+00           0.00000000E+00
  -0.23000000E+00           0.00000000E+00
  -0.22000000E+00           0.00000000E+00
  -0.21000000E+00           0.00000000E+00
  -0.20000000E+00           0.00000000E+00
  -0.19000000E+00           0.00000000E+00
  -0.18000000E+00           0.00000000E+00
  -0.17000000E+00           0.00000000E+00
  -0.16000000E+00           0.00000000E+00
  -0.15000000E+00           0.00000000E+00
  -0.14000000E+00           0.00000000E+00
  -0.13000000E+00           0.00000000E+00
  -0.12000000E+00           0.00000000E+00
  -0.11000000E+00           0.00000000E+00
  -0.10000000E+00           0.00000000E+00
  -0.90000000E-01           0.00000000E+00
  -0.80000000E-01           0.00000000E+00
  -0.70000000E-01           0.00000000E+00
  -0.60000000E-01           0.00000000E+00
  -0.50000000E-01           0.00000000E+00
  -0.40000000E-01           0.00000000E+00
  -0.30000000E-01           0.00000000E+00
  -0.20000000E-01           0.00000000E+00
  -0.10000000E-01           0.00000000E+00
   0.00000000E+00           0.28804012E-03
   0.10000000E-01           0.24020062E-02
   0.20000000E-01           0.47850309E-02
   0.30000000E-01           0.71968364E-02
   0.40000000E-01           0.96041667E-02
   0.50000000E-01           0.11980941E-01
   0.60000000E-01           0.14392207E-01
   0.70000000E-01           0.16712191E-01
   0.80000000E-01           0.19264043E-01
   0.90000000E-01           0.21571991E-01
   0.10000000E+00           0.24025463E-01
   0.11000000E+00           0.26447531E-01
   0.12000000E+00           0.28933719E-01
   0.13000000E+00           0.31369213E-01
   0.14000000E+00           0.33823380E-01
   0.15000000E+00           0.36316127E-01
   0.16000000E+00           0.38805401E-01
   0.17000000E+00           0.41397917E-01
   0.18000000E+00           0.43841898E-01
   0.19000000E+00           0.46375077E-01
   0.20000000E+00           0.48864198E-01
   0.21000000E+00           0.51570448E-01
   0.22000000E+00           0.54004707E-01
   0.23000000E+00           0.56539506E-01
   0.24000000E+00           0.59215046E-01
   0.25000000E+00           0.61756636E-01
   0.26000000E+00           0.64627006E-01
   0.27000000E+00           0.67195679E-01
   0.28000000E+00           0.69836883E-01
   0.29000000E+00           0.72658951E-01
   0.30000000E+00           0.75557793E-01
   0.31000000E+00           0.78113272E-01
   0.32000000E+00           0.80884259E-01
   0.33000000E+00           0.83727160E-01
   0.34000000E+00           0.86465355E-01
   0.35000000E+00           0.89394522E-01
   0.36000000E+00           0.92356019E-01
   0.37000000E+00           0.95346836E-01
   0.38000000E+00           0.98156404E-01
   0.39000000E+00           0.10111196E+00
   0.40000000E+00           0.10426628E+00
   0.41000000E+00           0.10725779E+00
   0.42000000E+00           0.11024969E+00
   0.43000000E+00           0.11336412E+00
   0.44000000E+00           0.11663356E+00
   0.45000000E+00           0.11975301E+00
   0.46000000E+00           0.12294660E+00
   0.47000000E+00           0.12626690E+00
   0.48000000E+00           0.12930008E+00
   0.49000000E+00           0.13279468E+00
   0.50000000E+00           0.13624151E+00
   0.51000000E+00           0.13964020E+00
   0.52000000E+00           0.14301389E+00
   0.53000000E+00           0.14652060E+00
   0.54000000E+00           0.15036088E+00
   0.55000000E+00           0.15363410E+00
   0.56000000E+00           0.15738611E+00
   0.57000000E+00           0.16104460E+00
   0.58000000E+00           0.16460409E+00
   0.59000000E+00           0.16870926E+00
   0.60000000E+00           0.17246343E+00
   0.61000000E+00           0.17635077E+00
   0.62000000E+00           0.18007986E+00
   0.63000000E+00           0.18403457E+00
   0.64000000E+00           0.18798426E+00
   0.65000000E+00           0.19222330E+00
   0.66000000E+00           0.19613812E+00
   0.67000000E+00           0.20031026E+00
   0.68000000E+00           0.20459676E+00
   0.69000000E+00           0.20883410E+00
   0.70000000E+00           0.21317492E+00
   0.71000000E+00           0.21751011E+00
   0.72000000E+00           0.22193989E+00
   0.73000000E+00           0.22640826E+00
   0.74000000E+00           0.23090301E+00
   0.75000000E+00           0.23554437E+00
   0.76000000E+00           0.24073495E+00
   0.77000000E+00           0.24505849E+00
   0.78000000E+00           0.24996003E+00
   0.79000000E+00           0.25463403E+00
   0.80000000E+00           0.25973812E+00
   0.81000000E+00           0.26456829E+00
   0.82000000E+00           0.27003850E+00
   0.83000000E+00           0.27521821E+00
   0.84000000E+00           0.27997215E+00
   0.85000000E+00           0.28538002E+00
   0.86000000E+00           0.29045509E+00
   0.87000000E+00           0.29603356E+00
   0.88000000E+00           0.30151381E+00
   0.89000000E+00           0.30728789E+00
   0.90000000E+00           0.31269776E+00
   0.91000000E+00           0.31848171E+00
   0.92000000E+00           0.32381651E+00
   0.93000000E+00           0.32979769E+00
   0.94000000E+00           0.33593858E+00
   0.95000000E+00           0.34163943E+00
   0.96000000E+00           0.34798426E+00
   0.97000000E+00           0.35385525E+00
   0.98000000E+00           0.36027454E+00
   0.99000000E+00           0.36639792E+00
   0.10000000E+01           0.37274514E+00
   0.10100000E+01           0.37940540E+00
   0.10200000E+01           0.38557114E+00
   0.10300000E+01           0.39209059E+00
   0.10400000E+01           0.39897963E+00
   0.10500000E+01           0.40603650E+00
   0.10600000E+01           0.41266528E+00
   0.10700000E+01           0.41981034E+00
   0.10800000E+01           0.42650625E+00
   0.10900000E+01           0.43367207E+00
   0.11000000E+01           0.44134375E+00
   0.11100000E+01           0.44803241E+00
   0.11200000E+01           0.45539969E+00
   0.11300000E+01           0.46296906E+00
   0.11400000E+01           0.47035154E+00
   0.11500000E+01           0.47831782E+00
   0.11600000E+01           0.48581806E+00
   0.11700000E+01           0.49364630E+00
   0.11800000E+01           0.50172461E+00
   0.11900000E+01           0.50942315E+00
   0.12000000E+01           0.51782269E+00
   0.12100000E+01           0.52582724E+00
   0.12200000E+01           0.53382160E+00
   0.12300000E+01           0.54252585E+00
   0.12400000E+01           0.55085085E+00
   0.12500000E+01           0.55945918E+00
   0.12600000E+01           0.56833040E+00
   0.12700000E+01           0.57667299E+00
   0.12800000E+01           0.58561528E+00
   0.12900000E+01           0.59453681E+00
   0.13000000E+01           0.60349660E+00
   0.13100000E+01           0.61310802E+00
   0.13200000E+01           0.62201821E+00
   0.13300000E+01           0.63116080E+00
   0.13400000E+01           0.64043094E+00
   0.13500000E+01           0.65037577E+00
   0.13600000E+01           0.66011782E+00
   0.13700000E+01           0.66989414E+00
   0.13800000E+01           0.67941420E+00
   0.13900000E+01           0.68924375E+00
   0.14000000E+01           0.69932693E+00
   0.14100000E+01           0.70938318E+00
   0.14200000E+01           0.71928719E+00
   0.14300000E+01           0.72968071E+00
   0.14400000E+01           0.74011667E+00
   0.14500000E+01           0.75109414E+00
   0.14600000E+01           0.76171721E+00
   0.14700000E+01           0.77209491E+00
   0.14800000E+01           0.78310015E+00
   0.14900000E+01           0.79407901E+00
   0.15000000E+01           0.80535872E+00
   0.15100000E+01           0.81627353E+00
   0.15200000E+01           0.82715872E+00
   0.15300000E+01           0.83875185E+00
   0.15400000E+01           0.84986620E+00
   0.15500000E+01           0.86175046E+00
   0.15600000E+01           0.87332461E+00
   0.15700000E+01           0.88512994E+00
   0.15800000E+01           0.89711119E+00
   0.15900000E+01           0.90911157E+00
   0.16000000E+01           0.92090502E+00
   0.16100000E+01           0.93296458E+00
   0.16200000E+01           0.94510563E+00
   0.16300000E+01           0.95780563E+00
   0.16400000E+01           0.96962955E+00
   0.16500000E+01           0.98314113E+00
   0.16600000E+01           0.99547554E+00
   0.16700000E+01           0.10080062E+01
   0.16800000E+01           0.10216146E+01
   0.16900000E+01           0.10344956E+01
   0.17000000E+01           0.10477796E+01
   0.17100000E+01           0.10607860E+01
   0.17200000E+01           0.10737009E+01
   0.17300000E+01           0.10874475E+01
   0.17400000E+01           0.11006438E+01
   0.17500000E+01           0.11145904E+01
   0.17600000E+01           0.11281313E+01
   0.17700000E+01           0.11424748E+01
   0.17800000E+01           0.11558743E+01
   0.17900000E+01           0.11696907E+01
   0.18000000E+01           0.11841596E+01
   0.18100000E+01           0.11981042E+01
   0.18200000E+01           0.12126691E+01
   0.18300000E+01           0.12274309E+01
   0.18400000E+01           0.12416940E+01
   0.18500000E+01           0.12561862E+01
   0.18600000E+01           0.12705743E+01
   0.18700000E+01           0.12848618E+01
   0.18800000E+01           0.12999606E+01
   0.18900000E+01           0.13150189E+01
   0.19000000E+01           0.13303434E+01
   0.19100000E+01           0.13452319E+01
   0.19200000E+01           0.13608785E+01
   0.19300000E+01           0.13758147E+01
   0.19400000E+01           0.13911430E+01
   0.19500000E+01           0.14069925E+01
   0.19600000E+01           0.14219262E+01
   0.19700000E+01           0.14378795E+01
   0.19800000E+01           0.14535425E+01
   0.19900000E+01           0.14703825E+01
   0.20000000E+01           0.74111752E+00
 #T=   353.0000
  -0.20000000E+01           0.00000000E+00
  -0.19900000E+01           0.00000000E+00
  -0.19800000E+01           0.00000000E+00
  -0.19700000E+01           0.00000000E+00
  -0.19600000E+01           0.00000000E+00
  -0.19500000E+01           0.00000000E+00
  -0.19400000E+01           0.00000000E+00
  -0.19300000E+01           0.00000000E+00
  -0.19200000E+01           0.00000000E+00
  -0.19100000E+01           0.00000000E+00
  -0.19000000E+01           0.00000000E+00
  -0.18900000E+01           0.00000000E+00
  -0.18800000E+01           0.00000000E+00
  -0.18700000E+01           0.00000000E+00
  -0.18600000E+01           0.00000000E+00
  -0.18500000E+01           0.00000000E+00
  -0.18400000E+01           0.00000000E+00
  -0.18300000E+01           0.00000000E+00
  -0.18200000E+01           0.00000000E+00
  -0.18100000E+01           0.00000000E+00
  -0.18000000E+01           0.00000000E+00
  -0.17900000E+01           0.00000000E+00
  -0.17800000E+01           0.00000000E+00
  -0.17700000E+01           0.00000000E+00
  -0.17600000E+01           0.00000000E+00
  -0.17500000E+01           0.00000000E+00
  -0.17400000E+01           0.00000000E+00
  -0.17300000E+01           0.00000000E+00
  -0.17200000E+01           0.00000000E+00
  -0.17100000E+01           0.00000000E+00
  -0.17000000E+01           0.00000000E+00
  -0.16900000E+01           0.00000000E+00
  -0.16800000E+01           0.00000000E+00
  -0.16700000E+01           0.00000000E+00
  -0.16600000E+01           0.00000000E+00
  -0.16500000E+01           0.00000000E+00
  -0.16400000E+01           0.00000000E+00
  -0.16300000E+01           0.00000000E+00
  -0.16200000E+01           0.00000000E+00
  -0.16100000E+01           0.00000000E+00
  -0.16000000E+01           0.00000000E+00
  -0.15900000E+01           0.00000000E+00
  -0.15800000E+01           0.00000000E+00
  -0.15700000E+01           0.00000000E+00
  -0.15600000E+01           0.00000000E+00
  -0.15500000E+01           0.00000000E+00
  -0.15400000E+01           0.00000000E+00
  -0.15300000E+01           0.00000000E+00
  -0.15200000E+01           0.00000000E+00
  -0.15100000E+01           0.00000000E+00
  -0.15000000E+01           0.00000000E+00
  -0.14900000E+01           0.00000000E+00
  -0.14800000E+01           0.00000000E+00
  -0.14700000E+01           0.00000000E+00
  -0.14600000E+01           0.00000000E+00
  -0.14500000E+01           0.00000000E+00
  -0.14400000E+01           0.00000000E+00
  -0.14300000E+01           0.00000000E+00
  -0.14200000E+01           0.00000000E+00
  -0.14100000E+01           0.00000000E+00
  -0.14000000E+01           0.00000000E+00
  -0.13900000E+01           0.00000000E+00
  -0.13800000E+01           0.00000000E+00
  -0.13700000E+01           0.00000000E+00
  -0.13600000E+01           0.00000000E+00
  -0.13500000E+01           0.00000000E+00
  -0.13400000E+01           0.00000000E+00
  -0.13300000E+01           0.00000000E+00
  -0.13200000E+01           0.00000000E+00
  -0.13100000E+01           0.00000000E+00
  -0.13000000E+01           0.00000000E+00
  -0.12900000E+01           0.00000000E+00
  -0.12800000E+01           0.00000000E+00
  -0.12700000E+01           0.00000000E+00
  -0.12600000E+01           0.00000000E+00
  -0.12500000E+01           0.00000000E+00
  -0.12400000E+01           0.00000000E+00
  -0.12300000E+01           0.00000000E+00
  -0.12200000E+01           0.00000000E+00
  -0.12100000E+01           0.00000000E+00
  -0.12000000E+01           0.00000000E+00
  -0.11900000E+01           0.00000000E+00
  -0.11800000E+01           0.00000000E+00
  -0.11700000E+01           0.00000000E+00
  -0.11600000E+01           0.00000000E+00
  -0.11500000E+01           0.00000000E+00
  -0.11400000E+01           0.00000000E+00
  -0.11300000E+01           0.00000000E+00
  -0.11200000E+01           0.00000000E+00
  -0.11100000E+01           0.00000000E+00
  -0.11000000E+01           0.00000000E+00
  -0.10900000E+01           0.00000000E+00
  -0.10800000E+01           0.00000000E+00
  -0.10700000E+01           0.00000000E+00
  -0.10600000E+01           0.00000000E+00
  -0.10500000E+01           0.00000000E+00
  -0.10400000E+01           0.00000000E+00
  -0.10300000E+01           0.00000000E+00
  -0.10200000E+01           0.00000000E+00
  -0.10100000E+01           0.00000000E+00
  -0.10000000E+01           0.00000000E+00
  -0.99000000E+00           0.00000000E+00
  -0.98000000E+00           0.00000000E+00
  -0.97000000E+00           0.00000000E+00
  -0.96000000E+00           0.00000000E+00
  -0.95000000E+00           0.00000000E+00
  -0.94000000E+00           0.00000000E+00
  -0.93000000E+00           0.00000000E+00
  -0.92000000E+00           0.00000000E+00
  -0.91000000E+00           0.00000000E+00
  -0.90000000E+00           0.00000000E+00
  -0.89000000E+00           0.00000000E+00
  -0.88000000E+00           0.00000000E+00
  -0.87000000E+00           0.00000000E+00
  -0.86000000E+00           0.00000000E+00
  -0.85000000E+00           0.00000000E+00
  -0.84000000E+00           0.00000000E+00
  -0.83000000E+00           0.00000000E+00
  -0.82000000E+00           0.00000000E+00
  -0.81000000E+00           0.00000000E+00
  -0.80000000E+00           0.00000000E+00
  -0.79000000E+00           0.00000000E+00
  -0.78000000E+00           0.00000000E+00
  -0.77000000E+00           0.00000000E+00
  -0.76000000E+00           0.00000000E+00
  -0.75000000E+00           0.00000000E+00
  -0.74000000E+00           0.00000000E+00
  -0.73000000E+00           0.00000000E+00
  -0.72000000E+00           0.00000000E+00
  -0.71000000E+00           0.00000000E+00
  -0.70000000E+00           0.00000000E+00
  -0.69000000E+00           0.00000000E+00
  -0.68000000E+00           0.00000000E+00
  -0.67000000E+00           0.00000000E+00
  -0.66000000E+00           0.00000000E+00
  -0.65000000E+00           0.00000000E+00
  -0.64000000E+00           0.00000000E+00
  -0.63000000E+00           0.00000000E+00
  -0.62000000E+00           0.00000000E+00
  -0.61000000E+00           0.00000000E+00
  -0.60000000E+00           0.00000000E+00
  -0.59000000E+00           0.00000000E+00
  -0.58000000E+00           0.00000000E+00
  -0.57000000E+00           0.00000000E+00
  -0.56000000E+00           0.00000000E+00
  -0.55000000E+00           0.00000000E+00
  -0.54000000E+00           0.00000000E+00
  -0.53000000E+00           0.00000000E+00
  -0.52000000E+00           0.00000000E+00
  -0.51000000E+00           0.00000000E+00
  -0.50000000E+00           0.00000000E+00
  -0.49000000E+00           0.00000000E+00
  -0.48000000E+00           0.00000000E+00
  -0.47000000E+00           0.00000000E+00
  -0.46000000E+00           0.00000000E+00
  -0.45000000E+00           0.00000000E+00
  -0.44000000E+00           0.00000000E+00
  -0.43000000E+00           0.00000000E+00
  -0.42000000E+00           0.00000000E+00
  -0.41000000E+00           0.00000000E+00
  -0.40000000E+00           0.00000000E+00
  -0.39000000E+00           0.00000000E+00
  -0.38000000E+00           0.00000000E+00
  -0.37000000E+00           0.00000000E+00
  -0.36000000E+00           0.00000000E+00
  -0.35000000E+00           0.00000000E+00
  -0.34000000E+00           0.00000000E+00
  -0.33000000E+00           0.00000000E+00
  -0.32000000E+00           0.00000000E+00
  -0.31000000E+00           0.00000000E+00
  -0.30000000E+00           0.00000000E+00
  -0.29000000E+00           0.00000000E+00
  -0.28000000E+00           0.00000000E+00
  -0.27000000E+00           0.00000000E+00
  -0.26000000E+00           0.00000000E+00
  -0.25000000E+00           0.00000000E+00
  -0.24000000E+00           0.00000000E+00
  -0.23000000E+00           0.00000000E+00
  -0.22000000E+00           0.00000000E+00
  -0.21000000E+00           0.00000000E+00
  -0.20000000E+00           0.00000000E+00
  -0.19000000E+00           0.00000000E+00
  -0.18000000E+00           0.00000000E+00
  -0.17000000E+00           0.00000000E+00
  -0.16000000E+00           0.00000000E+00
  -0.15000000E+00           0.00000000E+00
  -0.14000000E+00           0.00000000E+00
  -0.13000000E+00           0.00000000E+00
  -0.12000000E+00           0.00000000E+00
  -0.11000000E+00           0.00000000E+00
  -0.10000000E+00           0.00000000E+00
  -0.90000000E-01           0.00000000E+00
  -0.80000000E-01           0.00000000E+00
  -0.70000000E-01           0.00000000E+00
  -0.60000000E-01           0.00000000E+00
  -0.50000000E-01           0.00000000E+00
  -0.40000000E-01           0.00000000E+00
  -0.30000000E-01           0.00000000E+00
  -0.20000000E-01           0.00000000E+00
  -0.10000000E-01           0.00000000E+00
   0.00000000E+00           0.30910494E-03
   0.10000000E-01           0.24346451E-02
   0.20000000E-01           0.49058642E-02
   0.30000000E-01           0.73179012E-02
   0.40000000E-01           0.97604938E-02
   0.50000000E-01           0.12199769E-01
   0.60000000E-01           0.14665741E-01
   0.70000000E-01           0.17136188E-01
   0.80000000E-01           0.19587114E-01
   0.90000000E-01           0.22062037E-01
   0.10000000E+00           0.24588040E-01
   0.11000000E+00           0.27078318E-01
   0.12000000E+00           0.29589120E-01
   0.13000000E+00           0.31995370E-01
   0.14000000E+00           0.34461728E-01
   0.15000000E+00           0.37035185E-01
   0.16000000E+00           0.39537114E-01
   0.17000000E+00           0.42118827E-01
   0.18000000E+00           0.44817978E-01
   0.19000000E+00           0.47300231E-01
   0.20000000E+00           0.49813349E-01
   0.21000000E+00           0.52463194E-01
   0.22000000E+00           0.55119444E-01
   0.23000000E+00           0.57848148E-01
   0.24000000E+00           0.60375617E-01
   0.25000000E+00           0.63186497E-01
   0.26000000E+00           0.65849151E-01
   0.27000000E+00           0.68504938E-01
   0.28000000E+00           0.71192747E-01
   0.29000000E+00           0.74075540E-01
   0.30000000E+00           0.76844830E-01
   0.31000000E+00           0.79652238E-01
   0.32000000E+00           0.82460494E-01
   0.33000000E+00           0.85393056E-01
   0.34000000E+00           0.88216049E-01
   0.35000000E+00           0.91057948E-01
   0.36000000E+00           0.94051235E-01
   0.37000000E+00           0.97089583E-01
   0.38000000E+00           0.99968596E-01
   0.39000000E+00           0.10293511E+00
   0.40000000E+00           0.10601775E+00
   0.41000000E+00           0.10923735E+00
   0.42000000E+00           0.11240278E+00
   0.43000000E+00           0.11541350E+00
   0.44000000E+00           0.11882160E+00
   0.45000000E+00           0.12186127E+00
   0.46000000E+00           0.12510710E+00
   0.47000000E+00           0.12817006E+00
   0.48000000E+00           0.13186821E+00
   0.49000000E+00           0.13531319E+00
   0.50000000E+00           0.13856242E+00
   0.51000000E+00           0.14199684E+00
   0.52000000E+00           0.14544444E+00
   0.53000000E+00           0.14893326E+00
   0.54000000E+00           0.15249545E+00
   0.55000000E+00           0.15634707E+00
   0.56000000E+00           0.15993488E+00
   0.57000000E+00           0.16345957E+00
   0.58000000E+00           0.16724892E+00
   0.59000000E+00           0.17109699E+00
   0.60000000E+00           0.17502901E+00
   0.61000000E+00           0.17895455E+00
   0.62000000E+00           0.18284059E+00
   0.63000000E+00           0.18666204E+00
   0.64000000E+00           0.19111721E+00
   0.65000000E+00           0.19485556E+00
   0.66000000E+00           0.19907731E+00
   0.67000000E+00           0.20327940E+00
   0.68000000E+00           0.20748534E+00
   0.69000000E+00           0.21193426E+00
   0.70000000E+00           0.21601775E+00
   0.71000000E+00           0.22064668E+00
   0.72000000E+00           0.22511219E+00
   0.73000000E+00           0.22970139E+00
   0.74000000E+00           0.23419522E+00
   0.75000000E+00           0.23867948E+00
   0.76000000E+00           0.24366566E+00
   0.77000000E+00           0.24821512E+00
   0.78000000E+00           0.25302006E+00
   0.79000000E+00           0.25776150E+00
   0.80000000E+00           0.26286258E+00
   0.81000000E+00           0.26812160E+00
   0.82000000E+00           0.27298951E+00
   0.83000000E+00           0.27810594E+00
   0.84000000E+00           0.28355949E+00
   0.85000000E+00           0.28836991E+00
   0.86000000E+00           0.29390093E+00
   0.87000000E+00           0.29900941E+00
   0.88000000E+00           0.30439282E+00
   0.89000000E+00           0.31025934E+00
   0.90000000E+00           0.31570208E+00
   0.91000000E+00           0.32142176E+00
   0.92000000E+00           0.32756844E+00
   0.93000000E+00           0.33307701E+00
   0.94000000E+00           0.33921590E+00
   0.95000000E+00           0.34523966E+00
   0.96000000E+00           0.35111960E+00
   0.97000000E+00           0.35748935E+00
   0.98000000E+00           0.36342793E+00
   0.99000000E+00           0.36955972E+00
   0.10000000E+01           0.37602608E+00
   0.10100000E+01           0.38243565E+00
   0.10200000E+01           0.38921535E+00
   0.10300000E+01           0.39546157E+00
   0.10400000E+01           0.40236736E+00
   0.10500000E+01           0.40885039E+00
   0.10600000E+01           0.41609468E+00
   0.10700000E+01           0.42281728E+00
   0.10800000E+01           0.42977986E+00
   0.10900000E+01           0.43662531E+00
   0.11000000E+01           0.44376420E+00
   0.11100000E+01           0.45126304E+00
   0.11200000E+01           0.45841103E+00
   0.11300000E+01           0.46592824E+00
   0.11400000E+01           0.47307292E+00
   0.11500000E+01           0.48093966E+00
   0.11600000E+01           0.48865100E+00
   0.11700000E+01           0.49629946E+00
   0.11800000E+01           0.50403380E+00
   0.11900000E+01           0.51202492E+00
   0.12000000E+01           0.52044406E+00
   0.12100000E+01           0.52845926E+00
   0.12200000E+01           0.53665764E+00
   0.12300000E+01           0.54525725E+00
   0.12400000E+01           0.55303580E+00
   0.12500000E+01           0.56202153E+00
   0.12600000E+01           0.57033681E+00
   0.12700000E+01           0.57886150E+00
   0.12800000E+01           0.58762029E+00
   0.12900000E+01           0.59674753E+00
   0.13000000E+01           0.60524769E+00
   0.13100000E+01           0.61423210E+00
   0.13200000E+01           0.62333356E+00
   0.13300000E+01           0.63276073E+00
   0.13400000E+01           0.64190548E+00
   0.13500000E+01           0.65165324E+00
   0.13600000E+01           0.66135162E+00
   0.13700000E+01           0.67071134E+00
   0.13800000E+01           0.68060810E+00
   0.13900000E+01           0.69013711E+00
   0.14000000E+01           0.70022230E+00
   0.14100000E+01           0.71019398E+00
   0.14200000E+01           0.71997083E+00
   0.14300000E+01           0.73049360E+00
   0.14400000E+01           0.74049213E+00
   0.14500000E+01           0.75138380E+00
   0.14600000E+01           0.76147423E+00
   0.14700000E+01           0.77219329E+00
   0.14800000E+01           0.78274877E+00
   0.14900000E+01           0.79362647E+00
   0.15000000E+01           0.80480741E+00
   0.15100000E+01           0.81549174E+00
   0.15200000E+01           0.82639522E+00
   0.15300000E+01           0.83792724E+00
   0.15400000E+01           0.84919884E+00
   0.15500000E+01           0.86048179E+00
   0.15600000E+01           0.87198457E+00
   0.15700000E+01           0.88370247E+00
   0.15800000E+01           0.89512986E+00
   0.15900000E+01           0.90656674E+00
   0.16000000E+01           0.91879753E+00
   0.16100000E+01           0.93086188E+00
   0.16200000E+01           0.94266551E+00
   0.16300000E+01           0.95509961E+00
   0.16400000E+01           0.96716412E+00
   0.16500000E+01           0.97994475E+00
   0.16600000E+01           0.99155532E+00
   0.16700000E+01           0.10048362E+01
   0.16800000E+01           0.10174052E+01
   0.16900000E+01           0.10303515E+01
   0.17000000E+01           0.10428405E+01
   0.17100000E+01           0.10557275E+01
   0.17200000E+01           0.10694498E+01
   0.17300000E+01           0.10824555E+01
   0.17400000E+01           0.10956987E+01
   0.17500000E+01           0.11087084E+01
   0.17600000E+01           0.11216738E+01
   0.17700000E+01           0.11365051E+01
   0.17800000E+01           0.11487549E+01
   0.17900000E+01           0.11631359E+01
   0.18000000E+01           0.11769941E+01
   0.18100000E+01           0.11911831E+01
   0.18200000E+01           0.12046164E+01
   0.18300000E+01           0.12187796E+01
   0.18400000E+01           0.12330802E+01
   0.18500000E+01           0.12474083E+01
   0.18600000E+01           0.12617383E+01
   0.18700000E+01           0.12766404E+01
   0.18800000E+01           0.12907103E+01
   0.18900000E+01           0.13056748E+01
   0.19000000E+01           0.13199591E+01
   0.19100000E+01           0.13348743E+01
   0.19200000E+01           0.13497759E+01
   0.19300000E+01           0.13652302E+01
   0.19400000E+01           0.13795387E+01
   0.19500000E+01           0.13949648E+01
   0.19600000E+01           0.14101121E+01
   0.19700000E+01           0.14253258E+01
   0.19800000E+01           0.14408625E+01
   0.19900000E+01           0.14564447E+01
   0.20000000E+01           0.73415046E+00
 #T=   354.0000
  -0.20000000E+01           0.00000000E+00
  -0.19900000E+01           0.00000000E+00
  -0.19800000E+01           0.00000000E+00
  -0.19700000E+01           0.00000000E+00
  -0.19600000E+01           0.00000000E+00
  -0.19500000E+01           0.00000000E+00
  -0.19400000E+01           0.00000000E+00
  -0.19300000E+01           0.00000000E+00
  -0.19200000E+01           0.00000000E+00
  -0.19100000E+01           0.00000000E+00
  -0.19000000E+01           0.00000000E+00
  -0.18900000E+01           0.00000000E+00
  -0.18800000E+01           0.00000000E+00
  -0.18700000E+01           0.00000000E+00
  -0.18600000E+01           0.00000000E+00
  -0.18500000E+01           0.00000000E+00
  -0.18400000E+01           0.00000000E+00
  -0.18300000E+01           0.00000000E+00
  -0.18200000E+01           0.00000000E+00
  -0.18100000E+01           0.00000000E+00
  -0.18000000E+01           0.00000000E+00
  -0.17900000E+01           0.00000000E+00
  -0.17800000E+01           0.00000000E+00
  -0.17700000E+01           0.00000000E+00
  -0.17600000E+01           0.00000000E+00
  -0.17500000E+01           0.00000000E+00
  -0.17400000E+01           0.00000000E+00
  -0.17300000E+01           0.00000000E+00
  -0.17200000E+01           0.00000000E+00
  -0.17100000E+01           0.00000000E+00
  -0.17000000E+01           0.00000000E+00
  -0.16900000E+01           0.00000000E+00
  -0.16800000E+01           0.00000000E+00
  -0.16700000E+01           0.00000000E+00
  -0.16600000E+01           0.00000000E+00
  -0.16500000E+01           0.00000000E+00
  -0.16400000E+01           0.00000000E+00
  -0.16300000E+01           0.00000000E+00
  -0.16200000E+01           0.00000000E+00
  -0.16100000E+01           0.00000000E+00
  -0.16000000E+01           0.00000000E+00
  -0.15900000E+01           0.00000000E+00
  -0.15800000E+01           0.00000000E+00
  -0.15700000E+01           0.00000000E+00
  -0.15600000E+01           0.00000000E+00
  -0.15500000E+01           0.00000000E+00
  -0.15400000E+01           0.00000000E+00
  -0.15300000E+01           0.00000000E+00
  -0.15200000E+01           0.00000000E+00
  -0.15100000E+01           0.00000000E+00
  -0.15000000E+01           0.00000000E+00
  -0.14900000E+01           0.00000000E+00
  -0.14800000E+01           0.00000000E+00
  -0.14700000E+01           0.00000000E+00
  -0.14600000E+01           0.00000000E+00
  -0.14500000E+01           0.00000000E+00
  -0.14400000E+01           0.00000000E+00
  -0.14300000E+01           0.00000000E+00
  -0.14200000E+01           0.00000000E+00
  -0.14100000E+01           0.00000000E+00
  -0.14000000E+01           0.00000000E+00
  -0.13900000E+01           0.00000000E+00
  -0.13800000E+01           0.00000000E+00
  -0.13700000E+01           0.00000000E+00
  -0.13600000E+01           0.00000000E+00
  -0.13500000E+01           0.00000000E+00
  -0.13400000E+01           0.00000000E+00
  -0.13300000E+01           0.00000000E+00
  -0.13200000E+01           0.00000000E+00
  -0.13100000E+01           0.00000000E+00
  -0.13000000E+01           0.00000000E+00
  -0.12900000E+01           0.00000000E+00
  -0.12800000E+01           0.00000000E+00
  -0.12700000E+01           0.00000000E+00
  -0.12600000E+01           0.00000000E+00
  -0.12500000E+01           0.00000000E+00
  -0.12400000E+01           0.00000000E+00
  -0.12300000E+01           0.00000000E+00
  -0.12200000E+01           0.00000000E+00
  -0.12100000E+01           0.00000000E+00
  -0.12000000E+01           0.00000000E+00
  -0.11900000E+01           0.00000000E+00
  -0.11800000E+01           0.00000000E+00
  -0.11700000E+01           0.00000000E+00
  -0.11600000E+01           0.00000000E+00
  -0.11500000E+01           0.00000000E+00
  -0.11400000E+01           0.00000000E+00
  -0.11300000E+01           0.00000000E+00
  -0.11200000E+01           0.00000000E+00
  -0.11100000E+01           0.00000000E+00
  -0.11000000E+01           0.00000000E+00
  -0.10900000E+01           0.00000000E+00
  -0.10800000E+01           0.00000000E+00
  -0.10700000E+01           0.00000000E+00
  -0.10600000E+01           0.00000000E+00
  -0.10500000E+01           0.00000000E+00
  -0.10400000E+01           0.00000000E+00
  -0.10300000E+01           0.00000000E+00
  -0.10200000E+01           0.00000000E+00
  -0.10100000E+01           0.00000000E+00
  -0.10000000E+01           0.00000000E+00
  -0.99000000E+00           0.00000000E+00
  -0.98000000E+00           0.00000000E+00
  -0.97000000E+00           0.00000000E+00
  -0.96000000E+00           0.00000000E+00
  -0.95000000E+00           0.00000000E+00
  -0.94000000E+00           0.00000000E+00
  -0.93000000E+00           0.00000000E+00
  -0.92000000E+00           0.00000000E+00
  -0.91000000E+00           0.00000000E+00
  -0.90000000E+00           0.00000000E+00
  -0.89000000E+00           0.00000000E+00
  -0.88000000E+00           0.00000000E+00
  -0.87000000E+00           0.00000000E+00
  -0.86000000E+00           0.00000000E+00
  -0.85000000E+00           0.00000000E+00
  -0.84000000E+00           0.00000000E+00
  -0.83000000E+00           0.00000000E+00
  -0.82000000E+00           0.00000000E+00
  -0.81000000E+00           0.00000000E+00
  -0.80000000E+00           0.00000000E+00
  -0.79000000E+00           0.00000000E+00
  -0.78000000E+00           0.00000000E+00
  -0.77000000E+00           0.00000000E+00
  -0.76000000E+00           0.00000000E+00
  -0.75000000E+00           0.00000000E+00
  -0.74000000E+00           0.00000000E+00
  -0.73000000E+00           0.00000000E+00
  -0.72000000E+00           0.00000000E+00
  -0.71000000E+00           0.00000000E+00
  -0.70000000E+00           0.00000000E+00
  -0.69000000E+00           0.00000000E+00
  -0.68000000E+00           0.00000000E+00
  -0.67000000E+00           0.00000000E+00
  -0.66000000E+00           0.00000000E+00
  -0.65000000E+00           0.00000000E+00
  -0.64000000E+00           0.00000000E+00
  -0.63000000E+00           0.00000000E+00
  -0.62000000E+00           0.00000000E+00
  -0.61000000E+00           0.00000000E+00
  -0.60000000E+00           0.00000000E+00
  -0.59000000E+00           0.00000000E+00
  -0.58000000E+00           0.00000000E+00
  -0.57000000E+00           0.00000000E+00
  -0.56000000E+00           0.00000000E+00
  -0.55000000E+00           0.00000000E+00
  -0.54000000E+00           0.00000000E+00
  -0.53000000E+00           0.00000000E+00
  -0.52000000E+00           0.00000000E+00
  -0.51000000E+00           0.00000000E+00
  -0.50000000E+00           0.00000000E+00
  -0.49000000E+00           0.00000000E+00
  -0.48000000E+00           0.00000000E+00
  -0.47000000E+00           0.00000000E+00
  -0.46000000E+00           0.00000000E+00
  -0.45000000E+00           0.00000000E+00
  -0.44000000E+00           0.00000000E+00
  -0.43000000E+00           0.00000000E+00
  -0.42000000E+00           0.00000000E+00
  -0.41000000E+00           0.00000000E+00
  -0.40000000E+00           0.00000000E+00
  -0.39000000E+00           0.00000000E+00
  -0.38000000E+00           0.00000000E+00
  -0.37000000E+00           0.00000000E+00
  -0.36000000E+00           0.00000000E+00
  -0.35000000E+00           0.00000000E+00
  -0.34000000E+00           0.00000000E+00
  -0.33000000E+00           0.00000000E+00
  -0.32000000E+00           0.00000000E+00
  -0.31000000E+00           0.00000000E+00
  -0.30000000E+00           0.00000000E+00
  -0.29000000E+00           0.00000000E+00
  -0.28000000E+00           0.00000000E+00
  -0.27000000E+00           0.00000000E+00
  -0.26000000E+00           0.00000000E+00
  -0.25000000E+00           0.00000000E+00
  -0.24000000E+00           0.00000000E+00
  -0.23000000E+00           0.00000000E+00
  -0.22000000E+00           0.00000000E+00
  -0.21000000E+00           0.00000000E+00
  -0.20000000E+00           0.00000000E+00
  -0.19000000E+00           0.00000000E+00
  -0.18000000E+00           0.00000000E+00
  -0.17000000E+00           0.00000000E+00
  -0.16000000E+00           0.00000000E+00
  -0.15000000E+00           0.00000000E+00
  -0.14000000E+00           0.00000000E+00
  -0.13000000E+00           0.00000000E+00
  -0.12000000E+00           0.00000000E+00
  -0.11000000E+00           0.00000000E+00
  -0.10000000E+00           0.00000000E+00
  -0.90000000E-01           0.00000000E+00
  -0.80000000E-01           0.00000000E+00
  -0.70000000E-01           0.00000000E+00
  -0.60000000E-01           0.00000000E+00
  -0.50000000E-01           0.00000000E+00
  -0.40000000E-01           0.00000000E+00
  -0.30000000E-01           0.00000000E+00
  -0.20000000E-01           0.00000000E+00
  -0.10000000E-01           0.00000000E+00
   0.00000000E+00           0.30632716E-03
   0.10000000E-01           0.24878086E-02
   0.20000000E-01           0.49692130E-02
   0.30000000E-01           0.74933642E-02
   0.40000000E-01           0.99959105E-02
   0.50000000E-01           0.12492052E-01
   0.60000000E-01           0.14961111E-01
   0.70000000E-01           0.17463812E-01
   0.80000000E-01           0.19952623E-01
   0.90000000E-01           0.22509722E-01
   0.10000000E+00           0.25044985E-01
   0.11000000E+00           0.27594599E-01
   0.12000000E+00           0.30115818E-01
   0.13000000E+00           0.32612654E-01
   0.14000000E+00           0.35315586E-01
   0.15000000E+00           0.37823302E-01
   0.16000000E+00           0.40439120E-01
   0.17000000E+00           0.42972608E-01
   0.18000000E+00           0.45615432E-01
   0.19000000E+00           0.48321142E-01
   0.20000000E+00           0.50927160E-01
   0.21000000E+00           0.53554398E-01
   0.22000000E+00           0.56148997E-01
   0.23000000E+00           0.58884799E-01
   0.24000000E+00           0.61617747E-01
   0.25000000E+00           0.64277701E-01
   0.26000000E+00           0.67007330E-01
   0.27000000E+00           0.69834182E-01
   0.28000000E+00           0.72515432E-01
   0.29000000E+00           0.75307407E-01
   0.30000000E+00           0.78278704E-01
   0.31000000E+00           0.81123148E-01
   0.32000000E+00           0.83986960E-01
   0.33000000E+00           0.86849228E-01
   0.34000000E+00           0.89808951E-01
   0.35000000E+00           0.92726698E-01
   0.36000000E+00           0.95765201E-01
   0.37000000E+00           0.98765972E-01
   0.38000000E+00           0.10187585E+00
   0.39000000E+00           0.10485687E+00
   0.40000000E+00           0.10809992E+00
   0.41000000E+00           0.11116566E+00
   0.42000000E+00           0.11430039E+00
   0.43000000E+00           0.11755779E+00
   0.44000000E+00           0.12077785E+00
   0.45000000E+00           0.12389715E+00
   0.46000000E+00           0.12740015E+00
   0.47000000E+00           0.13056767E+00
   0.48000000E+00           0.13406721E+00
   0.49000000E+00           0.13742824E+00
[...]
   0.13800000E+01           0.68742407E+00
   0.13900000E+01           0.68906019E+00
   0.14000000E+01           0.69036605E+00
   0.14100000E+01           0.69176566E+00
   0.14200000E+01           0.69300687E+00
   0.14300000E+01           0.69460532E+00
   0.14400000E+01           0.69606258E+00
   0.14500000E+01           0.69717917E+00
   0.14600000E+01           0.69851088E+00
   0.14700000E+01           0.69976134E+00
   0.14800000E+01           0.70033580E+00
   0.14900000E+01           0.70142654E+00
   0.15000000E+01           0.70216651E+00
   0.15100000E+01           0.70319668E+00
   0.15200000E+01           0.70400934E+00
   0.15300000E+01           0.70455625E+00
   0.15400000E+01           0.70528241E+00
   0.15500000E+01           0.70625586E+00
   0.15600000E+01           0.70676335E+00
   0.15700000E+01           0.70776119E+00
   0.15800000E+01           0.70781759E+00
   0.15900000E+01           0.70801682E+00
   0.16000000E+01           0.70904761E+00
   0.16100000E+01           0.70928796E+00
   0.16200000E+01           0.70905725E+00
   0.16300000E+01           0.71004344E+00
   0.16400000E+01           0.70990147E+00
   0.16500000E+01           0.71036813E+00
   0.16600000E+01           0.71038341E+00
   0.16700000E+01           0.71023241E+00
   0.16800000E+01           0.71019228E+00
   0.16900000E+01           0.71004568E+00
   0.17000000E+01           0.71082369E+00
   0.17100000E+01           0.71010170E+00
   0.17200000E+01           0.70924514E+00
   0.17300000E+01           0.70959545E+00
   0.17400000E+01           0.70945556E+00
   0.17500000E+01           0.70883796E+00
   0.17600000E+01           0.70836574E+00
   0.17700000E+01           0.70768758E+00
   0.17800000E+01           0.70764969E+00
   0.17900000E+01           0.70694012E+00
   0.18000000E+01           0.70644707E+00
   0.18100000E+01           0.70544035E+00
   0.18200000E+01           0.70468002E+00
   0.18300000E+01           0.70402323E+00
   0.18400000E+01           0.70322894E+00
   0.18500000E+01           0.70205548E+00
   0.18600000E+01           0.70161173E+00
   0.18700000E+01           0.70064745E+00
   0.18800000E+01           0.70064244E+00
   0.18900000E+01           0.69883765E+00
   0.19000000E+01           0.69771960E+00
   0.19100000E+01           0.69661659E+00
   0.19200000E+01           0.69575046E+00
   0.19300000E+01           0.69399853E+00
   0.19400000E+01           0.69318117E+00
   0.19500000E+01           0.69159136E+00
   0.19600000E+01           0.69063133E+00
   0.19700000E+01           0.68906551E+00
   0.19800000E+01           0.68718603E+00
   0.19900000E+01           0.68631744E+00
   0.20000000E+01           0.34255131E+00
 #T=   449.0000
  -0.20000000E+01           0.00000000E+00
  -0.19900000E+01           0.00000000E+00
  -0.19800000E+01           0.00000000E+00
  -0.19700000E+01           0.00000000E+00
  -0.19600000E+01           0.00000000E+00
  -0.19500000E+01           0.00000000E+00
  -0.19400000E+01           0.00000000E+00
  -0.19300000E+01           0.00000000E+00
  -0.19200000E+01           0.00000000E+00
  -0.19100000E+01           0.00000000E+00
  -0.19000000E+01           0.00000000E+00
  -0.18900000E+01           0.00000000E+00
  -0.18800000E+01           0.00000000E+00
  -0.18700000E+01           0.00000000E+00
  -0.18600000E+01           0.00000000E+00
  -0.18500000E+01           0.00000000E+00
  -0.18400000E+01           0.00000000E+00
  -0.18300000E+01           0.00000000E+00
  -0.18200000E+01           0.00000000E+00
  -0.18100000E+01           0.00000000E+00
  -0.18000000E+01           0.00000000E+00
  -0.17900000E+01           0.00000000E+00
  -0.17800000E+01           0.00000000E+00
  -0.17700000E+01           0.00000000E+00
  -0.17600000E+01           0.00000000E+00
  -0.17500000E+01           0.00000000E+00
  -0.17400000E+01           0.00000000E+00
  -0.17300000E+01           0.00000000E+00
  -0.17200000E+01           0.00000000E+00
  -0.17100000E+01           0.00000000E+00
  -0.17000000E+01           0.00000000E+00
  -0.16900000E+01           0.00000000E+00
  -0.16800000E+01           0.00000000E+00
  -0.16700000E+01           0.00000000E+00
  -0.16600000E+01           0.00000000E+00
  -0.16500000E+01           0.00000000E+00
  -0.16400000E+01           0.00000000E+00
  -0.16300000E+01           0.00000000E+00
  -0.16200000E+01           0.00000000E+00
  -0.16100000E+01           0.00000000E+00
  -0.16000000E+01           0.00000000E+00
  -0.15900000E+01           0.00000000E+00
  -0.15800000E+01           0.00000000E+00
  -0.15700000E+01           0.00000000E+00
  -0.15600000E+01           0.00000000E+00
  -0.15500000E+01           0.00000000E+00
  -0.15400000E+01           0.00000000E+00
  -0.15300000E+01           0.00000000E+00
  -0.15200000E+01           0.00000000E+00
  -0.15100000E+01           0.00000000E+00
  -0.15000000E+01           0.00000000E+00
  -0.14900000E+01           0.00000000E+00
  -0.14800000E+01           0.00000000E+00
  -0.14700000E+01           0.00000000E+00
  -0.14600000E+01           0.00000000E+00
  -0.14500000E+01           0.00000000E+00
  -0.14400000E+01           0.00000000E+00
  -0.14300000E+01           0.00000000E+00
  -0.14200000E+01           0.00000000E+00
  -0.14100000E+01           0.00000000E+00
  -0.14000000E+01           0.00000000E+00
  -0.13900000E+01           0.00000000E+00
  -0.13800000E+01           0.00000000E+00
  -0.13700000E+01           0.00000000E+00
  -0.13600000E+01           0.00000000E+00
  -0.13500000E+01           0.00000000E+00
  -0.13400000E+01           0.00000000E+00
  -0.13300000E+01           0.00000000E+00
  -0.13200000E+01           0.00000000E+00
  -0.13100000E+01           0.00000000E+00
  -0.13000000E+01           0.00000000E+00
  -0.12900000E+01           0.00000000E+00
  -0.12800000E+01           0.00000000E+00
  -0.12700000E+01           0.00000000E+00
  -0.12600000E+01           0.00000000E+00
  -0.12500000E+01           0.00000000E+00
  -0.12400000E+01           0.00000000E+00
  -0.12300000E+01           0.00000000E+00
  -0.12200000E+01           0.00000000E+00
  -0.12100000E+01           0.00000000E+00
  -0.12000000E+01           0.00000000E+00
  -0.11900000E+01           0.00000000E+00
  -0.11800000E+01           0.00000000E+00
  -0.11700000E+01           0.00000000E+00
  -0.11600000E+01           0.00000000E+00
  -0.11500000E+01           0.00000000E+00
  -0.11400000E+01           0.00000000E+00
  -0.11300000E+01           0.00000000E+00
  -0.11200000E+01           0.00000000E+00
  -0.11100000E+01           0.00000000E+00
  -0.11000000E+01           0.00000000E+00
  -0.10900000E+01           0.00000000E+00
  -0.10800000E+01           0.00000000E+00
  -0.10700000E+01           0.00000000E+00
  -0.10600000E+01           0.00000000E+00
  -0.10500000E+01           0.00000000E+00
  -0.10400000E+01           0.00000000E+00
  -0.10300000E+01           0.00000000E+00
  -0.10200000E+01           0.00000000E+00
  -0.10100000E+01           0.00000000E+00
  -0.10000000E+01           0.00000000E+00
  -0.99000000E+00           0.00000000E+00
  -0.98000000E+00           0.00000000E+00
  -0.97000000E+00           0.00000000E+00
  -0.96000000E+00           0.00000000E+00
  -0.95000000E+00           0.00000000E+00
  -0.94000000E+00           0.00000000E+00
  -0.93000000E+00           0.00000000E+00
  -0.92000000E+00           0.00000000E+00
  -0.91000000E+00           0.00000000E+00
  -0.90000000E+00           0.00000000E+00
  -0.89000000E+00           0.00000000E+00
  -0.88000000E+00           0.00000000E+00
  -0.87000000E+00           0.00000000E+00
  -0.86000000E+00           0.00000000E+00
  -0.85000000E+00           0.00000000E+00
  -0.84000000E+00           0.00000000E+00
  -0.83000000E+00           0.00000000E+00
  -0.82000000E+00           0.00000000E+00
  -0.81000000E+00           0.00000000E+00
  -0.80000000E+00           0.00000000E+00
  -0.79000000E+00           0.00000000E+00
  -0.78000000E+00           0.00000000E+00
  -0.77000000E+00           0.00000000E+00
  -0.76000000E+00           0.00000000E+00
  -0.75000000E+00           0.00000000E+00
  -0.74000000E+00           0.00000000E+00
  -0.73000000E+00           0.00000000E+00
  -0.72000000E+00           0.00000000E+00
  -0.71000000E+00           0.00000000E+00
  -0.70000000E+00           0.00000000E+00
  -0.69000000E+00           0.00000000E+00
  -0.68000000E+00           0.00000000E+00
  -0.67000000E+00           0.00000000E+00
  -0.66000000E+00           0.00000000E+00
  -0.65000000E+00           0.00000000E+00
  -0.64000000E+00           0.00000000E+00
  -0.63000000E+00           0.00000000E+00
  -0.62000000E+00           0.00000000E+00
  -0.61000000E+00           0.00000000E+00
  -0.60000000E+00           0.00000000E+00
  -0.59000000E+00           0.00000000E+00
  -0.58000000E+00           0.00000000E+00
  -0.57000000E+00           0.00000000E+00
  -0.56000000E+00           0.00000000E+00
  -0.55000000E+00           0.00000000E+00
  -0.54000000E+00           0.00000000E+00
  -0.53000000E+00           0.00000000E+00
  -0.52000000E+00           0.00000000E+00
  -0.51000000E+00           0.00000000E+00
  -0.50000000E+00           0.00000000E+00
  -0.49000000E+00           0.00000000E+00
  -0.48000000E+00           0.00000000E+00
  -0.47000000E+00           0.00000000E+00
  -0.46000000E+00           0.00000000E+00
  -0.45000000E+00           0.00000000E+00
  -0.44000000E+00           0.00000000E+00
  -0.43000000E+00           0.00000000E+00
  -0.42000000E+00           0.00000000E+00
  -0.41000000E+00           0.00000000E+00
  -0.40000000E+00           0.00000000E+00
  -0.39000000E+00           0.00000000E+00
  -0.38000000E+00           0.00000000E+00
  -0.37000000E+00           0.00000000E+00
  -0.36000000E+00           0.00000000E+00
  -0.35000000E+00           0.00000000E+00
  -0.34000000E+00           0.00000000E+00
  -0.33000000E+00           0.00000000E+00
  -0.32000000E+00           0.00000000E+00
  -0.31000000E+00           0.00000000E+00
  -0.30000000E+00           0.00000000E+00
  -0.29000000E+00           0.00000000E+00
  -0.28000000E+00           0.00000000E+00
  -0.27000000E+00           0.00000000E+00
  -0.26000000E+00           0.00000000E+00
  -0.25000000E+00           0.00000000E+00
  -0.24000000E+00           0.00000000E+00
  -0.23000000E+00           0.00000000E+00
  -0.22000000E+00           0.00000000E+00
  -0.21000000E+00           0.00000000E+00
  -0.20000000E+00           0.00000000E+00
  -0.19000000E+00           0.00000000E+00
  -0.18000000E+00           0.00000000E+00
  -0.17000000E+00           0.00000000E+00
  -0.16000000E+00           0.00000000E+00
  -0.15000000E+00           0.00000000E+00
  -0.14000000E+00           0.00000000E+00
  -0.13000000E+00           0.00000000E+00
  -0.12000000E+00           0.00000000E+00
  -0.11000000E+00           0.00000000E+00
  -0.10000000E+00           0.00000000E+00
  -0.90000000E-01           0.00000000E+00
  -0.80000000E-01           0.00000000E+00
  -0.70000000E-01           0.00000000E+00
  -0.60000000E-01           0.00000000E+00
  -0.50000000E-01           0.00000000E+00
  -0.40000000E-01           0.00000000E+00
  -0.30000000E-01           0.00000000E+00
  -0.20000000E-01           0.00000000E+00
  -0.10000000E-01           0.00000000E+00
   0.00000000E+00           0.87862654E-03
   0.10000000E-01           0.70102623E-02
   0.20000000E-01           0.13999614E-01
   0.30000000E-01           0.21031636E-01
   0.40000000E-01           0.27930864E-01
   0.50000000E-01           0.34883719E-01
   0.60000000E-01           0.41886188E-01
   0.70000000E-01           0.48855710E-01
   0.80000000E-01           0.55756713E-01
   0.90000000E-01           0.62858102E-01
   0.10000000E+00           0.69824923E-01
   0.11000000E+00           0.76786574E-01
   0.12000000E+00           0.83615895E-01
   0.13000000E+00           0.90679861E-01
   0.14000000E+00           0.97524537E-01
   0.15000000E+00           0.10448858E+00
   0.16000000E+00           0.11139097E+00
   0.17000000E+00           0.11831620E+00
   0.18000000E+00           0.12510301E+00
   0.19000000E+00           0.13198542E+00
   0.20000000E+00           0.13890417E+00
   0.21000000E+00           0.14579421E+00
   0.22000000E+00           0.15287160E+00
   0.23000000E+00           0.15954035E+00
   0.24000000E+00           0.16615208E+00
   0.25000000E+00           0.17295633E+00
   0.26000000E+00           0.17965741E+00
   0.27000000E+00           0.18629167E+00
   0.28000000E+00           0.19322407E+00
   0.29000000E+00           0.19999182E+00
   0.30000000E+00           0.20653519E+00
   0.31000000E+00           0.21323341E+00
   0.32000000E+00           0.21987832E+00
   0.33000000E+00           0.22634985E+00
   0.34000000E+00           0.23286929E+00
   0.35000000E+00           0.23944267E+00
   0.36000000E+00           0.24615903E+00
   0.37000000E+00           0.25269151E+00
   0.38000000E+00           0.25890910E+00
   0.39000000E+00           0.26520432E+00
   0.40000000E+00           0.27195208E+00
   0.41000000E+00           0.27841952E+00
   0.42000000E+00           0.28490934E+00
   0.43000000E+00           0.29119792E+00
   0.44000000E+00           0.29724252E+00
   0.45000000E+00           0.30345517E+00
   0.46000000E+00           0.30963843E+00
   0.47000000E+00           0.31599491E+00
   0.48000000E+00           0.32220671E+00
   0.49000000E+00           0.32839414E+00
   0.50000000E+00           0.33452539E+00
   0.51000000E+00           0.34064668E+00
   0.52000000E+00           0.34675177E+00
   0.53000000E+00           0.35263580E+00
   0.54000000E+00           0.35860795E+00
   0.55000000E+00           0.36444560E+00
   0.56000000E+00           0.37019460E+00
   0.57000000E+00           0.37646713E+00
   0.58000000E+00           0.38212793E+00
   0.59000000E+00           0.38779421E+00
   0.60000000E+00           0.39361674E+00
   0.61000000E+00           0.39909684E+00
   0.62000000E+00           0.40460887E+00
   0.63000000E+00           0.41086852E+00
   0.64000000E+00           0.41599167E+00
   0.65000000E+00           0.42168619E+00
   0.66000000E+00           0.42703542E+00
   0.67000000E+00           0.43254961E+00
   0.68000000E+00           0.43829630E+00
   0.69000000E+00           0.44302245E+00
   0.70000000E+00           0.44838719E+00
   0.71000000E+00           0.45410031E+00
   0.72000000E+00           0.45896528E+00
   0.73000000E+00           0.46408989E+00
   0.74000000E+00           0.46953341E+00
   0.75000000E+00           0.47452623E+00
   0.76000000E+00           0.47955332E+00
   0.77000000E+00           0.48475085E+00
   0.78000000E+00           0.48969583E+00
   0.79000000E+00           0.49452693E+00
   0.80000000E+00           0.49900293E+00
   0.81000000E+00           0.50374992E+00
   0.82000000E+00           0.50866574E+00
   0.83000000E+00           0.51322052E+00
   0.84000000E+00           0.51817392E+00
   0.85000000E+00           0.52327446E+00
   0.86000000E+00           0.52673850E+00
   0.87000000E+00           0.53172014E+00
   0.88000000E+00           0.53631127E+00
   0.89000000E+00           0.54061343E+00
   0.90000000E+00           0.54470903E+00
   0.91000000E+00           0.54915656E+00
   0.92000000E+00           0.55336397E+00
   0.93000000E+00           0.55793765E+00
   0.94000000E+00           0.56180293E+00
   0.95000000E+00           0.56579105E+00
   0.96000000E+00           0.56959113E+00
   0.97000000E+00           0.57368279E+00
   0.98000000E+00           0.57743333E+00
   0.99000000E+00           0.58129954E+00
   0.10000000E+01           0.58552323E+00
   0.10100000E+01           0.58893650E+00
   0.10200000E+01           0.59246875E+00
   0.10300000E+01           0.59609205E+00
   0.10400000E+01           0.59972238E+00
   0.10500000E+01           0.60335316E+00
   0.10600000E+01           0.60679167E+00
   0.10700000E+01           0.61032539E+00
   0.10800000E+01           0.61379236E+00
   0.10900000E+01           0.61711011E+00
   0.11000000E+01           0.61976566E+00
   0.11100000E+01           0.62323827E+00
   0.11200000E+01           0.62642963E+00
   0.11300000E+01           0.62967454E+00
   0.11400000E+01           0.63279429E+00
   0.11500000E+01           0.63537160E+00
   0.11600000E+01           0.63811443E+00
   0.11700000E+01           0.64126705E+00
   0.11800000E+01           0.64405471E+00
   0.11900000E+01           0.64654715E+00
   0.12000000E+01           0.64919846E+00
   0.12100000E+01           0.65214907E+00
   0.12200000E+01           0.65467677E+00
   0.12300000E+01           0.65677099E+00
   0.12400000E+01           0.65921590E+00
   0.12500000E+01           0.66154907E+00
   0.12600000E+01           0.66394275E+00
   0.12700000E+01           0.66621821E+00
   0.12800000E+01           0.66843279E+00
   0.12900000E+01           0.67076397E+00
   0.13000000E+01           0.67311458E+00
   0.13100000E+01           0.67494653E+00
   0.13200000E+01           0.67731420E+00
   0.13300000E+01           0.67827431E+00
   0.13400000E+01           0.68050154E+00
   0.13500000E+01           0.68222207E+00
   0.13600000E+01           0.68413850E+00
   0.13700000E+01           0.68547261E+00
   0.13800000E+01           0.68742670E+00
   0.13900000E+01           0.68843102E+00
   0.14000000E+01           0.69075309E+00
   0.14100000E+01           0.69179861E+00
   0.14200000E+01           0.69284583E+00
   0.14300000E+01           0.69482022E+00
   0.14400000E+01           0.69586381E+00
   0.14500000E+01           0.69710054E+00
   0.14600000E+01           0.69792554E+00
   0.14700000E+01           0.69945764E+00
   0.14800000E+01           0.70066103E+00
   0.14900000E+01           0.70131173E+00
   0.15000000E+01           0.70248187E+00
   0.15100000E+01           0.70320540E+00
   0.15200000E+01           0.70419390E+00
   0.15300000E+01           0.70457508E+00
   0.15400000E+01           0.70587716E+00
   0.15500000E+01           0.70612539E+00
   0.15600000E+01           0.70656327E+00
   0.15700000E+01           0.70764931E+00
   0.15800000E+01           0.70788333E+00
   0.15900000E+01           0.70847832E+00
   0.16000000E+01           0.70886150E+00
   0.16100000E+01           0.70911397E+00
   0.16200000E+01           0.70928827E+00
   0.16300000E+01           0.70946142E+00
   0.16400000E+01           0.70992006E+00
   0.16500000E+01           0.70984931E+00
   0.16600000E+01           0.70978935E+00
   0.16700000E+01           0.71002840E+00
   0.16800000E+01           0.71010664E+00
   0.16900000E+01           0.70999931E+00
   0.17000000E+01           0.71022330E+00
   0.17100000E+01           0.71026736E+00
   0.17200000E+01           0.70947793E+00
   0.17300000E+01           0.70963410E+00
   0.17400000E+01           0.70921898E+00
   0.17500000E+01           0.70835432E+00
   0.17600000E+01           0.70798688E+00
   0.17700000E+01           0.70791474E+00
   0.17800000E+01           0.70700517E+00
   0.17900000E+01           0.70690810E+00
   0.18000000E+01           0.70627855E+00
   0.18100000E+01           0.70538503E+00
   0.18200000E+01           0.70485208E+00
   0.18300000E+01           0.70398511E+00
   0.18400000E+01           0.70307616E+00
   0.18500000E+01           0.70259861E+00
   0.18600000E+01           0.70161389E+00
   0.18700000E+01           0.70082492E+00
   0.18800000E+01           0.69996790E+00
   0.18900000E+01           0.69871806E+00
   0.19000000E+01           0.69729614E+00
   0.19100000E+01           0.69661420E+00
   0.19200000E+01           0.69516782E+00
   0.19300000E+01           0.69388395E+00
   0.19400000E+01           0.69331628E+00
   0.19500000E+01           0.69154745E+00
   0.19600000E+01           0.69010123E+00
   0.19700000E+01           0.68887091E+00
   0.19800000E+01           0.68756026E+00
   0.19900000E+01           0.68645077E+00
   0.20000000E+01           0.34256528E+00
