 #written on  4Sep2024 at 00:35:28 
 #----------------- MONTECARLO -------------------#
 #        M                      P(M)             #
 #------------------------------------------------#
 #T=   201.0000
  -0.20000000E+01           0.00000000E+00
  -0.19900000E+01           0.00000000E+00
  -0.19800000E+01           0.00000000E+00
  -0.19700000E+01           0.00000000E+00
  -0.19600000E+01           0.00000000E+00
  -0.19500000E+01           0.00000000E+00
  -0.19400000E+01           0.00000000E+00
  -0.19300000E+01           0.00000000E+00
  -0.19200000E+01           0.00000000E+00
  -0.19100000E+01           0.00000000E+00
  -0.19000000E+01           0.00000000E+00
  -0.18900000E+01           0.00000000E+00
  -0.18800000E+01           0.00000000E+00
  -0.18700000E+01           0.00000000E+00
  -0.18600000E+01           0.00000000E+00
  -0.18500000E+01           0.00000000E+00
  -0.18400000E+01           0.00000000E+00
  -0.18300000E+01           0.00000000E+00
  -0.18200000E+01           0.00000000E+00
  -0.18100000E+01           0.00000000E+00
  -0.18000000E+01           0.00000000E+00
  -0.17900000E+01           0.00000000E+00
  -0.17800000E+01           0.00000000E+00
  -0.17700000E+01           0.00000000E+00
  -0.17600000E+01           0.00000000E+00
  -0.17500000E+01           0.00000000E+00
  -0.17400000E+01           0.00000000E+00
  -0.17300000E+01           0.00000000E+00
  -0.17200000E+01           0.00000000E+00
  -0.17100000E+01           0.00000000E+00
  -0.17000000E+01           0.00000000E+00
  -0.16900000E+01           0.00000000E+00
  -0.16800000E+01           0.00000000E+00
  -0.16700000E+01           0.00000000E+00
  -0.16600000E+01           0.00000000E+00
  -0.16500000E+01           0.00000000E+00
  -0.16400000E+01           0.00000000E+00
  -0.16300000E+01           0.00000000E+00
  -0.16200000E+01           0.00000000E+00
  -0.16100000E+01           0.00000000E+00
  -0.16000000E+01           0.00000000E+00
  -0.15900000E+01           0.00000000E+00
  -0.15800000E+01           0.00000000E+00
  -0.15700000E+01           0.00000000E+00
  -0.15600000E+01           0.00000000E+00
  -0.15500000E+01           0.00000000E+00
  -0.15400000E+01           0.00000000E+00
  -0.15300000E+01           0.00000000E+00
  -0.15200000E+01           0.00000000E+00
  -0.15100000E+01           0.00000000E+00
  -0.15000000E+01           0.00000000E+00
  -0.14900000E+01           0.00000000E+00
  -0.14800000E+01           0.00000000E+00
  -0.14700000E+01           0.00000000E+00
  -0.14600000E+01           0.00000000E+00
  -0.14500000E+01           0.00000000E+00
  -0.14400000E+01           0.00000000E+00
  -0.14300000E+01           0.00000000E+00
  -0.14200000E+01           0.00000000E+00
  -0.14100000E+01           0.00000000E+00
  -0.14000000E+01           0.00000000E+00
  -0.13900000E+01           0.00000000E+00
  -0.13800000E+01           0.00000000E+00
  -0.13700000E+01           0.00000000E+00
  -0.13600000E+01           0.00000000E+00
  -0.13500000E+01           0.00000000E+00
  -0.13400000E+01           0.00000000E+00
  -0.13300000E+01           0.00000000E+00
  -0.13200000E+01           0.00000000E+00
  -0.13100000E+01           0.00000000E+00
  -0.13000000E+01           0.00000000E+00
  -0.12900000E+01           0.00000000E+00
  -0.12800000E+01           0.00000000E+00
  -0.12700000E+01           0.00000000E+00
  -0.12600000E+01           0.00000000E+00
  -0.12500000E+01           0.00000000E+00
  -0.12400000E+01           0.00000000E+00
  -0.12300000E+01           0.00000000E+00
  -0.12200000E+01           0.00000000E+00
  -0.12100000E+01           0.00000000E+00
  -0.12000000E+01           0.00000000E+00
  -0.11900000E+01           0.00000000E+00
  -0.11800000E+01           0.00000000E+00
  -0.11700000E+01           0.00000000E+00
  -0.11600000E+01           0.00000000E+00
  -0.11500000E+01           0.00000000E+00
  -0.11400000E+01           0.00000000E+00
  -0.11300000E+01           0.00000000E+00
  -0.11200000E+01           0.00000000E+00
  -0.11100000E+01           0.00000000E+00
  -0.11000000E+01           0.00000000E+00
  -0.10900000E+01           0.00000000E+00
  -0.10800000E+01           0.00000000E+00
  -0.10700000E+01           0.00000000E+00
  -0.10600000E+01           0.00000000E+00
  -0.10500000E+01           0.00000000E+00
  -0.10400000E+01           0.00000000E+00
  -0.10300000E+01           0.00000000E+00
  -0.10200000E+01           0.00000000E+00
  -0.10100000E+01           0.00000000E+00
  -0.10000000E+01           0.00000000E+00
  -0.99000000E+00           0.00000000E+00
  -0.98000000E+00           0.00000000E+00
  -0.97000000E+00           0.00000000E+00
  -0.96000000E+00           0.00000000E+00
  -0.95000000E+00           0.00000000E+00
  -0.94000000E+00           0.00000000E+00
  -0.93000000E+00           0.00000000E+00
  -0.92000000E+00           0.00000000E+00
  -0.91000000E+00           0.00000000E+00
  -0.90000000E+00           0.00000000E+00
  -0.89000000E+00           0.00000000E+00
  -0.88000000E+00           0.00000000E+00
  -0.87000000E+00           0.00000000E+00
  -0.86000000E+00           0.00000000E+00
  -0.85000000E+00           0.00000000E+00
  -0.84000000E+00           0.00000000E+00
  -0.83000000E+00           0.00000000E+00
  -0.82000000E+00           0.00000000E+00
  -0.81000000E+00           0.00000000E+00
  -0.80000000E+00           0.00000000E+00
  -0.79000000E+00           0.00000000E+00
  -0.78000000E+00           0.00000000E+00
  -0.77000000E+00           0.00000000E+00
  -0.76000000E+00           0.00000000E+00
  -0.75000000E+00           0.00000000E+00
  -0.74000000E+00           0.00000000E+00
  -0.73000000E+00           0.00000000E+00
  -0.72000000E+00           0.00000000E+00
  -0.71000000E+00           0.00000000E+00
  -0.70000000E+00           0.00000000E+00
  -0.69000000E+00           0.00000000E+00
  -0.68000000E+00           0.00000000E+00
  -0.67000000E+00           0.00000000E+00
  -0.66000000E+00           0.00000000E+00
  -0.65000000E+00           0.00000000E+00
  -0.64000000E+00           0.00000000E+00
  -0.63000000E+00           0.00000000E+00
  -0.62000000E+00           0.00000000E+00
  -0.61000000E+00           0.00000000E+00
  -0.60000000E+00           0.00000000E+00
  -0.59000000E+00           0.00000000E+00
  -0.58000000E+00           0.00000000E+00
  -0.57000000E+00           0.00000000E+00
  -0.56000000E+00           0.00000000E+00
  -0.55000000E+00           0.00000000E+00
  -0.54000000E+00           0.00000000E+00
  -0.53000000E+00           0.00000000E+00
  -0.52000000E+00           0.00000000E+00
  -0.51000000E+00           0.00000000E+00
  -0.50000000E+00           0.00000000E+00
  -0.49000000E+00           0.00000000E+00
  -0.48000000E+00           0.00000000E+00
  -0.47000000E+00           0.00000000E+00
  -0.46000000E+00           0.00000000E+00
  -0.45000000E+00           0.00000000E+00
  -0.44000000E+00           0.00000000E+00
  -0.43000000E+00           0.00000000E+00
  -0.42000000E+00           0.00000000E+00
  -0.41000000E+00           0.00000000E+00
  -0.40000000E+00           0.00000000E+00
  -0.39000000E+00           0.00000000E+00
  -0.38000000E+00           0.00000000E+00
  -0.37000000E+00           0.00000000E+00
  -0.36000000E+00           0.00000000E+00
  -0.35000000E+00           0.00000000E+00
  -0.34000000E+00           0.00000000E+00
  -0.33000000E+00           0.00000000E+00
  -0.32000000E+00           0.00000000E+00
  -0.31000000E+00           0.00000000E+00
  -0.30000000E+00           0.00000000E+00
  -0.29000000E+00           0.00000000E+00
  -0.28000000E+00           0.00000000E+00
  -0.27000000E+00           0.00000000E+00
  -0.26000000E+00           0.00000000E+00
  -0.25000000E+00           0.00000000E+00
  -0.24000000E+00           0.00000000E+00
  -0.23000000E+00           0.00000000E+00
  -0.22000000E+00           0.00000000E+00
  -0.21000000E+00           0.00000000E+00
  -0.20000000E+00           0.00000000E+00
  -0.19000000E+00           0.00000000E+00
  -0.18000000E+00           0.00000000E+00
  -0.17000000E+00           0.00000000E+00
  -0.16000000E+00           0.00000000E+00
  -0.15000000E+00           0.00000000E+00
  -0.14000000E+00           0.00000000E+00
  -0.13000000E+00           0.00000000E+00
  -0.12000000E+00           0.00000000E+00
  -0.11000000E+00           0.00000000E+00
  -0.10000000E+00           0.00000000E+00
  -0.90000000E-01           0.00000000E+00
  -0.80000000E-01           0.00000000E+00
  -0.70000000E-01           0.00000000E+00
  -0.60000000E-01           0.00000000E+00
  -0.50000000E-01           0.00000000E+00
  -0.40000000E-01           0.00000000E+00
  -0.30000000E-01           0.00000000E+00
  -0.20000000E-01           0.00000000E+00
  -0.10000000E-01           0.00000000E+00
   0.00000000E+00           0.45596088E-02
   0.10000000E-01           0.36700595E-01
   0.20000000E-01           0.73134014E-01
   0.30000000E-01           0.11009413E+00
   0.40000000E-01           0.14642755E+00
   0.50000000E-01           0.18278529E+00
   0.60000000E-01           0.21860893E+00
   0.70000000E-01           0.25497389E+00
   0.80000000E-01           0.29005519E+00
   0.90000000E-01           0.32613895E+00
   0.10000000E+00           0.36050323E+00
   0.11000000E+00           0.39475910E+00
   0.12000000E+00           0.42947015E+00
   0.13000000E+00           0.46292934E+00
   0.14000000E+00           0.49606667E+00
   0.15000000E+00           0.52811862E+00
   0.16000000E+00           0.56047092E+00
   0.17000000E+00           0.59186395E+00
   0.18000000E+00           0.62267355E+00
   0.19000000E+00           0.65325170E+00
   0.20000000E+00           0.68247653E+00
   0.21000000E+00           0.71161173E+00
   0.22000000E+00           0.73901777E+00
   0.23000000E+00           0.76720340E+00
   0.24000000E+00           0.79332347E+00
   0.25000000E+00           0.81993197E+00
   0.26000000E+00           0.84480128E+00
   0.27000000E+00           0.86786284E+00
   0.28000000E+00           0.89206930E+00
   0.29000000E+00           0.91454813E+00
   0.30000000E+00           0.93530774E+00
   0.31000000E+00           0.95698223E+00
   0.32000000E+00           0.97550986E+00
   0.33000000E+00           0.99530102E+00
   0.34000000E+00           0.10131170E+01
   0.35000000E+00           0.10294531E+01
   0.36000000E+00           0.10450071E+01
   0.37000000E+00           0.10603819E+01
   0.38000000E+00           0.10744284E+01
   0.39000000E+00           0.10879388E+01
   0.40000000E+00           0.10994788E+01
   0.41000000E+00           0.11111254E+01
   0.42000000E+00           0.11200276E+01
   0.43000000E+00           0.11296148E+01
   0.44000000E+00           0.11374365E+01
   0.45000000E+00           0.11441459E+01
   0.46000000E+00           0.11505301E+01
   0.47000000E+00           0.11571662E+01
   0.48000000E+00           0.11608894E+01
   0.49000000E+00           0.11646908E+01
   0.50000000E+00           0.11670511E+01
   0.51000000E+00           0.11686469E+01
   0.52000000E+00           0.11702937E+01
   0.53000000E+00           0.11696170E+01
   0.54000000E+00           0.11686516E+01
   0.55000000E+00           0.11677524E+01
   0.56000000E+00           0.11645429E+01
   0.57000000E+00           0.11610264E+01
   0.58000000E+00           0.11563321E+01
   0.59000000E+00           0.11522907E+01
   0.60000000E+00           0.11466441E+01
   0.61000000E+00           0.11398828E+01
   0.62000000E+00           0.11333758E+01
   0.63000000E+00           0.11260622E+01
   0.64000000E+00           0.11176821E+01
   0.65000000E+00           0.11077838E+01
   0.66000000E+00           0.10984588E+01
   0.67000000E+00           0.10888683E+01
   0.68000000E+00           0.10781322E+01
   0.69000000E+00           0.10666089E+01
   0.70000000E+00           0.10555441E+01
   0.71000000E+00           0.10430679E+01
   0.72000000E+00           0.10304012E+01
   0.73000000E+00           0.10173405E+01
   0.74000000E+00           0.10038740E+01
   0.75000000E+00           0.99042415E+00
   0.76000000E+00           0.97587500E+00
   0.77000000E+00           0.96140264E+00
   0.78000000E+00           0.94732670E+00
   0.79000000E+00           0.93166854E+00
   0.80000000E+00           0.91676480E+00
   0.81000000E+00           0.90065765E+00
   0.82000000E+00           0.88528291E+00
   0.83000000E+00           0.86852423E+00
   0.84000000E+00           0.85279898E+00
   0.85000000E+00           0.83677398E+00
   0.86000000E+00           0.82016862E+00
   0.87000000E+00           0.80443308E+00
   0.88000000E+00           0.78776786E+00
   0.89000000E+00           0.77055697E+00
   0.90000000E+00           0.75385119E+00
   0.91000000E+00           0.73782372E+00
   0.92000000E+00           0.72100034E+00
   0.93000000E+00           0.70388393E+00
   0.94000000E+00           0.68756607E+00
   0.95000000E+00           0.67072500E+00
   0.96000000E+00           0.65445408E+00
   0.97000000E+00           0.63735459E+00
   0.98000000E+00           0.62173333E+00
   0.99000000E+00           0.60573929E+00
   0.10000000E+01           0.58933546E+00
   0.10100000E+01           0.57332143E+00
   0.10200000E+01           0.55757066E+00
   0.10300000E+01           0.54165714E+00
   0.10400000E+01           0.52663665E+00
   0.10500000E+01           0.51140706E+00
   0.10600000E+01           0.49664677E+00
   0.10700000E+01           0.48109770E+00
   0.10800000E+01           0.46706616E+00
   0.10900000E+01           0.45232126E+00
   0.11000000E+01           0.43843503E+00
   0.11100000E+01           0.42441692E+00
   0.11200000E+01           0.41026743E+00
   0.11300000E+01           0.39697976E+00
   0.11400000E+01           0.38390017E+00
   0.11500000E+01           0.37086139E+00
   0.11600000E+01           0.35797670E+00
   0.11700000E+01           0.34592253E+00
   0.11800000E+01           0.33362772E+00
   0.11900000E+01           0.32166097E+00
   0.12000000E+01           0.31037287E+00
   0.12100000E+01           0.29856658E+00
   0.12200000E+01           0.28773486E+00
   0.12300000E+01           0.27680842E+00
   0.12400000E+01           0.26663291E+00
   0.12500000E+01           0.25610111E+00
   0.12600000E+01           0.24596947E+00
   0.12700000E+01           0.23644711E+00
   0.12800000E+01           0.22674073E+00
   0.12900000E+01           0.21744881E+00
   0.13000000E+01           0.20862806E+00
   0.13100000E+01           0.20015060E+00
   0.13200000E+01           0.19137976E+00
   0.13300000E+01           0.18375910E+00
   0.13400000E+01           0.17578682E+00
   0.13500000E+01           0.16795162E+00
   0.13600000E+01           0.16090561E+00
   0.13700000E+01           0.15351939E+00
   0.13800000E+01           0.14697449E+00
   0.13900000E+01           0.14003673E+00
   0.14000000E+01           0.13360944E+00
   0.14100000E+01           0.12734702E+00
   0.14200000E+01           0.12141947E+00
   0.14300000E+01           0.11545068E+00
   0.14400000E+01           0.11004966E+00
   0.14500000E+01           0.10464218E+00
   0.14600000E+01           0.99598044E-01
   0.14700000E+01           0.94520748E-01
   0.14800000E+01           0.89827891E-01
   0.14900000E+01           0.85381463E-01
   0.15000000E+01           0.81111139E-01
   0.15100000E+01           0.76932653E-01
   0.15200000E+01           0.72863435E-01
   0.15300000E+01           0.68918027E-01
   0.15400000E+01           0.65151020E-01
   0.15500000E+01           0.61607483E-01
   0.15600000E+01           0.58380102E-01
   0.15700000E+01           0.55161310E-01
   0.15800000E+01           0.52096684E-01
   0.15900000E+01           0.49140476E-01
   0.16000000E+01           0.46343963E-01
   0.16100000E+01           0.43571429E-01
   0.16200000E+01           0.41021344E-01
   0.16300000E+01           0.38622789E-01
   0.16400000E+01           0.36506122E-01
   0.16500000E+01           0.34160969E-01
   0.16600000E+01           0.32138010E-01
   0.16700000E+01           0.30209949E-01
   0.16800000E+01           0.28398129E-01
   0.16900000E+01           0.26492942E-01
   0.17000000E+01           0.24871259E-01
   0.17100000E+01           0.23231122E-01
   0.17200000E+01           0.21774320E-01
   0.17300000E+01           0.20406973E-01
   0.17400000E+01           0.19051020E-01
   0.17500000E+01           0.17764201E-01
   0.17600000E+01           0.16616497E-01
   0.17700000E+01           0.15431037E-01
   0.17800000E+01           0.14371344E-01
   0.17900000E+01           0.13365901E-01
   0.18000000E+01           0.12390816E-01
   0.18100000E+01           0.11561990E-01
   0.18200000E+01           0.10673214E-01
   0.18300000E+01           0.99425170E-02
   0.18400000E+01           0.92068027E-02
   0.18500000E+01           0.84528061E-02
   0.18600000E+01           0.77944728E-02
   0.18700000E+01           0.71299320E-02
   0.18800000E+01           0.66596088E-02
   0.18900000E+01           0.60738946E-02
   0.19000000E+01           0.56319728E-02
   0.19100000E+01           0.51797619E-02
   0.19200000E+01           0.47272109E-02
   0.19300000E+01           0.43370748E-02
   0.19400000E+01           0.39558673E-02
   0.19500000E+01           0.36252551E-02
   0.19600000E+01           0.33158163E-02
   0.19700000E+01           0.29667517E-02
   0.19800000E+01           0.27196429E-02
   0.19900000E+01           0.24714286E-02
   0.20000000E+01           0.11472789E-02
 #T=   202.0000
  -0.20000000E+01           0.00000000E+00
  -0.19900000E+01           0.00000000E+00
  -0.19800000E+01           0.00000000E+00
  -0.19700000E+01           0.00000000E+00
  -0.19600000E+01           0.00000000E+00
  -0.19500000E+01           0.00000000E+00
  -0.19400000E+01           0.00000000E+00
  -0.19300000E+01           0.00000000E+00
  -0.19200000E+01           0.00000000E+00
  -0.19100000E+01           0.00000000E+00
  -0.19000000E+01           0.00000000E+00
  -0.18900000E+01           0.00000000E+00
  -0.18800000E+01           0.00000000E+00
  -0.18700000E+01           0.00000000E+00
  -0.18600000E+01           0.00000000E+00
  -0.18500000E+01           0.00000000E+00
  -0.18400000E+01           0.00000000E+00
  -0.18300000E+01           0.00000000E+00
  -0.18200000E+01           0.00000000E+00
  -0.18100000E+01           0.00000000E+00
  -0.18000000E+01           0.00000000E+00
  -0.17900000E+01           0.00000000E+00
  -0.17800000E+01           0.00000000E+00
  -0.17700000E+01           0.00000000E+00
  -0.17600000E+01           0.00000000E+00
  -0.17500000E+01           0.00000000E+00
  -0.17400000E+01           0.00000000E+00
  -0.17300000E+01           0.00000000E+00
  -0.17200000E+01           0.00000000E+00
  -0.17100000E+01           0.00000000E+00
  -0.17000000E+01           0.00000000E+00
  -0.16900000E+01           0.00000000E+00
  -0.16800000E+01           0.00000000E+00
  -0.16700000E+01           0.00000000E+00
  -0.16600000E+01           0.00000000E+00
  -0.16500000E+01           0.00000000E+00
  -0.16400000E+01           0.00000000E+00
  -0.16300000E+01           0.00000000E+00
  -0.16200000E+01           0.00000000E+00
  -0.16100000E+01           0.00000000E+00
  -0.16000000E+01           0.00000000E+00
  -0.15900000E+01           0.00000000E+00
  -0.15800000E+01           0.00000000E+00
  -0.15700000E+01           0.00000000E+00
  -0.15600000E+01           0.00000000E+00
  -0.15500000E+01           0.00000000E+00
  -0.15400000E+01           0.00000000E+00
  -0.15300000E+01           0.00000000E+00
  -0.15200000E+01           0.00000000E+00
  -0.15100000E+01           0.00000000E+00
  -0.15000000E+01           0.00000000E+00
  -0.14900000E+01           0.00000000E+00
  -0.14800000E+01           0.00000000E+00
  -0.14700000E+01           0.00000000E+00
  -0.14600000E+01           0.00000000E+00
  -0.14500000E+01           0.00000000E+00
  -0.14400000E+01           0.00000000E+00
  -0.14300000E+01           0.00000000E+00
  -0.14200000E+01           0.00000000E+00
  -0.14100000E+01           0.00000000E+00
  -0.14000000E+01           0.00000000E+00
  -0.13900000E+01           0.00000000E+00
  -0.13800000E+01           0.00000000E+00
  -0.13700000E+01           0.00000000E+00
  -0.13600000E+01           0.00000000E+00
  -0.13500000E+01           0.00000000E+00
  -0.13400000E+01           0.00000000E+00
  -0.13300000E+01           0.00000000E+00
  -0.13200000E+01           0.00000000E+00
  -0.13100000E+01           0.00000000E+00
  -0.13000000E+01           0.00000000E+00
  -0.12900000E+01           0.00000000E+00
  -0.12800000E+01           0.00000000E+00
  -0.12700000E+01           0.00000000E+00
  -0.12600000E+01           0.00000000E+00
  -0.12500000E+01           0.00000000E+00
  -0.12400000E+01           0.00000000E+00
  -0.12300000E+01           0.00000000E+00
  -0.12200000E+01           0.00000000E+00
  -0.12100000E+01           0.00000000E+00
  -0.12000000E+01           0.00000000E+00
  -0.11900000E+01           0.00000000E+00
  -0.11800000E+01           0.00000000E+00
  -0.11700000E+01           0.00000000E+00
  -0.11600000E+01           0.00000000E+00
  -0.11500000E+01           0.00000000E+00
  -0.11400000E+01           0.00000000E+00
  -0.11300000E+01           0.00000000E+00
  -0.11200000E+01           0.00000000E+00
  -0.11100000E+01           0.00000000E+00
  -0.11000000E+01           0.00000000E+00
  -0.10900000E+01           0.00000000E+00
  -0.10800000E+01           0.00000000E+00
  -0.10700000E+01           0.00000000E+00
  -0.10600000E+01           0.00000000E+00
  -0.10500000E+01           0.00000000E+00
  -0.10400000E+01           0.00000000E+00
  -0.10300000E+01           0.00000000E+00
  -0.10200000E+01           0.00000000E+00
  -0.10100000E+01           0.00000000E+00
  -0.10000000E+01           0.00000000E+00
  -0.99000000E+00           0.00000000E+00
  -0.98000000E+00           0.00000000E+00
  -0.97000000E+00           0.00000000E+00
  -0.96000000E+00           0.00000000E+00
  -0.95000000E+00           0.00000000E+00
  -0.94000000E+00           0.00000000E+00
  -0.93000000E+00           0.00000000E+00
  -0.92000000E+00           0.00000000E+00
  -0.91000000E+00           0.00000000E+00
  -0.90000000E+00           0.00000000E+00
  -0.89000000E+00           0.00000000E+00
  -0.88000000E+00           0.00000000E+00
  -0.87000000E+00           0.00000000E+00
  -0.86000000E+00           0.00000000E+00
  -0.85000000E+00           0.00000000E+00
  -0.84000000E+00           0.00000000E+00
  -0.83000000E+00           0.00000000E+00
  -0.82000000E+00           0.00000000E+00
  -0.81000000E+00           0.00000000E+00
  -0.80000000E+00           0.00000000E+00
  -0.79000000E+00           0.00000000E+00
  -0.78000000E+00           0.00000000E+00
  -0.77000000E+00           0.00000000E+00
  -0.76000000E+00           0.00000000E+00
  -0.75000000E+00           0.00000000E+00
  -0.74000000E+00           0.00000000E+00
  -0.73000000E+00           0.00000000E+00
  -0.72000000E+00           0.00000000E+00
  -0.71000000E+00           0.00000000E+00
  -0.70000000E+00           0.00000000E+00
  -0.69000000E+00           0.00000000E+00
  -0.68000000E+00           0.00000000E+00
  -0.67000000E+00           0.00000000E+00
  -0.66000000E+00           0.00000000E+00
  -0.65000000E+00           0.00000000E+00
  -0.64000000E+00           0.00000000E+00
  -0.63000000E+00           0.00000000E+00
  -0.62000000E+00           0.00000000E+00
  -0.61000000E+00           0.00000000E+00
  -0.60000000E+00           0.00000000E+00
  -0.59000000E+00           0.00000000E+00
  -0.58000000E+00           0.00000000E+00
  -0.57000000E+00           0.00000000E+00
  -0.56000000E+00           0.00000000E+00
  -0.55000000E+00           0.00000000E+00
  -0.54000000E+00           0.00000000E+00
  -0.53000000E+00           0.00000000E+00
  -0.52000000E+00           0.00000000E+00
  -0.51000000E+00           0.00000000E+00
  -0.50000000E+00           0.00000000E+00
  -0.49000000E+00           0.00000000E+00
  -0.48000000E+00           0.00000000E+00
  -0.47000000E+00           0.00000000E+00
  -0.46000000E+00           0.00000000E+00
  -0.45000000E+00           0.00000000E+00
  -0.44000000E+00           0.00000000E+00
  -0.43000000E+00           0.00000000E+00
  -0.42000000E+00           0.00000000E+00
  -0.41000000E+00           0.00000000E+00
  -0.40000000E+00           0.00000000E+00
  -0.39000000E+00           0.00000000E+00
  -0.38000000E+00           0.00000000E+00
  -0.37000000E+00           0.00000000E+00
  -0.36000000E+00           0.00000000E+00
  -0.35000000E+00           0.00000000E+00
  -0.34000000E+00           0.00000000E+00
  -0.33000000E+00           0.00000000E+00
  -0.32000000E+00           0.00000000E+00
  -0.31000000E+00           0.00000000E+00
  -0.30000000E+00           0.00000000E+00
  -0.29000000E+00           0.00000000E+00
  -0.28000000E+00           0.00000000E+00
  -0.27000000E+00           0.00000000E+00
  -0.26000000E+00           0.00000000E+00
  -0.25000000E+00           0.00000000E+00
  -0.24000000E+00           0.00000000E+00
  -0.23000000E+00           0.00000000E+00
  -0.22000000E+00           0.00000000E+00
  -0.21000000E+00           0.00000000E+00
  -0.20000000E+00           0.00000000E+00
  -0.19000000E+00           0.00000000E+00
  -0.18000000E+00           0.00000000E+00
  -0.17000000E+00           0.00000000E+00
  -0.16000000E+00           0.00000000E+00
  -0.15000000E+00           0.00000000E+00
  -0.14000000E+00           0.00000000E+00
  -0.13000000E+00           0.00000000E+00
  -0.12000000E+00           0.00000000E+00
  -0.11000000E+00           0.00000000E+00
  -0.10000000E+00           0.00000000E+00
  -0.90000000E-01           0.00000000E+00
  -0.80000000E-01           0.00000000E+00
  -0.70000000E-01           0.00000000E+00
  -0.60000000E-01           0.00000000E+00
  -0.50000000E-01           0.00000000E+00
  -0.40000000E-01           0.00000000E+00
  -0.30000000E-01           0.00000000E+00
  -0.20000000E-01           0.00000000E+00
  -0.10000000E-01           0.00000000E+00
   0.00000000E+00           0.45310374E-02
   0.10000000E-01           0.36419813E-01
   0.20000000E-01           0.72962075E-01
   0.30000000E-01           0.10925697E+00
   0.40000000E-01           0.14532236E+00
   0.50000000E-01           0.18186590E+00
   0.60000000E-01           0.21747449E+00
   0.70000000E-01           0.25276556E+00
   0.80000000E-01           0.28830680E+00
   0.90000000E-01           0.32329005E+00
   0.10000000E+00           0.35786794E+00
   0.11000000E+00           0.39294379E+00
   0.12000000E+00           0.42664541E+00
   0.13000000E+00           0.46020765E+00
   0.14000000E+00           0.49295238E+00
   0.15000000E+00           0.52544796E+00
   0.16000000E+00           0.55699107E+00
   0.17000000E+00           0.58904719E+00
   0.18000000E+00           0.61937024E+00
   0.19000000E+00           0.64955349E+00
   0.20000000E+00           0.67909337E+00
   0.21000000E+00           0.70748478E+00
   0.22000000E+00           0.73601352E+00
   0.23000000E+00           0.76305986E+00
   0.24000000E+00           0.78966284E+00
   0.25000000E+00           0.81479150E+00
   0.26000000E+00           0.84039940E+00
   0.27000000E+00           0.86408163E+00
   0.28000000E+00           0.88699864E+00
   0.29000000E+00           0.90921378E+00
   0.30000000E+00           0.93083546E+00
   0.31000000E+00           0.95152696E+00
   0.32000000E+00           0.97108520E+00
   0.33000000E+00           0.99000714E+00
   0.34000000E+00           0.10087967E+01
   0.35000000E+00           0.10240890E+01
   0.36000000E+00           0.10400190E+01
   0.37000000E+00           0.10542615E+01
   0.38000000E+00           0.10692679E+01
   0.39000000E+00           0.10828754E+01
   0.40000000E+00           0.10939347E+01
   0.41000000E+00           0.11052856E+01
   0.42000000E+00           0.11155382E+01
   0.43000000E+00           0.11251329E+01
   0.44000000E+00           0.11331715E+01
   0.45000000E+00           0.11410480E+01
   0.46000000E+00           0.11471236E+01
   0.47000000E+00           0.11519395E+01
   0.48000000E+00           0.11565247E+01
   0.49000000E+00           0.11606604E+01
   0.50000000E+00           0.11630943E+01
   0.51000000E+00           0.11658728E+01
   0.52000000E+00           0.11660348E+01
   0.53000000E+00           0.11659063E+01
   0.54000000E+00           0.11656375E+01
   0.55000000E+00           0.11640638E+01
   0.56000000E+00           0.11611401E+01
   0.57000000E+00           0.11586282E+01
   0.58000000E+00           0.11537217E+01
   0.59000000E+00           0.11505037E+01
   0.60000000E+00           0.11449906E+01
   0.61000000E+00           0.11386730E+01
   0.62000000E+00           0.11311208E+01
   0.63000000E+00           0.11244606E+01
   0.64000000E+00           0.11161480E+01
   0.65000000E+00           0.11077836E+01
   0.66000000E+00           0.10978680E+01
   0.67000000E+00           0.10883781E+01
   0.68000000E+00           0.10768713E+01
   0.69000000E+00           0.10668022E+01
   0.70000000E+00           0.10550812E+01
   0.71000000E+00           0.10429780E+01
   0.72000000E+00           0.10300658E+01
   0.73000000E+00           0.10180935E+01
   0.74000000E+00           0.10049755E+01
   0.75000000E+00           0.98995400E+00
   0.76000000E+00           0.97649362E+00
   0.77000000E+00           0.96258061E+00
   0.78000000E+00           0.94774804E+00
   0.79000000E+00           0.93241437E+00
   0.80000000E+00           0.91733053E+00
   0.81000000E+00           0.90208597E+00
   0.82000000E+00           0.88595102E+00
   0.83000000E+00           0.87057602E+00
   0.84000000E+00           0.85439150E+00
   0.85000000E+00           0.83807747E+00
   0.86000000E+00           0.82215740E+00
   0.87000000E+00           0.80624872E+00
   0.88000000E+00           0.78870901E+00
   0.89000000E+00           0.77268546E+00
   0.90000000E+00           0.75601293E+00
   0.91000000E+00           0.73960119E+00
   0.92000000E+00           0.72267636E+00
   0.93000000E+00           0.70608665E+00
   0.94000000E+00           0.69016480E+00
   0.95000000E+00           0.67359745E+00
   0.96000000E+00           0.65687109E+00
   0.97000000E+00           0.64169549E+00
   0.98000000E+00           0.62374107E+00
   0.99000000E+00           0.60868002E+00
   0.10000000E+01           0.59243767E+00
   0.10100000E+01           0.57653707E+00
   0.10200000E+01           0.56122900E+00
   0.10300000E+01           0.54509966E+00
   0.10400000E+01           0.52951216E+00
   0.10500000E+01           0.51470213E+00
   0.10600000E+01           0.49968282E+00
   0.10700000E+01           0.48438393E+00
   0.10800000E+01           0.47055570E+00
   0.10900000E+01           0.45554388E+00
   0.11000000E+01           0.44127874E+00
   0.11100000E+01           0.42725374E+00
   0.11200000E+01           0.41401956E+00
   0.11300000E+01           0.40052168E+00
   0.11400000E+01           0.38729847E+00
   0.11500000E+01           0.37377007E+00
   0.11600000E+01           0.36143495E+00
   0.11700000E+01           0.34923912E+00
   0.11800000E+01           0.33690485E+00
   0.11900000E+01           0.32540672E+00
   0.12000000E+01           0.31321794E+00
   0.12100000E+01           0.30207185E+00
   0.12200000E+01           0.29083903E+00
   0.12300000E+01           0.28001276E+00
   0.12400000E+01           0.26923699E+00
   0.12500000E+01           0.25902296E+00
   0.12600000E+01           0.24873367E+00
   0.12700000E+01           0.23925128E+00
   0.12800000E+01           0.22989031E+00
   0.12900000E+01           0.22057908E+00
   0.13000000E+01           0.21154762E+00
   0.13100000E+01           0.20246037E+00
   0.13200000E+01           0.19448844E+00
   0.13300000E+01           0.18637406E+00
   0.13400000E+01           0.17844923E+00
   0.13500000E+01           0.17058716E+00
   0.13600000E+01           0.16311871E+00
   0.13700000E+01           0.15603495E+00
   0.13800000E+01           0.14883793E+00
   0.13900000E+01           0.14226709E+00
   0.14000000E+01           0.13589192E+00
   0.14100000E+01           0.12941556E+00
   0.14200000E+01           0.12344991E+00
   0.14300000E+01           0.11749583E+00
   0.14400000E+01           0.11215961E+00
   0.14500000E+01           0.10653988E+00
   0.14600000E+01           0.10141939E+00
   0.14700000E+01           0.96659694E-01
   0.14800000E+01           0.91710714E-01
   0.14900000E+01           0.87063690E-01
   0.15000000E+01           0.82760119E-01
   0.15100000E+01           0.78330612E-01
   0.15200000E+01           0.74340901E-01
   0.15300000E+01           0.70359864E-01
   0.15400000E+01           0.66671088E-01
   0.15500000E+01           0.63160204E-01
   0.15600000E+01           0.59705187E-01
   0.15700000E+01           0.56469048E-01
   0.15800000E+01           0.53226616E-01
   0.15900000E+01           0.50448384E-01
   0.16000000E+01           0.47608503E-01
   0.16100000E+01           0.44880442E-01
   0.16200000E+01           0.42246344E-01
   0.16300000E+01           0.39747279E-01
   0.16400000E+01           0.37420663E-01
   0.16500000E+01           0.35203741E-01
   0.16600000E+01           0.33094473E-01
   0.16700000E+01           0.31145238E-01
   0.16800000E+01           0.29188520E-01
   0.16900000E+01           0.27401361E-01
   0.17000000E+01           0.25713776E-01
   0.17100000E+01           0.24103912E-01
   0.17200000E+01           0.22497534E-01
   0.17300000E+01           0.21018112E-01
   0.17400000E+01           0.19640816E-01
   0.17500000E+01           0.18293707E-01
   0.17600000E+01           0.17146429E-01
   0.17700000E+01           0.15893537E-01
   0.17800000E+01           0.14825000E-01
   0.17900000E+01           0.13816922E-01
   0.18000000E+01           0.12775935E-01
   0.18100000E+01           0.11973980E-01
   0.18200000E+01           0.11116156E-01
   0.18300000E+01           0.10303827E-01
   0.18400000E+01           0.95204082E-02
   0.18500000E+01           0.88282313E-02
   0.18600000E+01           0.81715986E-02
   0.18700000E+01           0.75232993E-02
   0.18800000E+01           0.69681973E-02
   0.18900000E+01           0.64423469E-02
   0.19000000E+01           0.58461735E-02
   0.19100000E+01           0.54002551E-02
   0.19200000E+01           0.49181973E-02
   0.19300000E+01           0.45207483E-02
   0.19400000E+01           0.41559524E-02
   0.19500000E+01           0.37736395E-02
   0.19600000E+01           0.34225340E-02
   0.19700000E+01           0.31614796E-02
   0.19800000E+01           0.28420918E-02
   0.19900000E+01           0.25768707E-02
   0.20000000E+01           0.11911565E-02
 #T=   203.0000
  -0.20000000E+01           0.00000000E+00
  -0.19900000E+01           0.00000000E+00
  -0.19800000E+01           0.00000000E+00
  -0.19700000E+01           0.00000000E+00
  -0.19600000E+01           0.00000000E+00
  -0.19500000E+01           0.00000000E+00
  -0.19400000E+01           0.00000000E+00
  -0.19300000E+01           0.00000000E+00
  -0.19200000E+01           0.00000000E+00
  -0.19100000E+01           0.00000000E+00
  -0.19000000E+01           0.00000000E+00
  -0.18900000E+01           0.00000000E+00
  -0.18800000E+01           0.00000000E+00
  -0.18700000E+01           0.00000000E+00
  -0.18600000E+01           0.00000000E+00
  -0.18500000E+01           0.00000000E+00
  -0.18400000E+01           0.00000000E+00
  -0.18300000E+01           0.00000000E+00
  -0.18200000E+01           0.00000000E+00
  -0.18100000E+01           0.00000000E+00
  -0.18000000E+01           0.00000000E+00
  -0.17900000E+01           0.00000000E+00
  -0.17800000E+01           0.00000000E+00
  -0.17700000E+01           0.00000000E+00
  -0.17600000E+01           0.00000000E+00
  -0.17500000E+01           0.00000000E+00
  -0.17400000E+01           0.00000000E+00
  -0.17300000E+01           0.00000000E+00
  -0.17200000E+01           0.00000000E+00
  -0.17100000E+01           0.00000000E+00
  -0.17000000E+01           0.00000000E+00
  -0.16900000E+01           0.00000000E+00
  -0.16800000E+01           0.00000000E+00
  -0.16700000E+01           0.00000000E+00
  -0.16600000E+01           0.00000000E+00
  -0.16500000E+01           0.00000000E+00
  -0.16400000E+01           0.00000000E+00
  -0.16300000E+01           0.00000000E+00
  -0.16200000E+01           0.00000000E+00
  -0.16100000E+01           0.00000000E+00
  -0.16000000E+01           0.00000000E+00
  -0.15900000E+01           0.00000000E+00
  -0.15800000E+01           0.00000000E+00
  -0.15700000E+01           0.00000000E+00
  -0.15600000E+01           0.00000000E+00
  -0.15500000E+01           0.00000000E+00
  -0.15400000E+01           0.00000000E+00
  -0.15300000E+01           0.00000000E+00
  -0.15200000E+01           0.00000000E+00
  -0.15100000E+01           0.00000000E+00
  -0.15000000E+01           0.00000000E+00
  -0.14900000E+01           0.00000000E+00
  -0.14800000E+01           0.00000000E+00
  -0.14700000E+01           0.00000000E+00
  -0.14600000E+01           0.00000000E+00
  -0.14500000E+01           0.00000000E+00
  -0.14400000E+01           0.00000000E+00
  -0.14300000E+01           0.00000000E+00
  -0.14200000E+01           0.00000000E+00
  -0.14100000E+01           0.00000000E+00
  -0.14000000E+01           0.00000000E+00
  -0.13900000E+01           0.00000000E+00
  -0.13800000E+01           0.00000000E+00
  -0.13700000E+01           0.00000000E+00
  -0.13600000E+01           0.00000000E+00
  -0.13500000E+01           0.00000000E+00
  -0.13400000E+01           0.00000000E+00
  -0.13300000E+01           0.00000000E+00
  -0.13200000E+01           0.00000000E+00
  -0.13100000E+01           0.00000000E+00
  -0.13000000E+01           0.00000000E+00
  -0.12900000E+01           0.00000000E+00
  -0.12800000E+01           0.00000000E+00
  -0.12700000E+01           0.00000000E+00
  -0.12600000E+01           0.00000000E+00
  -0.12500000E+01           0.00000000E+00
  -0.12400000E+01           0.00000000E+00
  -0.12300000E+01           0.00000000E+00
  -0.12200000E+01           0.00000000E+00
  -0.12100000E+01           0.00000000E+00
  -0.12000000E+01           0.00000000E+00
  -0.11900000E+01           0.00000000E+00
  -0.11800000E+01           0.00000000E+00
  -0.11700000E+01           0.00000000E+00
  -0.11600000E+01           0.00000000E+00
  -0.11500000E+01           0.00000000E+00
  -0.11400000E+01           0.00000000E+00
  -0.11300000E+01           0.00000000E+00
  -0.11200000E+01           0.00000000E+00
  -0.11100000E+01           0.00000000E+00
  -0.11000000E+01           0.00000000E+00
  -0.10900000E+01           0.00000000E+00
  -0.10800000E+01           0.00000000E+00
  -0.10700000E+01           0.00000000E+00
  -0.10600000E+01           0.00000000E+00
  -0.10500000E+01           0.00000000E+00
  -0.10400000E+01           0.00000000E+00
  -0.10300000E+01           0.00000000E+00
  -0.10200000E+01           0.00000000E+00
  -0.10100000E+01           0.00000000E+00
  -0.10000000E+01           0.00000000E+00
  -0.99000000E+00           0.00000000E+00
  -0.98000000E+00           0.00000000E+00
  -0.97000000E+00           0.00000000E+00
  -0.96000000E+00           0.00000000E+00
  -0.95000000E+00           0.00000000E+00
  -0.94000000E+00           0.00000000E+00
  -0.93000000E+00           0.00000000E+00
  -0.92000000E+00           0.00000000E+00
  -0.91000000E+00           0.00000000E+00
  -0.90000000E+00           0.00000000E+00
  -0.89000000E+00           0.00000000E+00
  -0.88000000E+00           0.00000000E+00
  -0.87000000E+00           0.00000000E+00
  -0.86000000E+00           0.00000000E+00
  -0.85000000E+00           0.00000000E+00
  -0.84000000E+00           0.00000000E+00
  -0.83000000E+00           0.00000000E+00
  -0.82000000E+00           0.00000000E+00
  -0.81000000E+00           0.00000000E+00
  -0.80000000E+00           0.00000000E+00
  -0.79000000E+00           0.00000000E+00
  -0.78000000E+00           0.00000000E+00
  -0.77000000E+00           0.00000000E+00
  -0.76000000E+00           0.00000000E+00
  -0.75000000E+00           0.00000000E+00
  -0.74000000E+00           0.00000000E+00
  -0.73000000E+00           0.00000000E+00
  -0.72000000E+00           0.00000000E+00
  -0.71000000E+00           0.00000000E+00
  -0.70000000E+00           0.00000000E+00
  -0.69000000E+00           0.00000000E+00
  -0.68000000E+00           0.00000000E+00
  -0.67000000E+00           0.00000000E+00
  -0.66000000E+00           0.00000000E+00
  -0.65000000E+00           0.00000000E+00
  -0.64000000E+00           0.00000000E+00
  -0.63000000E+00           0.00000000E+00
  -0.62000000E+00           0.00000000E+00
  -0.61000000E+00           0.00000000E+00
  -0.60000000E+00           0.00000000E+00
  -0.59000000E+00           0.00000000E+00
  -0.58000000E+00           0.00000000E+00
  -0.57000000E+00           0.00000000E+00
  -0.56000000E+00           0.00000000E+00
  -0.55000000E+00           0.00000000E+00
  -0.54000000E+00           0.00000000E+00
  -0.53000000E+00           0.00000000E+00
  -0.52000000E+00           0.00000000E+00
  -0.51000000E+00           0.00000000E+00
  -0.50000000E+00           0.00000000E+00
  -0.49000000E+00           0.00000000E+00
  -0.48000000E+00           0.00000000E+00
  -0.47000000E+00           0.00000000E+00
  -0.46000000E+00           0.00000000E+00
  -0.45000000E+00           0.00000000E+00
  -0.44000000E+00           0.00000000E+00
  -0.43000000E+00           0.00000000E+00
  -0.42000000E+00           0.00000000E+00
  -0.41000000E+00           0.00000000E+00
  -0.40000000E+00           0.00000000E+00
  -0.39000000E+00           0.00000000E+00
  -0.38000000E+00           0.00000000E+00
  -0.37000000E+00           0.00000000E+00
  -0.36000000E+00           0.00000000E+00
  -0.35000000E+00           0.00000000E+00
  -0.34000000E+00           0.00000000E+00
  -0.33000000E+00           0.00000000E+00
  -0.32000000E+00           0.00000000E+00
  -0.31000000E+00           0.00000000E+00
  -0.30000000E+00           0.00000000E+00
  -0.29000000E+00           0.00000000E+00
  -0.28000000E+00           0.00000000E+00
  -0.27000000E+00           0.00000000E+00
  -0.26000000E+00           0.00000000E+00
  -0.25000000E+00           0.00000000E+00
  -0.24000000E+00           0.00000000E+00
  -0.23000000E+00           0.00000000E+00
  -0.22000000E+00           0.00000000E+00
  -0.21000000E+00           0.00000000E+00
  -0.20000000E+00           0.00000000E+00
  -0.19000000E+00           0.00000000E+00
  -0.18000000E+00           0.00000000E+00
  -0.17000000E+00           0.00000000E+00
  -0.16000000E+00           0.00000000E+00
  -0.15000000E+00           0.00000000E+00
  -0.14000000E+00           0.00000000E+00
  -0.13000000E+00           0.00000000E+00
  -0.12000000E+00           0.00000000E+00
  -0.11000000E+00           0.00000000E+00
  -0.10000000E+00           0.00000000E+00
  -0.90000000E-01           0.00000000E+00
  -0.80000000E-01           0.00000000E+00
  -0.70000000E-01           0.00000000E+00
  -0.60000000E-01           0.00000000E+00
  -0.50000000E-01           0.00000000E+00
  -0.40000000E-01           0.00000000E+00
  -0.30000000E-01           0.00000000E+00
  -0.20000000E-01           0.00000000E+00
  -0.10000000E-01           0.00000000E+00
   0.00000000E+00           0.45692177E-02
   0.10000000E-01           0.36325255E-01
   0.20000000E-01           0.72487500E-01
   0.30000000E-01           0.10864260E+00
   0.40000000E-01           0.14446709E+00
   0.50000000E-01           0.18051233E+00
   0.60000000E-01           0.21638699E+00
   0.70000000E-01           0.25178163E+00
   0.80000000E-01           0.28630247E+00
   0.90000000E-01           0.32162058E+00
   0.10000000E+00           0.35617024E+00
   0.11000000E+00           0.38994405E+00
   0.12000000E+00           0.42365408E+00
   0.13000000E+00           0.45718903E+00
   0.14000000E+00           0.49014218E+00
   0.15000000E+00           0.52254362E+00
   0.16000000E+00           0.55398316E+00
   0.17000000E+00           0.58557781E+00
   0.18000000E+00           0.61580799E+00
   0.19000000E+00           0.64649252E+00
   0.20000000E+00           0.67585264E+00
   0.21000000E+00           0.70362423E+00
   0.22000000E+00           0.73118835E+00
   0.23000000E+00           0.75875442E+00
   0.24000000E+00           0.78521046E+00
   0.25000000E+00           0.81040043E+00
   0.26000000E+00           0.83587083E+00
   0.27000000E+00           0.85959889E+00
   0.28000000E+00           0.88247083E+00
   0.29000000E+00           0.90468793E+00
   0.30000000E+00           0.92710442E+00
   0.31000000E+00           0.94749235E+00
   0.32000000E+00           0.96656054E+00
   0.33000000E+00           0.98489422E+00
   0.34000000E+00           0.10032937E+01
   0.35000000E+00           0.10186641E+01
   0.36000000E+00           0.10357301E+01
   0.37000000E+00           0.10514059E+01
   0.38000000E+00           0.10639702E+01
   0.39000000E+00           0.10775886E+01
   0.40000000E+00           0.10902099E+01
   0.41000000E+00           0.11004676E+01
   0.42000000E+00           0.11109496E+01
   0.43000000E+00           0.11197795E+01
   0.44000000E+00           0.11287352E+01
   0.45000000E+00           0.11366593E+01
   0.46000000E+00           0.11428369E+01
   0.47000000E+00           0.11481537E+01
   0.48000000E+00           0.11534582E+01
   0.49000000E+00           0.11576616E+01
   0.50000000E+00           0.11604796E+01
   0.51000000E+00           0.11618814E+01
   0.52000000E+00           0.11624936E+01
   0.53000000E+00           0.11624742E+01
   0.54000000E+00           0.11624266E+01
   0.55000000E+00           0.11607410E+01
   0.56000000E+00           0.11586636E+01
   0.57000000E+00           0.11550614E+01
   0.58000000E+00           0.11521938E+01
   0.59000000E+00           0.11473261E+01
   0.60000000E+00           0.11410649E+01
   0.61000000E+00           0.11359064E+01
   0.62000000E+00           0.11296411E+01
   0.63000000E+00           0.11222116E+01
   0.64000000E+00           0.11144638E+01
   0.65000000E+00           0.11059230E+01
   0.66000000E+00           0.10966190E+01
   0.67000000E+00           0.10864254E+01
   0.68000000E+00           0.10763124E+01
   0.69000000E+00           0.10656666E+01
   0.70000000E+00           0.10543071E+01
   0.71000000E+00           0.10426377E+01
   0.72000000E+00           0.10292533E+01
   0.73000000E+00           0.10168866E+01
   0.74000000E+00           0.10041366E+01
   0.75000000E+00           0.99033844E+00
   0.76000000E+00           0.97688835E+00
   0.77000000E+00           0.96291548E+00
   0.78000000E+00           0.94830332E+00
   0.79000000E+00           0.93335034E+00
   0.80000000E+00           0.91847560E+00
   0.81000000E+00           0.90335799E+00
   0.82000000E+00           0.88719668E+00
   0.83000000E+00           0.87184158E+00
   0.84000000E+00           0.85605077E+00
   0.85000000E+00           0.84004830E+00
   0.86000000E+00           0.82345493E+00
   0.87000000E+00           0.80815859E+00
   0.88000000E+00           0.79135153E+00
   0.89000000E+00           0.77492355E+00
   0.90000000E+00           0.75857483E+00
   0.91000000E+00           0.74202440E+00
   0.92000000E+00           0.72518903E+00
   0.93000000E+00           0.70858895E+00
   0.94000000E+00           0.69229889E+00
   0.95000000E+00           0.67570561E+00
   0.96000000E+00           0.65942585E+00
   0.97000000E+00           0.64394022E+00
   0.98000000E+00           0.62736352E+00
   0.99000000E+00           0.61138129E+00
   0.10000000E+01           0.59592185E+00
   0.10100000E+01           0.57944294E+00
   0.10200000E+01           0.56383401E+00
   0.10300000E+01           0.54882738E+00
   0.10400000E+01           0.53266131E+00
   0.10500000E+01           0.51807687E+00
   0.10600000E+01           0.50267721E+00
   0.10700000E+01           0.48750255E+00
   0.10800000E+01           0.47336267E+00
   0.10900000E+01           0.45909966E+00
   0.11000000E+01           0.44530323E+00
   0.11100000E+01           0.43084677E+00
   0.11200000E+01           0.41709949E+00
   0.11300000E+01           0.40397738E+00
   0.11400000E+01           0.39060332E+00
   0.11500000E+01           0.37730816E+00
   0.11600000E+01           0.36500374E+00
   0.11700000E+01           0.35253461E+00
   0.11800000E+01           0.34002041E+00
   0.11900000E+01           0.32779337E+00
   0.12000000E+01           0.31639966E+00
   0.12100000E+01           0.30514609E+00
   0.12200000E+01           0.29402891E+00
   0.12300000E+01           0.28315366E+00
   0.12400000E+01           0.27284133E+00
   0.12500000E+01           0.26229150E+00
   0.12600000E+01           0.25188827E+00
   0.12700000E+01           0.24197619E+00
   0.12800000E+01           0.23284643E+00
   0.12900000E+01           0.22316114E+00
   0.13000000E+01           0.21410230E+00
   0.13100000E+01           0.20577526E+00
   0.13200000E+01           0.19706395E+00
   0.13300000E+01           0.18891114E+00
   0.13400000E+01           0.18106658E+00
   0.13500000E+01           0.17321896E+00
   0.13600000E+01           0.16556437E+00
   0.13700000E+01           0.15828078E+00
   0.13800000E+01           0.15151029E+00
   0.13900000E+01           0.14461327E+00
   0.14000000E+01           0.13811922E+00
   0.14100000E+01           0.13185000E+00
   0.14200000E+01           0.12542185E+00
   0.14300000E+01           0.11994558E+00
   0.14400000E+01           0.11421913E+00
   0.14500000E+01           0.10858869E+00
   0.14600000E+01           0.10319821E+00
   0.14700000E+01           0.98282143E-01
   0.14800000E+01           0.93517602E-01
   0.14900000E+01           0.88910969E-01
   0.15000000E+01           0.84419983E-01
   0.15100000E+01           0.80160289E-01
   0.15200000E+01           0.75938265E-01
   0.15300000E+01           0.71909099E-01
   0.15400000E+01           0.68183929E-01
   0.15500000E+01           0.64554762E-01
   0.15600000E+01           0.61127041E-01
   0.15700000E+01           0.57869983E-01
   0.15800000E+01           0.54588010E-01
   0.15900000E+01           0.51560459E-01
   0.16000000E+01           0.48715731E-01
   0.16100000E+01           0.45961139E-01
   0.16200000E+01           0.43312755E-01
   0.16300000E+01           0.40791922E-01
   0.16400000E+01           0.38477126E-01
   0.16500000E+01           0.36166582E-01
   0.16600000E+01           0.33968027E-01
   0.16700000E+01           0.31929167E-01
   0.16800000E+01           0.30082653E-01
   0.16900000E+01           0.28121344E-01
   0.17000000E+01           0.26543027E-01
   0.17100000E+01           0.24818282E-01
   0.17200000E+01           0.23162160E-01
   0.17300000E+01           0.21659779E-01
   0.17400000E+01           0.20289116E-01
   0.17500000E+01           0.18986139E-01
   0.17600000E+01           0.17673724E-01
   0.17700000E+01           0.16542772E-01
   0.17800000E+01           0.15388776E-01
   0.17900000E+01           0.14318963E-01
   0.18000000E+01           0.13310289E-01
   0.18100000E+01           0.12354337E-01
   0.18200000E+01           0.11462585E-01
   0.18300000E+01           0.10623129E-01
   0.18400000E+01           0.99068878E-02
   0.18500000E+01           0.91352041E-02
   0.18600000E+01           0.84727041E-02
   0.18700000E+01           0.78391156E-02
   0.18800000E+01           0.72682823E-02
   0.18900000E+01           0.66256803E-02
   0.19000000E+01           0.61165816E-02
   0.19100000E+01           0.56192177E-02
   0.19200000E+01           0.51821429E-02
   0.19300000E+01           0.47517007E-02
   0.19400000E+01           0.43444728E-02
   0.19500000E+01           0.39534864E-02
   0.19600000E+01           0.36339286E-02
   0.19700000E+01           0.32579082E-02
   0.19800000E+01           0.29429422E-02
   0.19900000E+01           0.27011905E-02
   0.20000000E+01           0.12670068E-02
 #T=   204.0000
  -0.20000000E+01           0.00000000E+00
  -0.19900000E+01           0.00000000E+00
  -0.19800000E+01           0.00000000E+00
  -0.19700000E+01           0.00000000E+00
  -0.19600000E+01           0.00000000E+00
  -0.19500000E+01           0.00000000E+00
  -0.19400000E+01           0.00000000E+00
  -0.19300000E+01           0.00000000E+00
  -0.19200000E+01           0.00000000E+00
  -0.19100000E+01           0.00000000E+00
  -0.19000000E+01           0.00000000E+00
  -0.18900000E+01           0.00000000E+00
  -0.18800000E+01           0.00000000E+00
  -0.18700000E+01           0.00000000E+00
  -0.18600000E+01           0.00000000E+00
  -0.18500000E+01           0.00000000E+00
  -0.18400000E+01           0.00000000E+00
  -0.18300000E+01           0.00000000E+00
  -0.18200000E+01           0.00000000E+00
  -0.18100000E+01           0.00000000E+00
  -0.18000000E+01           0.00000000E+00
  -0.17900000E+01           0.00000000E+00
  -0.17800000E+01           0.00000000E+00
  -0.17700000E+01           0.00000000E+00
  -0.17600000E+01           0.00000000E+00
  -0.17500000E+01           0.00000000E+00
  -0.17400000E+01           0.00000000E+00
  -0.17300000E+01           0.00000000E+00
  -0.17200000E+01           0.00000000E+00
  -0.17100000E+01           0.00000000E+00
  -0.17000000E+01           0.00000000E+00
  -0.16900000E+01           0.00000000E+00
  -0.16800000E+01           0.00000000E+00
  -0.16700000E+01           0.00000000E+00
  -0.16600000E+01           0.00000000E+00
  -0.16500000E+01           0.00000000E+00
  -0.16400000E+01           0.00000000E+00
  -0.16300000E+01           0.00000000E+00
  -0.16200000E+01           0.00000000E+00
  -0.16100000E+01           0.00000000E+00
  -0.16000000E+01           0.00000000E+00
  -0.15900000E+01           0.00000000E+00
  -0.15800000E+01           0.00000000E+00
  -0.15700000E+01           0.00000000E+00
  -0.15600000E+01           0.00000000E+00
  -0.15500000E+01           0.00000000E+00
  -0.15400000E+01           0.00000000E+00
  -0.15300000E+01           0.00000000E+00
  -0.15200000E+01           0.00000000E+00
  -0.15100000E+01           0.00000000E+00
  -0.15000000E+01           0.00000000E+00
  -0.14900000E+01           0.00000000E+00
  -0.14800000E+01           0.00000000E+00
  -0.14700000E+01           0.00000000E+00
  -0.14600000E+01           0.00000000E+00
  -0.14500000E+01           0.00000000E+00
  -0.14400000E+01           0.00000000E+00
  -0.14300000E+01           0.00000000E+00
  -0.14200000E+01           0.00000000E+00
  -0.14100000E+01           0.00000000E+00
  -0.14000000E+01           0.00000000E+00
  -0.13900000E+01           0.00000000E+00
  -0.13800000E+01           0.00000000E+00
  -0.13700000E+01           0.00000000E+00
  -0.13600000E+01           0.00000000E+00
  -0.13500000E+01           0.00000000E+00
  -0.13400000E+01           0.00000000E+00
  -0.13300000E+01           0.00000000E+00
  -0.13200000E+01           0.00000000E+00
  -0.13100000E+01           0.00000000E+00
  -0.13000000E+01           0.00000000E+00
  -0.12900000E+01           0.00000000E+00
  -0.12800000E+01           0.00000000E+00
  -0.12700000E+01           0.00000000E+00
  -0.12600000E+01           0.00000000E+00
  -0.12500000E+01           0.00000000E+00
  -0.12400000E+01           0.00000000E+00
  -0.12300000E+01           0.00000000E+00
  -0.12200000E+01           0.00000000E+00
  -0.12100000E+01           0.00000000E+00
  -0.12000000E+01           0.00000000E+00
  -0.11900000E+01           0.00000000E+00
  -0.11800000E+01           0.00000000E+00
  -0.11700000E+01           0.00000000E+00
  -0.11600000E+01           0.00000000E+00
  -0.11500000E+01           0.00000000E+00
  -0.11400000E+01           0.00000000E+00
  -0.11300000E+01           0.00000000E+00
  -0.11200000E+01           0.00000000E+00
  -0.11100000E+01           0.00000000E+00
  -0.11000000E+01           0.00000000E+00
  -0.10900000E+01           0.00000000E+00
  -0.10800000E+01           0.00000000E+00
  -0.10700000E+01           0.00000000E+00
  -0.10600000E+01           0.00000000E+00
  -0.10500000E+01           0.00000000E+00
  -0.10400000E+01           0.00000000E+00
  -0.10300000E+01           0.00000000E+00
  -0.10200000E+01           0.00000000E+00
  -0.10100000E+01           0.00000000E+00
  -0.10000000E+01           0.00000000E+00
  -0.99000000E+00           0.00000000E+00
  -0.98000000E+00           0.00000000E+00
  -0.97000000E+00           0.00000000E+00
  -0.96000000E+00           0.00000000E+00
  -0.95000000E+00           0.00000000E+00
  -0.94000000E+00           0.00000000E+00
  -0.93000000E+00           0.00000000E+00
  -0.92000000E+00           0.00000000E+00
  -0.91000000E+00           0.00000000E+00
  -0.90000000E+00           0.00000000E+00
  -0.89000000E+00           0.00000000E+00
  -0.88000000E+00           0.00000000E+00
  -0.87000000E+00           0.00000000E+00
  -0.86000000E+00           0.00000000E+00
  -0.85000000E+00           0.00000000E+00
  -0.84000000E+00           0.00000000E+00
  -0.83000000E+00           0.00000000E+00
  -0.82000000E+00           0.00000000E+00
  -0.81000000E+00           0.00000000E+00
  -0.80000000E+00           0.00000000E+00
  -0.79000000E+00           0.00000000E+00
  -0.78000000E+00           0.00000000E+00
  -0.77000000E+00           0.00000000E+00
  -0.76000000E+00           0.00000000E+00
  -0.75000000E+00           0.00000000E+00
  -0.74000000E+00           0.00000000E+00
  -0.73000000E+00           0.00000000E+00
  -0.72000000E+00           0.00000000E+00
  -0.71000000E+00           0.00000000E+00
  -0.70000000E+00           0.00000000E+00
  -0.69000000E+00           0.00000000E+00
  -0.68000000E+00           0.00000000E+00
  -0.67000000E+00           0.00000000E+00
  -0.66000000E+00           0.00000000E+00
  -0.65000000E+00           0.00000000E+00
  -0.64000000E+00           0.00000000E+00
  -0.63000000E+00           0.00000000E+00
  -0.62000000E+00           0.00000000E+00
  -0.61000000E+00           0.00000000E+00
  -0.60000000E+00           0.00000000E+00
  -0.59000000E+00           0.00000000E+00
  -0.58000000E+00           0.00000000E+00
  -0.57000000E+00           0.00000000E+00
  -0.56000000E+00           0.00000000E+00
  -0.55000000E+00           0.00000000E+00
  -0.54000000E+00           0.00000000E+00
  -0.53000000E+00           0.00000000E+00
  -0.52000000E+00           0.00000000E+00
  -0.51000000E+00           0.00000000E+00
  -0.50000000E+00           0.00000000E+00
  -0.49000000E+00           0.00000000E+00
  -0.48000000E+00           0.00000000E+00
  -0.47000000E+00           0.00000000E+00
  -0.46000000E+00           0.00000000E+00
  -0.45000000E+00           0.00000000E+00
  -0.44000000E+00           0.00000000E+00
  -0.43000000E+00           0.00000000E+00
  -0.42000000E+00           0.00000000E+00
  -0.41000000E+00           0.00000000E+00
  -0.40000000E+00           0.00000000E+00
  -0.39000000E+00           0.00000000E+00
  -0.38000000E+00           0.00000000E+00
  -0.37000000E+00           0.00000000E+00
  -0.36000000E+00           0.00000000E+00
  -0.35000000E+00           0.00000000E+00
  -0.34000000E+00           0.00000000E+00
  -0.33000000E+00           0.00000000E+00
  -0.32000000E+00           0.00000000E+00
  -0.31000000E+00           0.00000000E+00
  -0.30000000E+00           0.00000000E+00
  -0.29000000E+00           0.00000000E+00
  -0.28000000E+00           0.00000000E+00
  -0.27000000E+00           0.00000000E+00
  -0.26000000E+00           0.00000000E+00
  -0.25000000E+00           0.00000000E+00
  -0.24000000E+00           0.00000000E+00
  -0.23000000E+00           0.00000000E+00
  -0.22000000E+00           0.00000000E+00
  -0.21000000E+00           0.00000000E+00
  -0.20000000E+00           0.00000000E+00
  -0.19000000E+00           0.00000000E+00
  -0.18000000E+00           0.00000000E+00
  -0.17000000E+00           0.00000000E+00
  -0.16000000E+00           0.00000000E+00
  -0.15000000E+00           0.00000000E+00
  -0.14000000E+00           0.00000000E+00
  -0.13000000E+00           0.00000000E+00
  -0.12000000E+00           0.00000000E+00
  -0.11000000E+00           0.00000000E+00
  -0.10000000E+00           0.00000000E+00
  -0.90000000E-01           0.00000000E+00
  -0.80000000E-01           0.00000000E+00
  -0.70000000E-01           0.00000000E+00
  -0.60000000E-01           0.00000000E+00
  -0.50000000E-01           0.00000000E+00
  -0.40000000E-01           0.00000000E+00
  -0.30000000E-01           0.00000000E+00
  -0.20000000E-01           0.00000000E+00
  -0.10000000E-01           0.00000000E+00
   0.00000000E+00           0.45115646E-02
   0.10000000E-01           0.35855017E-01
   0.20000000E-01           0.72083503E-01
   0.30000000E-01           0.10791692E+00
   0.40000000E-01           0.14376497E+00
   0.50000000E-01           0.17909209E+00
   0.60000000E-01           0.21514566E+00
   0.70000000E-01           0.25004337E+00
   0.80000000E-01           0.28508078E+00
   0.90000000E-01           0.31977432E+00
   0.10000000E+00           0.35438954E+00
   0.11000000E+00           0.38787355E+00
   0.12000000E+00           0.42200765E+00
   0.13000000E+00           0.45431752E+00
   0.14000000E+00           0.48739005E+00
   0.15000000E+00           0.51883869E+00
   0.16000000E+00           0.55129991E+00
   0.17000000E+00           0.58193605E+00
   0.18000000E+00           0.61222347E+00
   0.19000000E+00           0.64246037E+00
   0.20000000E+00           0.67146777E+00
   0.21000000E+00           0.69991539E+00
   0.22000000E+00           0.72780570E+00
   0.23000000E+00           0.75503844E+00
   0.24000000E+00           0.78103801E+00
   0.25000000E+00           0.80652645E+00
   0.26000000E+00           0.83152389E+00
   0.27000000E+00           0.85484243E+00
   0.28000000E+00           0.87832551E+00
   0.29000000E+00           0.90011088E+00
   0.30000000E+00           0.92186471E+00
   0.31000000E+00           0.94175145E+00
   0.32000000E+00           0.96166879E+00
   0.33000000E+00           0.98064728E+00
   0.34000000E+00           0.99840612E+00
   0.35000000E+00           0.10154955E+01
   0.36000000E+00           0.10312940E+01
   0.37000000E+00           0.10457279E+01
   0.38000000E+00           0.10607169E+01
   0.39000000E+00           0.10730091E+01
   0.40000000E+00           0.10846430E+01
   0.41000000E+00           0.10965160E+01
   0.42000000E+00           0.11070646E+01
   0.43000000E+00           0.11164799E+01
   0.44000000E+00           0.11245024E+01
   0.45000000E+00           0.11313090E+01
   0.46000000E+00           0.11388804E+01
   0.47000000E+00           0.11439837E+01
   0.48000000E+00           0.11471184E+01
   0.49000000E+00           0.11533090E+01
   0.50000000E+00           0.11563869E+01
   0.51000000E+00           0.11585229E+01
   0.52000000E+00           0.11588423E+01
   0.53000000E+00           0.11594279E+01
   0.54000000E+00           0.11582649E+01
   0.55000000E+00           0.11574668E+01
   0.56000000E+00           0.11554929E+01
   0.57000000E+00           0.11524909E+01
   0.58000000E+00           0.11486695E+01
   0.59000000E+00           0.11442865E+01
   0.60000000E+00           0.11398692E+01
   0.61000000E+00           0.11339548E+01
   0.62000000E+00           0.11269294E+01
   0.63000000E+00           0.11199134E+01
   0.64000000E+00           0.11122470E+01
   0.65000000E+00           0.11037185E+01
   0.66000000E+00           0.10949182E+01
   0.67000000E+00           0.10851573E+01
   0.68000000E+00           0.10743283E+01
   0.69000000E+00           0.10644974E+01
   0.70000000E+00           0.10530344E+01
   0.71000000E+00           0.10420477E+01
   0.72000000E+00           0.10300591E+01
   0.73000000E+00           0.10171451E+01
   0.74000000E+00           0.10046679E+01
   0.75000000E+00           0.99161998E+00
   0.76000000E+00           0.97697534E+00
   0.77000000E+00           0.96271148E+00
   0.78000000E+00           0.94862440E+00
   0.79000000E+00           0.93338503E+00
   0.80000000E+00           0.91940595E+00
   0.81000000E+00           0.90406480E+00
   0.82000000E+00           0.88877883E+00
   0.83000000E+00           0.87343350E+00
   0.84000000E+00           0.85800230E+00
   0.85000000E+00           0.84163308E+00
   0.86000000E+00           0.82531964E+00
   0.87000000E+00           0.80852866E+00
   0.88000000E+00           0.79371990E+00
   0.89000000E+00           0.77739813E+00
   0.90000000E+00           0.76060663E+00
   0.91000000E+00           0.74416429E+00
   0.92000000E+00           0.72757543E+00
   0.93000000E+00           0.71162177E+00
   0.94000000E+00           0.69513478E+00
   0.95000000E+00           0.67862619E+00
   0.96000000E+00           0.66311318E+00
   0.97000000E+00           0.64669719E+00
   0.98000000E+00           0.63011199E+00
   0.99000000E+00           0.61395493E+00
   0.10000000E+01           0.59870213E+00
   0.10100000E+01           0.58212653E+00
   0.10200000E+01           0.56666879E+00
   0.10300000E+01           0.55131777E+00
   0.10400000E+01           0.53614039E+00
   0.10500000E+01           0.52111395E+00
   0.10600000E+01           0.50619345E+00
   0.10700000E+01           0.49101071E+00
   0.10800000E+01           0.47661446E+00
   0.10900000E+01           0.46217253E+00
   0.11000000E+01           0.44803359E+00
   0.11100000E+01           0.43415876E+00
   0.11200000E+01           0.42063316E+00
   0.11300000E+01           0.40698656E+00
   0.11400000E+01           0.39379150E+00
   0.11500000E+01           0.38094770E+00
   0.11600000E+01           0.36806429E+00
   0.11700000E+01           0.35586037E+00
   0.11800000E+01           0.34355740E+00
   0.11900000E+01           0.33172517E+00
   0.12000000E+01           0.31986981E+00
   0.12100000E+01           0.30837347E+00
   0.12200000E+01           0.29687908E+00
   0.12300000E+01           0.28622355E+00
   0.12400000E+01           0.27556156E+00
   0.12500000E+01           0.26512151E+00
   0.12600000E+01           0.25504354E+00
   0.12700000E+01           0.24513886E+00
   0.12800000E+01           0.23544490E+00
   0.12900000E+01           0.22628886E+00
   0.13000000E+01           0.21699864E+00
   0.13100000E+01           0.20853733E+00
   0.13200000E+01           0.19990876E+00
   0.13300000E+01           0.19147177E+00
   0.13400000E+01           0.18340536E+00
   0.13500000E+01           0.17587636E+00
   0.13600000E+01           0.16816497E+00
   0.13700000E+01           0.16097168E+00
   0.13800000E+01           0.15382781E+00
   0.13900000E+01           0.14711429E+00
   0.14000000E+01           0.14057968E+00
   0.14100000E+01           0.13392942E+00
   0.14200000E+01           0.12776012E+00
   0.14300000E+01           0.12191403E+00
   0.14400000E+01           0.11621310E+00
   0.14500000E+01           0.11080009E+00
   0.14600000E+01           0.10538401E+00
   0.14700000E+01           0.10027440E+00
   0.14800000E+01           0.95392602E-01
   0.14900000E+01           0.90795748E-01
   0.15000000E+01           0.86243707E-01
   0.15100000E+01           0.81759269E-01
   0.15200000E+01           0.77559609E-01
   0.15300000E+01           0.73551361E-01
   0.15400000E+01           0.69720493E-01
   0.15500000E+01           0.66103231E-01
   0.15600000E+01           0.62589541E-01
   0.15700000E+01           0.59174490E-01
   0.15800000E+01           0.56015306E-01
   0.15900000E+01           0.52892007E-01
   0.16000000E+01           0.49955527E-01
   0.16100000E+01           0.47102636E-01
   0.16200000E+01           0.44447959E-01
   0.16300000E+01           0.41849150E-01
   0.16400000E+01           0.39476871E-01
   0.16500000E+01           0.37062245E-01
   0.16600000E+01           0.35088350E-01
   0.16700000E+01           0.32902976E-01
   0.16800000E+01           0.30953741E-01
   0.16900000E+01           0.29028061E-01
   0.17000000E+01           0.27237160E-01
   0.17100000E+01           0.25506548E-01
   0.17200000E+01           0.23903656E-01
   0.17300000E+01           0.22475680E-01
   0.17400000E+01           0.20931973E-01
   0.17500000E+01           0.19577381E-01
   0.17600000E+01           0.18277211E-01
   0.17700000E+01           0.17074235E-01
   0.17800000E+01           0.15929082E-01
   0.17900000E+01           0.14861395E-01
   0.18000000E+01           0.13826276E-01
   0.18100000E+01           0.12854252E-01
   0.18200000E+01           0.11931037E-01
   0.18300000E+01           0.11055612E-01
   0.18400000E+01           0.10348980E-01
   0.18500000E+01           0.95196429E-02
   0.18600000E+01           0.88120748E-02
   0.18700000E+01           0.81954932E-02
   0.18800000E+01           0.75296769E-02
   0.18900000E+01           0.69576531E-02
   0.19000000E+01           0.63947279E-02
   0.19100000E+01           0.58718537E-02
   0.19200000E+01           0.54189626E-02
   0.19300000E+01           0.49660714E-02
   0.19400000E+01           0.45936224E-02
   0.19500000E+01           0.41715136E-02
   0.19600000E+01           0.37983844E-02
   0.19700000E+01           0.34873299E-02
   0.19800000E+01           0.31620748E-02
   0.19900000E+01           0.28942177E-02
   0.20000000E+01           0.13409864E-02
 #T=   205.0000
  -0.20000000E+01           0.00000000E+00
  -0.19900000E+01           0.00000000E+00
  -0.19800000E+01           0.00000000E+00
  -0.19700000E+01           0.00000000E+00
  -0.19600000E+01           0.00000000E+00
  -0.19500000E+01           0.00000000E+00
  -0.19400000E+01           0.00000000E+00
  -0.19300000E+01           0.00000000E+00
  -0.19200000E+01           0.00000000E+00
  -0.19100000E+01           0.00000000E+00
  -0.19000000E+01           0.00000000E+00
  -0.18900000E+01           0.00000000E+00
  -0.18800000E+01           0.00000000E+00
  -0.18700000E+01           0.00000000E+00
  -0.18600000E+01           0.00000000E+00
  -0.18500000E+01           0.00000000E+00
  -0.18400000E+01           0.00000000E+00
  -0.18300000E+01           0.00000000E+00
  -0.18200000E+01           0.00000000E+00
  -0.18100000E+01           0.00000000E+00
  -0.18000000E+01           0.00000000E+00
  -0.17900000E+01           0.00000000E+00
  -0.17800000E+01           0.00000000E+00
  -0.17700000E+01           0.00000000E+00
  -0.17600000E+01           0.00000000E+00
  -0.17500000E+01           0.00000000E+00
  -0.17400000E+01           0.00000000E+00
  -0.17300000E+01           0.00000000E+00
  -0.17200000E+01           0.00000000E+00
  -0.17100000E+01           0.00000000E+00
  -0.17000000E+01           0.00000000E+00
  -0.16900000E+01           0.00000000E+00
  -0.16800000E+01           0.00000000E+00
  -0.16700000E+01           0.00000000E+00
  -0.16600000E+01           0.00000000E+00
  -0.16500000E+01           0.00000000E+00
  -0.16400000E+01           0.00000000E+00
  -0.16300000E+01           0.00000000E+00
  -0.16200000E+01           0.00000000E+00
  -0.16100000E+01           0.00000000E+00
  -0.16000000E+01           0.00000000E+00
  -0.15900000E+01           0.00000000E+00
  -0.15800000E+01           0.00000000E+00
  -0.15700000E+01           0.00000000E+00
  -0.15600000E+01           0.00000000E+00
  -0.15500000E+01           0.00000000E+00
  -0.15400000E+01           0.00000000E+00
  -0.15300000E+01           0.00000000E+00
  -0.15200000E+01           0.00000000E+00
  -0.15100000E+01           0.00000000E+00
  -0.15000000E+01           0.00000000E+00
  -0.14900000E+01           0.00000000E+00
  -0.14800000E+01           0.00000000E+00
  -0.14700000E+01           0.00000000E+00
  -0.14600000E+01           0.00000000E+00
  -0.14500000E+01           0.00000000E+00
  -0.14400000E+01           0.00000000E+00
  -0.14300000E+01           0.00000000E+00
  -0.14200000E+01           0.00000000E+00
  -0.14100000E+01           0.00000000E+00
  -0.14000000E+01           0.00000000E+00
  -0.13900000E+01           0.00000000E+00
  -0.13800000E+01           0.00000000E+00
  -0.13700000E+01           0.00000000E+00
  -0.13600000E+01           0.00000000E+00
  -0.13500000E+01           0.00000000E+00
  -0.13400000E+01           0.00000000E+00
  -0.13300000E+01           0.00000000E+00
  -0.13200000E+01           0.00000000E+00
  -0.13100000E+01           0.00000000E+00
  -0.13000000E+01           0.00000000E+00
  -0.12900000E+01           0.00000000E+00
  -0.12800000E+01           0.00000000E+00
  -0.12700000E+01           0.00000000E+00
  -0.12600000E+01           0.00000000E+00
  -0.12500000E+01           0.00000000E+00
  -0.12400000E+01           0.00000000E+00
  -0.12300000E+01           0.00000000E+00
  -0.12200000E+01           0.00000000E+00
  -0.12100000E+01           0.00000000E+00
  -0.12000000E+01           0.00000000E+00
  -0.11900000E+01           0.00000000E+00
  -0.11800000E+01           0.00000000E+00
  -0.11700000E+01           0.00000000E+00
  -0.11600000E+01           0.00000000E+00
  -0.11500000E+01           0.00000000E+00
  -0.11400000E+01           0.00000000E+00
  -0.11300000E+01           0.00000000E+00
  -0.11200000E+01           0.00000000E+00
  -0.11100000E+01           0.00000000E+00
  -0.11000000E+01           0.00000000E+00
  -0.10900000E+01           0.00000000E+00
  -0.10800000E+01           0.00000000E+00
  -0.10700000E+01           0.00000000E+00
  -0.10600000E+01           0.00000000E+00
  -0.10500000E+01           0.00000000E+00
  -0.10400000E+01           0.00000000E+00
  -0.10300000E+01           0.00000000E+00
  -0.10200000E+01           0.00000000E+00
  -0.10100000E+01           0.00000000E+00
  -0.10000000E+01           0.00000000E+00
  -0.99000000E+00           0.00000000E+00
  -0.98000000E+00           0.00000000E+00
  -0.97000000E+00           0.00000000E+00
  -0.96000000E+00           0.00000000E+00
  -0.95000000E+00           0.00000000E+00
  -0.94000000E+00           0.00000000E+00
  -0.93000000E+00           0.00000000E+00
  -0.92000000E+00           0.00000000E+00
  -0.91000000E+00           0.00000000E+00
  -0.90000000E+00           0.00000000E+00
  -0.89000000E+00           0.00000000E+00
  -0.88000000E+00           0.00000000E+00
  -0.87000000E+00           0.00000000E+00
  -0.86000000E+00           0.00000000E+00
  -0.85000000E+00           0.00000000E+00
  -0.84000000E+00           0.00000000E+00
  -0.83000000E+00           0.00000000E+00
  -0.82000000E+00           0.00000000E+00
  -0.81000000E+00           0.00000000E+00
  -0.80000000E+00           0.00000000E+00
  -0.79000000E+00           0.00000000E+00
  -0.78000000E+00           0.00000000E+00
  -0.77000000E+00           0.00000000E+00
  -0.76000000E+00           0.00000000E+00
  -0.75000000E+00           0.00000000E+00
  -0.74000000E+00           0.00000000E+00
  -0.73000000E+00           0.00000000E+00
  -0.72000000E+00           0.00000000E+00
  -0.71000000E+00           0.00000000E+00
  -0.70000000E+00           0.00000000E+00
  -0.69000000E+00           0.00000000E+00
  -0.68000000E+00           0.00000000E+00
  -0.67000000E+00           0.00000000E+00
  -0.66000000E+00           0.00000000E+00
  -0.65000000E+00           0.00000000E+00
  -0.64000000E+00           0.00000000E+00
  -0.63000000E+00           0.00000000E+00
  -0.62000000E+00           0.00000000E+00
  -0.61000000E+00           0.00000000E+00
  -0.60000000E+00           0.00000000E+00
  -0.59000000E+00           0.00000000E+00
  -0.58000000E+00           0.00000000E+00
  -0.57000000E+00           0.00000000E+00
  -0.56000000E+00           0.00000000E+00
  -0.55000000E+00           0.00000000E+00
  -0.54000000E+00           0.00000000E+00
  -0.53000000E+00           0.00000000E+00
  -0.52000000E+00           0.00000000E+00
  -0.51000000E+00           0.00000000E+00
  -0.50000000E+00           0.00000000E+00
  -0.49000000E+00           0.00000000E+00
  -0.48000000E+00           0.00000000E+00
  -0.47000000E+00           0.00000000E+00
  -0.46000000E+00           0.00000000E+00
  -0.45000000E+00           0.00000000E+00
  -0.44000000E+00           0.00000000E+00
  -0.43000000E+00           0.00000000E+00
  -0.42000000E+00           0.00000000E+00
  -0.41000000E+00           0.00000000E+00
  -0.40000000E+00           0.00000000E+00
  -0.39000000E+00           0.00000000E+00
  -0.38000000E+00           0.00000000E+00
  -0.37000000E+00           0.00000000E+00
  -0.36000000E+00           0.00000000E+00
  -0.35000000E+00           0.00000000E+00
  -0.34000000E+00           0.00000000E+00
  -0.33000000E+00           0.00000000E+00
  -0.32000000E+00           0.00000000E+00
  -0.31000000E+00           0.00000000E+00
  -0.30000000E+00           0.00000000E+00
  -0.29000000E+00           0.00000000E+00
  -0.28000000E+00           0.00000000E+00
  -0.27000000E+00           0.00000000E+00
  -0.26000000E+00           0.00000000E+00
  -0.25000000E+00           0.00000000E+00
  -0.24000000E+00           0.00000000E+00
  -0.23000000E+00           0.00000000E+00
  -0.22000000E+00           0.00000000E+00
  -0.21000000E+00           0.00000000E+00
  -0.20000000E+00           0.00000000E+00
  -0.19000000E+00           0.00000000E+00
  -0.18000000E+00           0.00000000E+00
  -0.17000000E+00           0.00000000E+00
  -0.16000000E+00           0.00000000E+00
  -0.15000000E+00           0.00000000E+00
  -0.14000000E+00           0.00000000E+00
  -0.13000000E+00           0.00000000E+00
  -0.12000000E+00           0.00000000E+00
  -0.11000000E+00           0.00000000E+00
  -0.10000000E+00           0.00000000E+00
  -0.90000000E-01           0.00000000E+00
  -0.80000000E-01           0.00000000E+00
  -0.70000000E-01           0.00000000E+00
  -0.60000000E-01           0.00000000E+00
  -0.50000000E-01           0.00000000E+00
  -0.40000000E-01           0.00000000E+00
  -0.30000000E-01           0.00000000E+00
  -0.20000000E-01           0.00000000E+00
  -0.10000000E-01           0.00000000E+00
   0.00000000E+00           0.44354592E-02
   0.10000000E-01           0.35823554E-01
   0.20000000E-01           0.71451020E-01
   0.30000000E-01           0.10757015E+00
   0.40000000E-01           0.14309660E+00
   0.50000000E-01           0.17845221E+00
   0.60000000E-01           0.21359328E+00
   0.70000000E-01           0.24862313E+00
   0.80000000E-01           0.28347372E+00
   0.90000000E-01           0.31785349E+00
   0.10000000E+00           0.35170706E+00
   0.11000000E+00           0.38583495E+00
   0.12000000E+00           0.41956173E+00
   0.13000000E+00           0.45240009E+00
   0.14000000E+00           0.48460391E+00
   0.15000000E+00           0.51626156E+00
   0.16000000E+00           0.54840383E+00
   0.17000000E+00           0.57920910E+00
   0.18000000E+00           0.60886871E+00
   0.19000000E+00           0.63877985E+00
   0.20000000E+00           0.66764439E+00
   0.21000000E+00           0.69547985E+00
   0.22000000E+00           0.72391327E+00
   0.23000000E+00           0.75077372E+00
   0.24000000E+00           0.77670323E+00
   0.25000000E+00           0.80195570E+00
   0.26000000E+00           0.82656369E+00
   0.27000000E+00           0.85103835E+00
   0.28000000E+00           0.87430612E+00
   0.29000000E+00           0.89606216E+00
   0.30000000E+00           0.91726667E+00
   0.31000000E+00           0.93739787E+00
   0.32000000E+00           0.95766352E+00
   0.33000000E+00           0.97528435E+00
   0.34000000E+00           0.99374694E+00
   0.35000000E+00           0.10099855E+01
   0.36000000E+00           0.10258060E+01
   0.37000000E+00           0.10418576E+01
   0.38000000E+00           0.10552405E+01
   0.39000000E+00           0.10694295E+01
   0.40000000E+00           0.10804762E+01
   0.41000000E+00           0.10927792E+01
   0.42000000E+00           0.11018722E+01
   0.43000000E+00           0.11120505E+01
   0.44000000E+00           0.11200226E+01
   0.45000000E+00           0.11272039E+01
   0.46000000E+00           0.11341259E+01
   0.47000000E+00           0.11404185E+01
   0.48000000E+00           0.11441862E+01
   0.49000000E+00           0.11493077E+01
[...]
   0.13800000E+01           0.42241454E+00
   0.13900000E+01           0.41374974E+00
   0.14000000E+01           0.40551224E+00
   0.14100000E+01           0.39751378E+00
   0.14200000E+01           0.38927662E+00
   0.14300000E+01           0.38142704E+00
   0.14400000E+01           0.37313112E+00
   0.14500000E+01           0.36539830E+00
   0.14600000E+01           0.35760740E+00
   0.14700000E+01           0.35019048E+00
   0.14800000E+01           0.34238138E+00
   0.14900000E+01           0.33465952E+00
   0.15000000E+01           0.32722874E+00
   0.15100000E+01           0.32009235E+00
   0.15200000E+01           0.31268741E+00
   0.15300000E+01           0.30565578E+00
   0.15400000E+01           0.29884694E+00
   0.15500000E+01           0.29181930E+00
   0.15600000E+01           0.28498104E+00
   0.15700000E+01           0.27790944E+00
   0.15800000E+01           0.27172432E+00
   0.15900000E+01           0.26483112E+00
   0.16000000E+01           0.25879439E+00
   0.16100000E+01           0.25199447E+00
   0.16200000E+01           0.24591378E+00
   0.16300000E+01           0.23967738E+00
   0.16400000E+01           0.23375884E+00
   0.16500000E+01           0.22786446E+00
   0.16600000E+01           0.22188861E+00
   0.16700000E+01           0.21648240E+00
   0.16800000E+01           0.21062713E+00
   0.16900000E+01           0.20522075E+00
   0.17000000E+01           0.19958631E+00
   0.17100000E+01           0.19438189E+00
   0.17200000E+01           0.18917823E+00
   0.17300000E+01           0.18394991E+00
   0.17400000E+01           0.17881122E+00
   0.17500000E+01           0.17419668E+00
   0.17600000E+01           0.16915893E+00
   0.17700000E+01           0.16453495E+00
   0.17800000E+01           0.15989915E+00
   0.17900000E+01           0.15530876E+00
   0.18000000E+01           0.15098367E+00
   0.18100000E+01           0.14677041E+00
   0.18200000E+01           0.14247687E+00
   0.18300000E+01           0.13826743E+00
   0.18400000E+01           0.13423112E+00
   0.18500000E+01           0.13021599E+00
   0.18600000E+01           0.12652432E+00
   0.18700000E+01           0.12250068E+00
   0.18800000E+01           0.11892840E+00
   0.18900000E+01           0.11544711E+00
   0.19000000E+01           0.11202092E+00
   0.19100000E+01           0.10834651E+00
   0.19200000E+01           0.10502925E+00
   0.19300000E+01           0.10188427E+00
   0.19400000E+01           0.98574830E-01
   0.19500000E+01           0.95753997E-01
   0.19600000E+01           0.92526361E-01
   0.19700000E+01           0.89545153E-01
   0.19800000E+01           0.86871173E-01
   0.19900000E+01           0.83852041E-01
   0.20000000E+01           0.40949915E-01
 #T=   300.0000
  -0.20000000E+01           0.00000000E+00
  -0.19900000E+01           0.00000000E+00
  -0.19800000E+01           0.00000000E+00
  -0.19700000E+01           0.00000000E+00
  -0.19600000E+01           0.00000000E+00
  -0.19500000E+01           0.00000000E+00
  -0.19400000E+01           0.00000000E+00
  -0.19300000E+01           0.00000000E+00
  -0.19200000E+01           0.00000000E+00
  -0.19100000E+01           0.00000000E+00
  -0.19000000E+01           0.00000000E+00
  -0.18900000E+01           0.00000000E+00
  -0.18800000E+01           0.00000000E+00
  -0.18700000E+01           0.00000000E+00
  -0.18600000E+01           0.00000000E+00
  -0.18500000E+01           0.00000000E+00
  -0.18400000E+01           0.00000000E+00
  -0.18300000E+01           0.00000000E+00
  -0.18200000E+01           0.00000000E+00
  -0.18100000E+01           0.00000000E+00
  -0.18000000E+01           0.00000000E+00
  -0.17900000E+01           0.00000000E+00
  -0.17800000E+01           0.00000000E+00
  -0.17700000E+01           0.00000000E+00
  -0.17600000E+01           0.00000000E+00
  -0.17500000E+01           0.00000000E+00
  -0.17400000E+01           0.00000000E+00
  -0.17300000E+01           0.00000000E+00
  -0.17200000E+01           0.00000000E+00
  -0.17100000E+01           0.00000000E+00
  -0.17000000E+01           0.00000000E+00
  -0.16900000E+01           0.00000000E+00
  -0.16800000E+01           0.00000000E+00
  -0.16700000E+01           0.00000000E+00
  -0.16600000E+01           0.00000000E+00
  -0.16500000E+01           0.00000000E+00
  -0.16400000E+01           0.00000000E+00
  -0.16300000E+01           0.00000000E+00
  -0.16200000E+01           0.00000000E+00
  -0.16100000E+01           0.00000000E+00
  -0.16000000E+01           0.00000000E+00
  -0.15900000E+01           0.00000000E+00
  -0.15800000E+01           0.00000000E+00
  -0.15700000E+01           0.00000000E+00
  -0.15600000E+01           0.00000000E+00
  -0.15500000E+01           0.00000000E+00
  -0.15400000E+01           0.00000000E+00
  -0.15300000E+01           0.00000000E+00
  -0.15200000E+01           0.00000000E+00
  -0.15100000E+01           0.00000000E+00
  -0.15000000E+01           0.00000000E+00
  -0.14900000E+01           0.00000000E+00
  -0.14800000E+01           0.00000000E+00
  -0.14700000E+01           0.00000000E+00
  -0.14600000E+01           0.00000000E+00
  -0.14500000E+01           0.00000000E+00
  -0.14400000E+01           0.00000000E+00
  -0.14300000E+01           0.00000000E+00
  -0.14200000E+01           0.00000000E+00
  -0.14100000E+01           0.00000000E+00
  -0.14000000E+01           0.00000000E+00
  -0.13900000E+01           0.00000000E+00
  -0.13800000E+01           0.00000000E+00
  -0.13700000E+01           0.00000000E+00
  -0.13600000E+01           0.00000000E+00
  -0.13500000E+01           0.00000000E+00
  -0.13400000E+01           0.00000000E+00
  -0.13300000E+01           0.00000000E+00
  -0.13200000E+01           0.00000000E+00
  -0.13100000E+01           0.00000000E+00
  -0.13000000E+01           0.00000000E+00
  -0.12900000E+01           0.00000000E+00
  -0.12800000E+01           0.00000000E+00
  -0.12700000E+01           0.00000000E+00
  -0.12600000E+01           0.00000000E+00
  -0.12500000E+01           0.00000000E+00
  -0.12400000E+01           0.00000000E+00
  -0.12300000E+01           0.00000000E+00
  -0.12200000E+01           0.00000000E+00
  -0.12100000E+01           0.00000000E+00
  -0.12000000E+01           0.00000000E+00
  -0.11900000E+01           0.00000000E+00
  -0.11800000E+01           0.00000000E+00
  -0.11700000E+01           0.00000000E+00
  -0.11600000E+01           0.00000000E+00
  -0.11500000E+01           0.00000000E+00
  -0.11400000E+01           0.00000000E+00
  -0.11300000E+01           0.00000000E+00
  -0.11200000E+01           0.00000000E+00
  -0.11100000E+01           0.00000000E+00
  -0.11000000E+01           0.00000000E+00
  -0.10900000E+01           0.00000000E+00
  -0.10800000E+01           0.00000000E+00
  -0.10700000E+01           0.00000000E+00
  -0.10600000E+01           0.00000000E+00
  -0.10500000E+01           0.00000000E+00
  -0.10400000E+01           0.00000000E+00
  -0.10300000E+01           0.00000000E+00
  -0.10200000E+01           0.00000000E+00
  -0.10100000E+01           0.00000000E+00
  -0.10000000E+01           0.00000000E+00
  -0.99000000E+00           0.00000000E+00
  -0.98000000E+00           0.00000000E+00
  -0.97000000E+00           0.00000000E+00
  -0.96000000E+00           0.00000000E+00
  -0.95000000E+00           0.00000000E+00
  -0.94000000E+00           0.00000000E+00
  -0.93000000E+00           0.00000000E+00
  -0.92000000E+00           0.00000000E+00
  -0.91000000E+00           0.00000000E+00
  -0.90000000E+00           0.00000000E+00
  -0.89000000E+00           0.00000000E+00
  -0.88000000E+00           0.00000000E+00
  -0.87000000E+00           0.00000000E+00
  -0.86000000E+00           0.00000000E+00
  -0.85000000E+00           0.00000000E+00
  -0.84000000E+00           0.00000000E+00
  -0.83000000E+00           0.00000000E+00
  -0.82000000E+00           0.00000000E+00
  -0.81000000E+00           0.00000000E+00
  -0.80000000E+00           0.00000000E+00
  -0.79000000E+00           0.00000000E+00
  -0.78000000E+00           0.00000000E+00
  -0.77000000E+00           0.00000000E+00
  -0.76000000E+00           0.00000000E+00
  -0.75000000E+00           0.00000000E+00
  -0.74000000E+00           0.00000000E+00
  -0.73000000E+00           0.00000000E+00
  -0.72000000E+00           0.00000000E+00
  -0.71000000E+00           0.00000000E+00
  -0.70000000E+00           0.00000000E+00
  -0.69000000E+00           0.00000000E+00
  -0.68000000E+00           0.00000000E+00
  -0.67000000E+00           0.00000000E+00
  -0.66000000E+00           0.00000000E+00
  -0.65000000E+00           0.00000000E+00
  -0.64000000E+00           0.00000000E+00
  -0.63000000E+00           0.00000000E+00
  -0.62000000E+00           0.00000000E+00
  -0.61000000E+00           0.00000000E+00
  -0.60000000E+00           0.00000000E+00
  -0.59000000E+00           0.00000000E+00
  -0.58000000E+00           0.00000000E+00
  -0.57000000E+00           0.00000000E+00
  -0.56000000E+00           0.00000000E+00
  -0.55000000E+00           0.00000000E+00
  -0.54000000E+00           0.00000000E+00
  -0.53000000E+00           0.00000000E+00
  -0.52000000E+00           0.00000000E+00
  -0.51000000E+00           0.00000000E+00
  -0.50000000E+00           0.00000000E+00
  -0.49000000E+00           0.00000000E+00
  -0.48000000E+00           0.00000000E+00
  -0.47000000E+00           0.00000000E+00
  -0.46000000E+00           0.00000000E+00
  -0.45000000E+00           0.00000000E+00
  -0.44000000E+00           0.00000000E+00
  -0.43000000E+00           0.00000000E+00
  -0.42000000E+00           0.00000000E+00
  -0.41000000E+00           0.00000000E+00
  -0.40000000E+00           0.00000000E+00
  -0.39000000E+00           0.00000000E+00
  -0.38000000E+00           0.00000000E+00
  -0.37000000E+00           0.00000000E+00
  -0.36000000E+00           0.00000000E+00
  -0.35000000E+00           0.00000000E+00
  -0.34000000E+00           0.00000000E+00
  -0.33000000E+00           0.00000000E+00
  -0.32000000E+00           0.00000000E+00
  -0.31000000E+00           0.00000000E+00
  -0.30000000E+00           0.00000000E+00
  -0.29000000E+00           0.00000000E+00
  -0.28000000E+00           0.00000000E+00
  -0.27000000E+00           0.00000000E+00
  -0.26000000E+00           0.00000000E+00
  -0.25000000E+00           0.00000000E+00
  -0.24000000E+00           0.00000000E+00
  -0.23000000E+00           0.00000000E+00
  -0.22000000E+00           0.00000000E+00
  -0.21000000E+00           0.00000000E+00
  -0.20000000E+00           0.00000000E+00
  -0.19000000E+00           0.00000000E+00
  -0.18000000E+00           0.00000000E+00
  -0.17000000E+00           0.00000000E+00
  -0.16000000E+00           0.00000000E+00
  -0.15000000E+00           0.00000000E+00
  -0.14000000E+00           0.00000000E+00
  -0.13000000E+00           0.00000000E+00
  -0.12000000E+00           0.00000000E+00
  -0.11000000E+00           0.00000000E+00
  -0.10000000E+00           0.00000000E+00
  -0.90000000E-01           0.00000000E+00
  -0.80000000E-01           0.00000000E+00
  -0.70000000E-01           0.00000000E+00
  -0.60000000E-01           0.00000000E+00
  -0.50000000E-01           0.00000000E+00
  -0.40000000E-01           0.00000000E+00
  -0.30000000E-01           0.00000000E+00
  -0.20000000E-01           0.00000000E+00
  -0.10000000E-01           0.00000000E+00
   0.00000000E+00           0.25364796E-02
   0.10000000E-01           0.20176701E-01
   0.20000000E-01           0.40308844E-01
   0.30000000E-01           0.60648980E-01
   0.40000000E-01           0.80649830E-01
   0.50000000E-01           0.10063121E+00
   0.60000000E-01           0.12068274E+00
   0.70000000E-01           0.14061548E+00
   0.80000000E-01           0.16027262E+00
   0.90000000E-01           0.18021182E+00
   0.10000000E+00           0.19987211E+00
   0.11000000E+00           0.21942347E+00
   0.12000000E+00           0.23910230E+00
   0.13000000E+00           0.25806029E+00
   0.14000000E+00           0.27701488E+00
   0.15000000E+00           0.29585374E+00
   0.16000000E+00           0.31504065E+00
   0.17000000E+00           0.33338546E+00
   0.18000000E+00           0.35181352E+00
   0.19000000E+00           0.37019804E+00
   0.20000000E+00           0.38752491E+00
   0.21000000E+00           0.40571548E+00
   0.22000000E+00           0.42302874E+00
   0.23000000E+00           0.44013486E+00
   0.24000000E+00           0.45738622E+00
   0.25000000E+00           0.47384983E+00
   0.26000000E+00           0.49047134E+00
   0.27000000E+00           0.50670349E+00
   0.28000000E+00           0.52241701E+00
   0.29000000E+00           0.53823384E+00
   0.30000000E+00           0.55320476E+00
   0.31000000E+00           0.56861352E+00
   0.32000000E+00           0.58318010E+00
   0.33000000E+00           0.59724490E+00
   0.34000000E+00           0.61122092E+00
   0.35000000E+00           0.62541973E+00
   0.36000000E+00           0.63845646E+00
   0.37000000E+00           0.65125791E+00
   0.38000000E+00           0.66372993E+00
   0.39000000E+00           0.67535867E+00
   0.40000000E+00           0.68835765E+00
   0.41000000E+00           0.69940876E+00
   0.42000000E+00           0.71110884E+00
   0.43000000E+00           0.72092160E+00
   0.44000000E+00           0.73144864E+00
   0.45000000E+00           0.74191794E+00
   0.46000000E+00           0.75148937E+00
   0.47000000E+00           0.76060561E+00
   0.48000000E+00           0.76974881E+00
   0.49000000E+00           0.77751964E+00
   0.50000000E+00           0.78610646E+00
   0.51000000E+00           0.79349252E+00
   0.52000000E+00           0.80094379E+00
   0.53000000E+00           0.80819388E+00
   0.54000000E+00           0.81399430E+00
   0.55000000E+00           0.82048418E+00
   0.56000000E+00           0.82587134E+00
   0.57000000E+00           0.83103010E+00
   0.58000000E+00           0.83620315E+00
   0.59000000E+00           0.84134371E+00
   0.60000000E+00           0.84520961E+00
   0.61000000E+00           0.84858070E+00
   0.62000000E+00           0.85248393E+00
   0.63000000E+00           0.85499337E+00
   0.64000000E+00           0.85790774E+00
   0.65000000E+00           0.86002526E+00
   0.66000000E+00           0.86222662E+00
   0.67000000E+00           0.86390995E+00
   0.68000000E+00           0.86465298E+00
   0.69000000E+00           0.86611922E+00
   0.70000000E+00           0.86606862E+00
   0.71000000E+00           0.86620306E+00
   0.72000000E+00           0.86698393E+00
   0.73000000E+00           0.86562687E+00
   0.74000000E+00           0.86484464E+00
   0.75000000E+00           0.86326488E+00
   0.76000000E+00           0.86176063E+00
   0.77000000E+00           0.85985417E+00
   0.78000000E+00           0.85756956E+00
   0.79000000E+00           0.85559439E+00
   0.80000000E+00           0.85270765E+00
   0.81000000E+00           0.84925170E+00
   0.82000000E+00           0.84682900E+00
   0.83000000E+00           0.84235400E+00
   0.84000000E+00           0.83895808E+00
   0.85000000E+00           0.83462789E+00
   0.86000000E+00           0.83077015E+00
   0.87000000E+00           0.82614549E+00
   0.88000000E+00           0.82059405E+00
   0.89000000E+00           0.81548835E+00
   0.90000000E+00           0.81044269E+00
   0.91000000E+00           0.80561293E+00
   0.92000000E+00           0.79919277E+00
   0.93000000E+00           0.79392287E+00
   0.94000000E+00           0.78707951E+00
   0.95000000E+00           0.78074354E+00
   0.96000000E+00           0.77405221E+00
   0.97000000E+00           0.76737287E+00
   0.98000000E+00           0.76057568E+00
   0.99000000E+00           0.75350587E+00
   0.10000000E+01           0.74595519E+00
   0.10100000E+01           0.73879201E+00
   0.10200000E+01           0.73140119E+00
   0.10300000E+01           0.72387075E+00
   0.10400000E+01           0.71566012E+00
   0.10500000E+01           0.70817679E+00
   0.10600000E+01           0.70043963E+00
   0.10700000E+01           0.69183350E+00
   0.10800000E+01           0.68438359E+00
   0.10900000E+01           0.67539362E+00
   0.11000000E+01           0.66732338E+00
   0.11100000E+01           0.65868750E+00
   0.11200000E+01           0.64989830E+00
   0.11300000E+01           0.64147687E+00
   0.11400000E+01           0.63340340E+00
   0.11500000E+01           0.62469932E+00
   0.11600000E+01           0.61541250E+00
   0.11700000E+01           0.60647645E+00
   0.11800000E+01           0.59785765E+00
   0.11900000E+01           0.58939940E+00
   0.12000000E+01           0.58063282E+00
   0.12100000E+01           0.57221752E+00
   0.12200000E+01           0.56253044E+00
   0.12300000E+01           0.55448265E+00
   0.12400000E+01           0.54518776E+00
   0.12500000E+01           0.53583291E+00
   0.12600000E+01           0.52732015E+00
   0.12700000E+01           0.51859218E+00
   0.12800000E+01           0.51031224E+00
   0.12900000E+01           0.50111998E+00
   0.13000000E+01           0.49224439E+00
   0.13100000E+01           0.48359906E+00
   0.13200000E+01           0.47451565E+00
   0.13300000E+01           0.46615757E+00
   0.13400000E+01           0.45747194E+00
   0.13500000E+01           0.44907509E+00
   0.13600000E+01           0.44071012E+00
   0.13700000E+01           0.43215918E+00
   0.13800000E+01           0.42425935E+00
   0.13900000E+01           0.41548571E+00
   0.14000000E+01           0.40725765E+00
   0.14100000E+01           0.39910077E+00
   0.14200000E+01           0.39128061E+00
   0.14300000E+01           0.38319413E+00
   0.14400000E+01           0.37493197E+00
   0.14500000E+01           0.36734252E+00
   0.14600000E+01           0.35973912E+00
   0.14700000E+01           0.35194192E+00
   0.14800000E+01           0.34410748E+00
   0.14900000E+01           0.33699906E+00
   0.15000000E+01           0.32954660E+00
   0.15100000E+01           0.32188767E+00
   0.15200000E+01           0.31473359E+00
   0.15300000E+01           0.30753248E+00
   0.15400000E+01           0.30087109E+00
   0.15500000E+01           0.29366947E+00
   0.15600000E+01           0.28686207E+00
   0.15700000E+01           0.28006930E+00
   0.15800000E+01           0.27320663E+00
   0.15900000E+01           0.26696429E+00
   0.16000000E+01           0.26029150E+00
   0.16100000E+01           0.25393988E+00
   0.16200000E+01           0.24766820E+00
   0.16300000E+01           0.24160697E+00
   0.16400000E+01           0.23533299E+00
   0.16500000E+01           0.22943920E+00
   0.16600000E+01           0.22334541E+00
   0.16700000E+01           0.21788393E+00
   0.16800000E+01           0.21229974E+00
   0.16900000E+01           0.20664991E+00
   0.17000000E+01           0.20132466E+00
   0.17100000E+01           0.19585969E+00
   0.17200000E+01           0.19076122E+00
   0.17300000E+01           0.18565357E+00
   0.17400000E+01           0.18043282E+00
   0.17500000E+01           0.17554643E+00
   0.17600000E+01           0.17057500E+00
   0.17700000E+01           0.16616327E+00
   0.17800000E+01           0.16139133E+00
   0.17900000E+01           0.15691369E+00
   0.18000000E+01           0.15249796E+00
   0.18100000E+01           0.14796684E+00
   0.18200000E+01           0.14398342E+00
   0.18300000E+01           0.13978827E+00
   0.18400000E+01           0.13569592E+00
   0.18500000E+01           0.13157398E+00
   0.18600000E+01           0.12768554E+00
   0.18700000E+01           0.12408257E+00
   0.18800000E+01           0.12022415E+00
   0.18900000E+01           0.11654388E+00
   0.19000000E+01           0.11308759E+00
   0.19100000E+01           0.10958673E+00
   0.19200000E+01           0.10640153E+00
   0.19300000E+01           0.10302900E+00
   0.19400000E+01           0.99944133E-01
   0.19500000E+01           0.96601956E-01
   0.19600000E+01           0.93697024E-01
   0.19700000E+01           0.90761139E-01
   0.19800000E+01           0.87664456E-01
   0.19900000E+01           0.85025935E-01
   0.20000000E+01           0.41442772E-01
