 #written on  6Dec2024 at 17:07:29 
 #----------------- MONTECARLO -------------------#
 #        M                      P(M)             #
 #------------------------------------------------#
 #T=    46.0000
  -0.20000000E+01           0.00000000E+00
  -0.19900000E+01           0.00000000E+00
  -0.19800000E+01           0.00000000E+00
  -0.19700000E+01           0.00000000E+00
  -0.19600000E+01           0.00000000E+00
  -0.19500000E+01           0.00000000E+00
  -0.19400000E+01           0.00000000E+00
  -0.19300000E+01           0.00000000E+00
  -0.19200000E+01           0.00000000E+00
  -0.19100000E+01           0.00000000E+00
  -0.19000000E+01           0.00000000E+00
  -0.18900000E+01           0.00000000E+00
  -0.18800000E+01           0.00000000E+00
  -0.18700000E+01           0.00000000E+00
  -0.18600000E+01           0.00000000E+00
  -0.18500000E+01           0.00000000E+00
  -0.18400000E+01           0.00000000E+00
  -0.18300000E+01           0.00000000E+00
  -0.18200000E+01           0.00000000E+00
  -0.18100000E+01           0.00000000E+00
  -0.18000000E+01           0.00000000E+00
  -0.17900000E+01           0.00000000E+00
  -0.17800000E+01           0.00000000E+00
  -0.17700000E+01           0.00000000E+00
  -0.17600000E+01           0.00000000E+00
  -0.17500000E+01           0.00000000E+00
  -0.17400000E+01           0.00000000E+00
  -0.17300000E+01           0.00000000E+00
  -0.17200000E+01           0.00000000E+00
  -0.17100000E+01           0.00000000E+00
  -0.17000000E+01           0.00000000E+00
  -0.16900000E+01           0.00000000E+00
  -0.16800000E+01           0.00000000E+00
  -0.16700000E+01           0.00000000E+00
  -0.16600000E+01           0.00000000E+00
  -0.16500000E+01           0.00000000E+00
  -0.16400000E+01           0.00000000E+00
  -0.16300000E+01           0.00000000E+00
  -0.16200000E+01           0.00000000E+00
  -0.16100000E+01           0.00000000E+00
  -0.16000000E+01           0.00000000E+00
  -0.15900000E+01           0.00000000E+00
  -0.15800000E+01           0.00000000E+00
  -0.15700000E+01           0.00000000E+00
  -0.15600000E+01           0.00000000E+00
  -0.15500000E+01           0.00000000E+00
  -0.15400000E+01           0.00000000E+00
  -0.15300000E+01           0.00000000E+00
  -0.15200000E+01           0.00000000E+00
  -0.15100000E+01           0.00000000E+00
  -0.15000000E+01           0.00000000E+00
  -0.14900000E+01           0.00000000E+00
  -0.14800000E+01           0.00000000E+00
  -0.14700000E+01           0.00000000E+00
  -0.14600000E+01           0.00000000E+00
  -0.14500000E+01           0.00000000E+00
  -0.14400000E+01           0.00000000E+00
  -0.14300000E+01           0.00000000E+00
  -0.14200000E+01           0.00000000E+00
  -0.14100000E+01           0.00000000E+00
  -0.14000000E+01           0.00000000E+00
  -0.13900000E+01           0.00000000E+00
  -0.13800000E+01           0.00000000E+00
  -0.13700000E+01           0.00000000E+00
  -0.13600000E+01           0.00000000E+00
  -0.13500000E+01           0.00000000E+00
  -0.13400000E+01           0.00000000E+00
  -0.13300000E+01           0.00000000E+00
  -0.13200000E+01           0.00000000E+00
  -0.13100000E+01           0.00000000E+00
  -0.13000000E+01           0.00000000E+00
  -0.12900000E+01           0.00000000E+00
  -0.12800000E+01           0.00000000E+00
  -0.12700000E+01           0.00000000E+00
  -0.12600000E+01           0.00000000E+00
  -0.12500000E+01           0.00000000E+00
  -0.12400000E+01           0.00000000E+00
  -0.12300000E+01           0.00000000E+00
  -0.12200000E+01           0.00000000E+00
  -0.12100000E+01           0.00000000E+00
  -0.12000000E+01           0.00000000E+00
  -0.11900000E+01           0.00000000E+00
  -0.11800000E+01           0.00000000E+00
  -0.11700000E+01           0.00000000E+00
  -0.11600000E+01           0.00000000E+00
  -0.11500000E+01           0.00000000E+00
  -0.11400000E+01           0.00000000E+00
  -0.11300000E+01           0.00000000E+00
  -0.11200000E+01           0.00000000E+00
  -0.11100000E+01           0.00000000E+00
  -0.11000000E+01           0.00000000E+00
  -0.10900000E+01           0.00000000E+00
  -0.10800000E+01           0.00000000E+00
  -0.10700000E+01           0.00000000E+00
  -0.10600000E+01           0.00000000E+00
  -0.10500000E+01           0.00000000E+00
  -0.10400000E+01           0.00000000E+00
  -0.10300000E+01           0.00000000E+00
  -0.10200000E+01           0.00000000E+00
  -0.10100000E+01           0.00000000E+00
  -0.10000000E+01           0.00000000E+00
  -0.99000000E+00           0.00000000E+00
  -0.98000000E+00           0.00000000E+00
  -0.97000000E+00           0.00000000E+00
  -0.96000000E+00           0.00000000E+00
  -0.95000000E+00           0.00000000E+00
  -0.94000000E+00           0.00000000E+00
  -0.93000000E+00           0.00000000E+00
  -0.92000000E+00           0.00000000E+00
  -0.91000000E+00           0.00000000E+00
  -0.90000000E+00           0.00000000E+00
  -0.89000000E+00           0.00000000E+00
  -0.88000000E+00           0.00000000E+00
  -0.87000000E+00           0.00000000E+00
  -0.86000000E+00           0.00000000E+00
  -0.85000000E+00           0.00000000E+00
  -0.84000000E+00           0.00000000E+00
  -0.83000000E+00           0.00000000E+00
  -0.82000000E+00           0.00000000E+00
  -0.81000000E+00           0.00000000E+00
  -0.80000000E+00           0.00000000E+00
  -0.79000000E+00           0.00000000E+00
  -0.78000000E+00           0.00000000E+00
  -0.77000000E+00           0.00000000E+00
  -0.76000000E+00           0.00000000E+00
  -0.75000000E+00           0.00000000E+00
  -0.74000000E+00           0.00000000E+00
  -0.73000000E+00           0.00000000E+00
  -0.72000000E+00           0.00000000E+00
  -0.71000000E+00           0.00000000E+00
  -0.70000000E+00           0.00000000E+00
  -0.69000000E+00           0.00000000E+00
  -0.68000000E+00           0.00000000E+00
  -0.67000000E+00           0.00000000E+00
  -0.66000000E+00           0.00000000E+00
  -0.65000000E+00           0.00000000E+00
  -0.64000000E+00           0.00000000E+00
  -0.63000000E+00           0.00000000E+00
  -0.62000000E+00           0.00000000E+00
  -0.61000000E+00           0.00000000E+00
  -0.60000000E+00           0.00000000E+00
  -0.59000000E+00           0.00000000E+00
  -0.58000000E+00           0.00000000E+00
  -0.57000000E+00           0.00000000E+00
  -0.56000000E+00           0.00000000E+00
  -0.55000000E+00           0.00000000E+00
  -0.54000000E+00           0.00000000E+00
  -0.53000000E+00           0.00000000E+00
  -0.52000000E+00           0.00000000E+00
  -0.51000000E+00           0.00000000E+00
  -0.50000000E+00           0.00000000E+00
  -0.49000000E+00           0.00000000E+00
  -0.48000000E+00           0.00000000E+00
  -0.47000000E+00           0.00000000E+00
  -0.46000000E+00           0.00000000E+00
  -0.45000000E+00           0.00000000E+00
  -0.44000000E+00           0.00000000E+00
  -0.43000000E+00           0.00000000E+00
  -0.42000000E+00           0.00000000E+00
  -0.41000000E+00           0.00000000E+00
  -0.40000000E+00           0.00000000E+00
  -0.39000000E+00           0.00000000E+00
  -0.38000000E+00           0.00000000E+00
  -0.37000000E+00           0.00000000E+00
  -0.36000000E+00           0.00000000E+00
  -0.35000000E+00           0.00000000E+00
  -0.34000000E+00           0.00000000E+00
  -0.33000000E+00           0.00000000E+00
  -0.32000000E+00           0.00000000E+00
  -0.31000000E+00           0.00000000E+00
  -0.30000000E+00           0.00000000E+00
  -0.29000000E+00           0.00000000E+00
  -0.28000000E+00           0.00000000E+00
  -0.27000000E+00           0.00000000E+00
  -0.26000000E+00           0.00000000E+00
  -0.25000000E+00           0.00000000E+00
  -0.24000000E+00           0.00000000E+00
  -0.23000000E+00           0.00000000E+00
  -0.22000000E+00           0.00000000E+00
  -0.21000000E+00           0.00000000E+00
  -0.20000000E+00           0.00000000E+00
  -0.19000000E+00           0.00000000E+00
  -0.18000000E+00           0.00000000E+00
  -0.17000000E+00           0.00000000E+00
  -0.16000000E+00           0.00000000E+00
  -0.15000000E+00           0.00000000E+00
  -0.14000000E+00           0.00000000E+00
  -0.13000000E+00           0.00000000E+00
  -0.12000000E+00           0.00000000E+00
  -0.11000000E+00           0.00000000E+00
  -0.10000000E+00           0.00000000E+00
  -0.90000000E-01           0.00000000E+00
  -0.80000000E-01           0.00000000E+00
  -0.70000000E-01           0.00000000E+00
  -0.60000000E-01           0.00000000E+00
  -0.50000000E-01           0.00000000E+00
  -0.40000000E-01           0.00000000E+00
  -0.30000000E-01           0.00000000E+00
  -0.20000000E-01           0.00000000E+00
  -0.10000000E-01           0.00000000E+00
   0.00000000E+00           0.30488000E-02
   0.10000000E-01           0.24676100E-01
   0.20000000E-01           0.49409400E-01
   0.30000000E-01           0.73811500E-01
   0.40000000E-01           0.98394500E-01
   0.50000000E-01           0.12270170E+00
   0.60000000E-01           0.14688440E+00
   0.70000000E-01           0.17046280E+00
   0.80000000E-01           0.19507060E+00
   0.90000000E-01           0.21770010E+00
   0.10000000E+00           0.24107530E+00
   0.11000000E+00           0.26415450E+00
   0.12000000E+00           0.28634500E+00
   0.13000000E+00           0.30821120E+00
   0.14000000E+00           0.32996680E+00
   0.15000000E+00           0.35103720E+00
   0.16000000E+00           0.37236350E+00
   0.17000000E+00           0.39179660E+00
   0.18000000E+00           0.41127960E+00
   0.19000000E+00           0.43077700E+00
   0.20000000E+00           0.44921310E+00
   0.21000000E+00           0.46692470E+00
   0.22000000E+00           0.48460880E+00
   0.23000000E+00           0.50095480E+00
   0.24000000E+00           0.51658130E+00
   0.25000000E+00           0.53170490E+00
   0.26000000E+00           0.54586070E+00
   0.27000000E+00           0.56024200E+00
   0.28000000E+00           0.57420570E+00
   0.29000000E+00           0.58554230E+00
   0.30000000E+00           0.59728850E+00
   0.31000000E+00           0.60823050E+00
   0.32000000E+00           0.61910900E+00
   0.33000000E+00           0.62794480E+00
   0.34000000E+00           0.63736380E+00
   0.35000000E+00           0.64483630E+00
   0.36000000E+00           0.65244990E+00
   0.37000000E+00           0.65773130E+00
   0.38000000E+00           0.66369600E+00
   0.39000000E+00           0.66829980E+00
   0.40000000E+00           0.67333810E+00
   0.41000000E+00           0.67624480E+00
   0.42000000E+00           0.67867960E+00
   0.43000000E+00           0.68186560E+00
   0.44000000E+00           0.68237840E+00
   0.45000000E+00           0.68390740E+00
   0.46000000E+00           0.68336790E+00
   0.47000000E+00           0.68254290E+00
   0.48000000E+00           0.68137080E+00
   0.49000000E+00           0.68059640E+00
   0.50000000E+00           0.67640450E+00
   0.51000000E+00           0.67382630E+00
   0.52000000E+00           0.67030960E+00
   0.53000000E+00           0.66551190E+00
   0.54000000E+00           0.66146690E+00
   0.55000000E+00           0.65597080E+00
   0.56000000E+00           0.64990400E+00
   0.57000000E+00           0.64340030E+00
   0.58000000E+00           0.63649830E+00
   0.59000000E+00           0.63013380E+00
   0.60000000E+00           0.62245330E+00
   0.61000000E+00           0.61343590E+00
   0.62000000E+00           0.60513690E+00
   0.63000000E+00           0.59649950E+00
   0.64000000E+00           0.58746540E+00
   0.65000000E+00           0.57806500E+00
   0.66000000E+00           0.56927810E+00
   0.67000000E+00           0.55849350E+00
   0.68000000E+00           0.54811790E+00
   0.69000000E+00           0.53815380E+00
   0.70000000E+00           0.52774450E+00
   0.71000000E+00           0.51710470E+00
   0.72000000E+00           0.50574380E+00
   0.73000000E+00           0.49545130E+00
   0.74000000E+00           0.48382900E+00
   0.75000000E+00           0.47256910E+00
   0.76000000E+00           0.46205320E+00
   0.77000000E+00           0.45043610E+00
   0.78000000E+00           0.43852740E+00
   0.79000000E+00           0.42684480E+00
   0.80000000E+00           0.41670990E+00
   0.81000000E+00           0.40553890E+00
   0.82000000E+00           0.39359980E+00
   0.83000000E+00           0.38230570E+00
   0.84000000E+00           0.37127830E+00
   0.85000000E+00           0.35965280E+00
   0.86000000E+00           0.34913380E+00
   0.87000000E+00           0.33848980E+00
   0.88000000E+00           0.32706720E+00
   0.89000000E+00           0.31645580E+00
   0.90000000E+00           0.30571620E+00
   0.91000000E+00           0.29630300E+00
   0.92000000E+00           0.28584120E+00
   0.93000000E+00           0.27541110E+00
   0.94000000E+00           0.26558430E+00
   0.95000000E+00           0.25573470E+00
   0.96000000E+00           0.24679270E+00
   0.97000000E+00           0.23684960E+00
   0.98000000E+00           0.22830030E+00
   0.99000000E+00           0.21944830E+00
   0.10000000E+01           0.21069650E+00
   0.10100000E+01           0.20218820E+00
   0.10200000E+01           0.19358970E+00
   0.10300000E+01           0.18577260E+00
   0.10400000E+01           0.17814290E+00
   0.10500000E+01           0.17070100E+00
   0.10600000E+01           0.16324460E+00
   0.10700000E+01           0.15606320E+00
   0.10800000E+01           0.14944340E+00
   0.10900000E+01           0.14250820E+00
   0.11000000E+01           0.13618120E+00
   0.11100000E+01           0.12983070E+00
   0.11200000E+01           0.12381550E+00
   0.11300000E+01           0.11830490E+00
   0.11400000E+01           0.11250660E+00
   0.11500000E+01           0.10703290E+00
   0.11600000E+01           0.10212170E+00
   0.11700000E+01           0.97436500E-01
   0.11800000E+01           0.92544600E-01
   0.11900000E+01           0.88197100E-01
   0.12000000E+01           0.83645000E-01
   0.12100000E+01           0.79682700E-01
   0.12200000E+01           0.75864600E-01
   0.12300000E+01           0.72243000E-01
   0.12400000E+01           0.68595200E-01
   0.12500000E+01           0.65397300E-01
   0.12600000E+01           0.62526000E-01
   0.12700000E+01           0.59571600E-01
   0.12800000E+01           0.56944300E-01
   0.12900000E+01           0.54610200E-01
   0.13000000E+01           0.52503900E-01
   0.13100000E+01           0.50179700E-01
   0.13200000E+01           0.48313600E-01
   0.13300000E+01           0.46710300E-01
   0.13400000E+01           0.45356600E-01
   0.13500000E+01           0.44055800E-01
   0.13600000E+01           0.43004600E-01
   0.13700000E+01           0.42090200E-01
   0.13800000E+01           0.41579900E-01
   0.13900000E+01           0.41133100E-01
   0.14000000E+01           0.40900600E-01
   0.14100000E+01           0.41107900E-01
   0.14200000E+01           0.41346300E-01
   0.14300000E+01           0.41845000E-01
   0.14400000E+01           0.42484800E-01
   0.14500000E+01           0.43637900E-01
   0.14600000E+01           0.44849000E-01
   0.14700000E+01           0.46650100E-01
   0.14800000E+01           0.48784200E-01
   0.14900000E+01           0.51254300E-01
   0.15000000E+01           0.53859900E-01
   0.15100000E+01           0.56857900E-01
   0.15200000E+01           0.60599800E-01
   0.15300000E+01           0.64392900E-01
   0.15400000E+01           0.69226300E-01
   0.15500000E+01           0.74551500E-01
   0.15600000E+01           0.80015400E-01
   0.15700000E+01           0.86377600E-01
   0.15800000E+01           0.93617400E-01
   0.15900000E+01           0.10150800E+00
   0.16000000E+01           0.11031510E+00
   0.16100000E+01           0.11965810E+00
   0.16200000E+01           0.13047510E+00
   0.16300000E+01           0.14206320E+00
   0.16400000E+01           0.15520190E+00
   0.16500000E+01           0.16960590E+00
   0.16600000E+01           0.18573320E+00
   0.16700000E+01           0.20250620E+00
   0.16800000E+01           0.22246760E+00
   0.16900000E+01           0.24335240E+00
   0.17000000E+01           0.26730570E+00
   0.17100000E+01           0.29255250E+00
   0.17200000E+01           0.32091420E+00
   0.17300000E+01           0.35277680E+00
   0.17400000E+01           0.38727960E+00
   0.17500000E+01           0.42574680E+00
   0.17600000E+01           0.46703960E+00
   0.17700000E+01           0.51336660E+00
   0.17800000E+01           0.56436750E+00
   0.17900000E+01           0.62135550E+00
   0.18000000E+01           0.68366090E+00
   0.18100000E+01           0.75165200E+00
   0.18200000E+01           0.82801060E+00
   0.18300000E+01           0.91238410E+00
   0.18400000E+01           0.10039152E+01
   0.18500000E+01           0.11060490E+01
   0.18600000E+01           0.12192090E+01
   0.18700000E+01           0.13442560E+01
   0.18800000E+01           0.14816439E+01
   0.18900000E+01           0.16328690E+01
   0.19000000E+01           0.18021720E+01
   0.19100000E+01           0.19880907E+01
   0.19200000E+01           0.21937251E+01
   0.19300000E+01           0.24206046E+01
   0.19400000E+01           0.26729685E+01
   0.19500000E+01           0.29514401E+01
   0.19600000E+01           0.32610632E+01
   0.19700000E+01           0.36010726E+01
   0.19800000E+01           0.39799828E+01
   0.19900000E+01           0.43989564E+01
   0.20000000E+01           0.23707047E+01
 #T=    47.0000
  -0.20000000E+01           0.00000000E+00
  -0.19900000E+01           0.00000000E+00
  -0.19800000E+01           0.00000000E+00
  -0.19700000E+01           0.00000000E+00
  -0.19600000E+01           0.00000000E+00
  -0.19500000E+01           0.00000000E+00
  -0.19400000E+01           0.00000000E+00
  -0.19300000E+01           0.00000000E+00
  -0.19200000E+01           0.00000000E+00
  -0.19100000E+01           0.00000000E+00
  -0.19000000E+01           0.00000000E+00
  -0.18900000E+01           0.00000000E+00
  -0.18800000E+01           0.00000000E+00
  -0.18700000E+01           0.00000000E+00
  -0.18600000E+01           0.00000000E+00
  -0.18500000E+01           0.00000000E+00
  -0.18400000E+01           0.00000000E+00
  -0.18300000E+01           0.00000000E+00
  -0.18200000E+01           0.00000000E+00
  -0.18100000E+01           0.00000000E+00
  -0.18000000E+01           0.00000000E+00
  -0.17900000E+01           0.00000000E+00
  -0.17800000E+01           0.00000000E+00
  -0.17700000E+01           0.00000000E+00
  -0.17600000E+01           0.00000000E+00
  -0.17500000E+01           0.00000000E+00
  -0.17400000E+01           0.00000000E+00
  -0.17300000E+01           0.00000000E+00
  -0.17200000E+01           0.00000000E+00
  -0.17100000E+01           0.00000000E+00
  -0.17000000E+01           0.00000000E+00
  -0.16900000E+01           0.00000000E+00
  -0.16800000E+01           0.00000000E+00
  -0.16700000E+01           0.00000000E+00
  -0.16600000E+01           0.00000000E+00
  -0.16500000E+01           0.00000000E+00
  -0.16400000E+01           0.00000000E+00
  -0.16300000E+01           0.00000000E+00
  -0.16200000E+01           0.00000000E+00
  -0.16100000E+01           0.00000000E+00
  -0.16000000E+01           0.00000000E+00
  -0.15900000E+01           0.00000000E+00
  -0.15800000E+01           0.00000000E+00
  -0.15700000E+01           0.00000000E+00
  -0.15600000E+01           0.00000000E+00
  -0.15500000E+01           0.00000000E+00
  -0.15400000E+01           0.00000000E+00
  -0.15300000E+01           0.00000000E+00
  -0.15200000E+01           0.00000000E+00
  -0.15100000E+01           0.00000000E+00
  -0.15000000E+01           0.00000000E+00
  -0.14900000E+01           0.00000000E+00
  -0.14800000E+01           0.00000000E+00
  -0.14700000E+01           0.00000000E+00
  -0.14600000E+01           0.00000000E+00
  -0.14500000E+01           0.00000000E+00
  -0.14400000E+01           0.00000000E+00
  -0.14300000E+01           0.00000000E+00
  -0.14200000E+01           0.00000000E+00
  -0.14100000E+01           0.00000000E+00
  -0.14000000E+01           0.00000000E+00
  -0.13900000E+01           0.00000000E+00
  -0.13800000E+01           0.00000000E+00
  -0.13700000E+01           0.00000000E+00
  -0.13600000E+01           0.00000000E+00
  -0.13500000E+01           0.00000000E+00
  -0.13400000E+01           0.00000000E+00
  -0.13300000E+01           0.00000000E+00
  -0.13200000E+01           0.00000000E+00
  -0.13100000E+01           0.00000000E+00
  -0.13000000E+01           0.00000000E+00
  -0.12900000E+01           0.00000000E+00
  -0.12800000E+01           0.00000000E+00
  -0.12700000E+01           0.00000000E+00
  -0.12600000E+01           0.00000000E+00
  -0.12500000E+01           0.00000000E+00
  -0.12400000E+01           0.00000000E+00
  -0.12300000E+01           0.00000000E+00
  -0.12200000E+01           0.00000000E+00
  -0.12100000E+01           0.00000000E+00
  -0.12000000E+01           0.00000000E+00
  -0.11900000E+01           0.00000000E+00
  -0.11800000E+01           0.00000000E+00
  -0.11700000E+01           0.00000000E+00
  -0.11600000E+01           0.00000000E+00
  -0.11500000E+01           0.00000000E+00
  -0.11400000E+01           0.00000000E+00
  -0.11300000E+01           0.00000000E+00
  -0.11200000E+01           0.00000000E+00
  -0.11100000E+01           0.00000000E+00
  -0.11000000E+01           0.00000000E+00
  -0.10900000E+01           0.00000000E+00
  -0.10800000E+01           0.00000000E+00
  -0.10700000E+01           0.00000000E+00
  -0.10600000E+01           0.00000000E+00
  -0.10500000E+01           0.00000000E+00
  -0.10400000E+01           0.00000000E+00
  -0.10300000E+01           0.00000000E+00
  -0.10200000E+01           0.00000000E+00
  -0.10100000E+01           0.00000000E+00
  -0.10000000E+01           0.00000000E+00
  -0.99000000E+00           0.00000000E+00
  -0.98000000E+00           0.00000000E+00
  -0.97000000E+00           0.00000000E+00
  -0.96000000E+00           0.00000000E+00
  -0.95000000E+00           0.00000000E+00
  -0.94000000E+00           0.00000000E+00
  -0.93000000E+00           0.00000000E+00
  -0.92000000E+00           0.00000000E+00
  -0.91000000E+00           0.00000000E+00
  -0.90000000E+00           0.00000000E+00
  -0.89000000E+00           0.00000000E+00
  -0.88000000E+00           0.00000000E+00
  -0.87000000E+00           0.00000000E+00
  -0.86000000E+00           0.00000000E+00
  -0.85000000E+00           0.00000000E+00
  -0.84000000E+00           0.00000000E+00
  -0.83000000E+00           0.00000000E+00
  -0.82000000E+00           0.00000000E+00
  -0.81000000E+00           0.00000000E+00
  -0.80000000E+00           0.00000000E+00
  -0.79000000E+00           0.00000000E+00
  -0.78000000E+00           0.00000000E+00
  -0.77000000E+00           0.00000000E+00
  -0.76000000E+00           0.00000000E+00
  -0.75000000E+00           0.00000000E+00
  -0.74000000E+00           0.00000000E+00
  -0.73000000E+00           0.00000000E+00
  -0.72000000E+00           0.00000000E+00
  -0.71000000E+00           0.00000000E+00
  -0.70000000E+00           0.00000000E+00
  -0.69000000E+00           0.00000000E+00
  -0.68000000E+00           0.00000000E+00
  -0.67000000E+00           0.00000000E+00
  -0.66000000E+00           0.00000000E+00
  -0.65000000E+00           0.00000000E+00
  -0.64000000E+00           0.00000000E+00
  -0.63000000E+00           0.00000000E+00
  -0.62000000E+00           0.00000000E+00
  -0.61000000E+00           0.00000000E+00
  -0.60000000E+00           0.00000000E+00
  -0.59000000E+00           0.00000000E+00
  -0.58000000E+00           0.00000000E+00
  -0.57000000E+00           0.00000000E+00
  -0.56000000E+00           0.00000000E+00
  -0.55000000E+00           0.00000000E+00
  -0.54000000E+00           0.00000000E+00
  -0.53000000E+00           0.00000000E+00
  -0.52000000E+00           0.00000000E+00
  -0.51000000E+00           0.00000000E+00
  -0.50000000E+00           0.00000000E+00
  -0.49000000E+00           0.00000000E+00
  -0.48000000E+00           0.00000000E+00
  -0.47000000E+00           0.00000000E+00
  -0.46000000E+00           0.00000000E+00
  -0.45000000E+00           0.00000000E+00
  -0.44000000E+00           0.00000000E+00
  -0.43000000E+00           0.00000000E+00
  -0.42000000E+00           0.00000000E+00
  -0.41000000E+00           0.00000000E+00
  -0.40000000E+00           0.00000000E+00
  -0.39000000E+00           0.00000000E+00
  -0.38000000E+00           0.00000000E+00
  -0.37000000E+00           0.00000000E+00
  -0.36000000E+00           0.00000000E+00
  -0.35000000E+00           0.00000000E+00
  -0.34000000E+00           0.00000000E+00
  -0.33000000E+00           0.00000000E+00
  -0.32000000E+00           0.00000000E+00
  -0.31000000E+00           0.00000000E+00
  -0.30000000E+00           0.00000000E+00
  -0.29000000E+00           0.00000000E+00
  -0.28000000E+00           0.00000000E+00
  -0.27000000E+00           0.00000000E+00
  -0.26000000E+00           0.00000000E+00
  -0.25000000E+00           0.00000000E+00
  -0.24000000E+00           0.00000000E+00
  -0.23000000E+00           0.00000000E+00
  -0.22000000E+00           0.00000000E+00
  -0.21000000E+00           0.00000000E+00
  -0.20000000E+00           0.00000000E+00
  -0.19000000E+00           0.00000000E+00
  -0.18000000E+00           0.00000000E+00
  -0.17000000E+00           0.00000000E+00
  -0.16000000E+00           0.00000000E+00
  -0.15000000E+00           0.00000000E+00
  -0.14000000E+00           0.00000000E+00
  -0.13000000E+00           0.00000000E+00
  -0.12000000E+00           0.00000000E+00
  -0.11000000E+00           0.00000000E+00
  -0.10000000E+00           0.00000000E+00
  -0.90000000E-01           0.00000000E+00
  -0.80000000E-01           0.00000000E+00
  -0.70000000E-01           0.00000000E+00
  -0.60000000E-01           0.00000000E+00
  -0.50000000E-01           0.00000000E+00
  -0.40000000E-01           0.00000000E+00
  -0.30000000E-01           0.00000000E+00
  -0.20000000E-01           0.00000000E+00
  -0.10000000E-01           0.00000000E+00
   0.00000000E+00           0.30078000E-02
   0.10000000E-01           0.24032000E-01
   0.20000000E-01           0.47978900E-01
   0.30000000E-01           0.71909100E-01
   0.40000000E-01           0.95821400E-01
   0.50000000E-01           0.11960810E+00
   0.60000000E-01           0.14285960E+00
   0.70000000E-01           0.16646990E+00
   0.80000000E-01           0.18974510E+00
   0.90000000E-01           0.21226280E+00
   0.10000000E+00           0.23544090E+00
   0.11000000E+00           0.25688680E+00
   0.12000000E+00           0.27887040E+00
   0.13000000E+00           0.30035420E+00
   0.14000000E+00           0.32142500E+00
   0.15000000E+00           0.34238680E+00
   0.16000000E+00           0.36292800E+00
   0.17000000E+00           0.38183670E+00
   0.18000000E+00           0.40175090E+00
   0.19000000E+00           0.42027570E+00
   0.20000000E+00           0.43776430E+00
   0.21000000E+00           0.45561890E+00
   0.22000000E+00           0.47282340E+00
   0.23000000E+00           0.48945330E+00
   0.24000000E+00           0.50437740E+00
   0.25000000E+00           0.51962260E+00
   0.26000000E+00           0.53397810E+00
   0.27000000E+00           0.54809940E+00
   0.28000000E+00           0.56062910E+00
   0.29000000E+00           0.57310750E+00
   0.30000000E+00           0.58460230E+00
   0.31000000E+00           0.59516480E+00
   0.32000000E+00           0.60649020E+00
   0.33000000E+00           0.61550060E+00
   0.34000000E+00           0.62402480E+00
   0.35000000E+00           0.63256560E+00
   0.36000000E+00           0.63998340E+00
   0.37000000E+00           0.64567000E+00
   0.38000000E+00           0.65233160E+00
   0.39000000E+00           0.65769270E+00
   0.40000000E+00           0.66235290E+00
   0.41000000E+00           0.66591620E+00
   0.42000000E+00           0.66853270E+00
   0.43000000E+00           0.67113080E+00
   0.44000000E+00           0.67202100E+00
   0.45000000E+00           0.67331340E+00
   0.46000000E+00           0.67451980E+00
   0.47000000E+00           0.67376680E+00
   0.48000000E+00           0.67310630E+00
   0.49000000E+00           0.67171380E+00
   0.50000000E+00           0.66875410E+00
   0.51000000E+00           0.66694330E+00
   0.52000000E+00           0.66351590E+00
   0.53000000E+00           0.65984920E+00
   0.54000000E+00           0.65568520E+00
   0.55000000E+00           0.65022940E+00
   0.56000000E+00           0.64521680E+00
   0.57000000E+00           0.63810540E+00
   0.58000000E+00           0.63284760E+00
   0.59000000E+00           0.62605390E+00
   0.60000000E+00           0.61865190E+00
   0.61000000E+00           0.61124600E+00
   0.62000000E+00           0.60323860E+00
   0.63000000E+00           0.59533580E+00
   0.64000000E+00           0.58659990E+00
   0.65000000E+00           0.57741120E+00
   0.66000000E+00           0.56914570E+00
   0.67000000E+00           0.55884920E+00
   0.68000000E+00           0.54920250E+00
   0.69000000E+00           0.53994950E+00
   0.70000000E+00           0.52952200E+00
   0.71000000E+00           0.51911380E+00
   0.72000000E+00           0.50898430E+00
   0.73000000E+00           0.49788150E+00
   0.74000000E+00           0.48774860E+00
   0.75000000E+00           0.47588890E+00
   0.76000000E+00           0.46583560E+00
   0.77000000E+00           0.45552180E+00
   0.78000000E+00           0.44402090E+00
   0.79000000E+00           0.43191410E+00
   0.80000000E+00           0.42167570E+00
   0.81000000E+00           0.41069540E+00
   0.82000000E+00           0.39991710E+00
   0.83000000E+00           0.38846130E+00
   0.84000000E+00           0.37788290E+00
   0.85000000E+00           0.36663280E+00
   0.86000000E+00           0.35608570E+00
   0.87000000E+00           0.34537660E+00
   0.88000000E+00           0.33524120E+00
   0.89000000E+00           0.32414420E+00
   0.90000000E+00           0.31357430E+00
   0.91000000E+00           0.30382380E+00
   0.92000000E+00           0.29365690E+00
   0.93000000E+00           0.28358290E+00
   0.94000000E+00           0.27391580E+00
   0.95000000E+00           0.26418010E+00
   0.96000000E+00           0.25476090E+00
   0.97000000E+00           0.24547070E+00
   0.98000000E+00           0.23635520E+00
   0.99000000E+00           0.22767970E+00
   0.10000000E+01           0.21856410E+00
   0.10100000E+01           0.21043990E+00
   0.10200000E+01           0.20198900E+00
   0.10300000E+01           0.19423700E+00
   0.10400000E+01           0.18621010E+00
   0.10500000E+01           0.17859510E+00
   0.10600000E+01           0.17118070E+00
   0.10700000E+01           0.16377520E+00
   0.10800000E+01           0.15673440E+00
   0.10900000E+01           0.15019860E+00
   0.11000000E+01           0.14338390E+00
   0.11100000E+01           0.13703010E+00
   0.11200000E+01           0.13108330E+00
   0.11300000E+01           0.12532360E+00
   0.11400000E+01           0.11941460E+00
   0.11500000E+01           0.11414540E+00
   0.11600000E+01           0.10862140E+00
   0.11700000E+01           0.10384710E+00
   0.11800000E+01           0.98957100E-01
   0.11900000E+01           0.94400000E-01
   0.12000000E+01           0.90035900E-01
   0.12100000E+01           0.85863800E-01
   0.12200000E+01           0.82054300E-01
   0.12300000E+01           0.78085100E-01
   0.12400000E+01           0.74547400E-01
   0.12500000E+01           0.71173400E-01
   0.12600000E+01           0.68006100E-01
   0.12700000E+01           0.65032400E-01
   0.12800000E+01           0.62252900E-01
   0.12900000E+01           0.59873500E-01
   0.13000000E+01           0.57482700E-01
   0.13100000E+01           0.55331800E-01
   0.13200000E+01           0.53373900E-01
   0.13300000E+01           0.51682700E-01
   0.13400000E+01           0.50154700E-01
   0.13500000E+01           0.48983300E-01
   0.13600000E+01           0.47820100E-01
   0.13700000E+01           0.46933200E-01
   0.13800000E+01           0.46279500E-01
   0.13900000E+01           0.45866400E-01
   0.14000000E+01           0.45447900E-01
   0.14100000E+01           0.45780100E-01
   0.14200000E+01           0.46022200E-01
   0.14300000E+01           0.46743300E-01
   0.14400000E+01           0.47529100E-01
   0.14500000E+01           0.48804000E-01
   0.14600000E+01           0.50115700E-01
   0.14700000E+01           0.51786400E-01
   0.14800000E+01           0.54116700E-01
   0.14900000E+01           0.56569400E-01
   0.15000000E+01           0.59420700E-01
   0.15100000E+01           0.62951100E-01
   0.15200000E+01           0.66746300E-01
   0.15300000E+01           0.70930300E-01
   0.15400000E+01           0.75920500E-01
   0.15500000E+01           0.80962700E-01
   0.15600000E+01           0.87170300E-01
   0.15700000E+01           0.93832100E-01
   0.15800000E+01           0.10137570E+00
   0.15900000E+01           0.10951590E+00
   0.16000000E+01           0.11848750E+00
   0.16100000E+01           0.12870760E+00
   0.16200000E+01           0.13983790E+00
   0.16300000E+01           0.15220330E+00
   0.16400000E+01           0.16556870E+00
   0.16500000E+01           0.18019290E+00
   0.16600000E+01           0.19633550E+00
   0.16700000E+01           0.21436080E+00
   0.16800000E+01           0.23471320E+00
   0.16900000E+01           0.25602580E+00
   0.17000000E+01           0.28041400E+00
   0.17100000E+01           0.30681240E+00
   0.17200000E+01           0.33545480E+00
   0.17300000E+01           0.36691730E+00
   0.17400000E+01           0.40240530E+00
   0.17500000E+01           0.44105080E+00
   0.17600000E+01           0.48344060E+00
   0.17700000E+01           0.52968070E+00
   0.17800000E+01           0.58163500E+00
   0.17900000E+01           0.63851540E+00
   0.18000000E+01           0.69970140E+00
   0.18100000E+01           0.76857980E+00
   0.18200000E+01           0.84432840E+00
   0.18300000E+01           0.92815660E+00
   0.18400000E+01           0.10180779E+01
   0.18500000E+01           0.11203022E+01
   0.18600000E+01           0.12314073E+01
   0.18700000E+01           0.13530730E+01
   0.18800000E+01           0.14891728E+01
   0.18900000E+01           0.16372018E+01
   0.19000000E+01           0.18028067E+01
   0.19100000E+01           0.19828017E+01
   0.19200000E+01           0.21834670E+01
   0.19300000E+01           0.24047249E+01
   0.19400000E+01           0.26468388E+01
   0.19500000E+01           0.29170635E+01
   0.19600000E+01           0.32132706E+01
   0.19700000E+01           0.35415792E+01
   0.19800000E+01           0.39054985E+01
   0.19900000E+01           0.43052979E+01
   0.20000000E+01           0.23150868E+01
 #T=    48.0000
  -0.20000000E+01           0.00000000E+00
  -0.19900000E+01           0.00000000E+00
  -0.19800000E+01           0.00000000E+00
  -0.19700000E+01           0.00000000E+00
  -0.19600000E+01           0.00000000E+00
  -0.19500000E+01           0.00000000E+00
  -0.19400000E+01           0.00000000E+00
  -0.19300000E+01           0.00000000E+00
  -0.19200000E+01           0.00000000E+00
  -0.19100000E+01           0.00000000E+00
  -0.19000000E+01           0.00000000E+00
  -0.18900000E+01           0.00000000E+00
  -0.18800000E+01           0.00000000E+00
  -0.18700000E+01           0.00000000E+00
  -0.18600000E+01           0.00000000E+00
  -0.18500000E+01           0.00000000E+00
  -0.18400000E+01           0.00000000E+00
  -0.18300000E+01           0.00000000E+00
  -0.18200000E+01           0.00000000E+00
  -0.18100000E+01           0.00000000E+00
  -0.18000000E+01           0.00000000E+00
  -0.17900000E+01           0.00000000E+00
  -0.17800000E+01           0.00000000E+00
  -0.17700000E+01           0.00000000E+00
  -0.17600000E+01           0.00000000E+00
  -0.17500000E+01           0.00000000E+00
  -0.17400000E+01           0.00000000E+00
  -0.17300000E+01           0.00000000E+00
  -0.17200000E+01           0.00000000E+00
  -0.17100000E+01           0.00000000E+00
  -0.17000000E+01           0.00000000E+00
  -0.16900000E+01           0.00000000E+00
  -0.16800000E+01           0.00000000E+00
  -0.16700000E+01           0.00000000E+00
  -0.16600000E+01           0.00000000E+00
  -0.16500000E+01           0.00000000E+00
  -0.16400000E+01           0.00000000E+00
  -0.16300000E+01           0.00000000E+00
  -0.16200000E+01           0.00000000E+00
  -0.16100000E+01           0.00000000E+00
  -0.16000000E+01           0.00000000E+00
  -0.15900000E+01           0.00000000E+00
  -0.15800000E+01           0.00000000E+00
  -0.15700000E+01           0.00000000E+00
  -0.15600000E+01           0.00000000E+00
  -0.15500000E+01           0.00000000E+00
  -0.15400000E+01           0.00000000E+00
  -0.15300000E+01           0.00000000E+00
  -0.15200000E+01           0.00000000E+00
  -0.15100000E+01           0.00000000E+00
  -0.15000000E+01           0.00000000E+00
  -0.14900000E+01           0.00000000E+00
  -0.14800000E+01           0.00000000E+00
  -0.14700000E+01           0.00000000E+00
  -0.14600000E+01           0.00000000E+00
  -0.14500000E+01           0.00000000E+00
  -0.14400000E+01           0.00000000E+00
  -0.14300000E+01           0.00000000E+00
  -0.14200000E+01           0.00000000E+00
  -0.14100000E+01           0.00000000E+00
  -0.14000000E+01           0.00000000E+00
  -0.13900000E+01           0.00000000E+00
  -0.13800000E+01           0.00000000E+00
  -0.13700000E+01           0.00000000E+00
  -0.13600000E+01           0.00000000E+00
  -0.13500000E+01           0.00000000E+00
  -0.13400000E+01           0.00000000E+00
  -0.13300000E+01           0.00000000E+00
  -0.13200000E+01           0.00000000E+00
  -0.13100000E+01           0.00000000E+00
  -0.13000000E+01           0.00000000E+00
  -0.12900000E+01           0.00000000E+00
  -0.12800000E+01           0.00000000E+00
  -0.12700000E+01           0.00000000E+00
  -0.12600000E+01           0.00000000E+00
  -0.12500000E+01           0.00000000E+00
  -0.12400000E+01           0.00000000E+00
  -0.12300000E+01           0.00000000E+00
  -0.12200000E+01           0.00000000E+00
  -0.12100000E+01           0.00000000E+00
  -0.12000000E+01           0.00000000E+00
  -0.11900000E+01           0.00000000E+00
  -0.11800000E+01           0.00000000E+00
  -0.11700000E+01           0.00000000E+00
  -0.11600000E+01           0.00000000E+00
  -0.11500000E+01           0.00000000E+00
  -0.11400000E+01           0.00000000E+00
  -0.11300000E+01           0.00000000E+00
  -0.11200000E+01           0.00000000E+00
  -0.11100000E+01           0.00000000E+00
  -0.11000000E+01           0.00000000E+00
  -0.10900000E+01           0.00000000E+00
  -0.10800000E+01           0.00000000E+00
  -0.10700000E+01           0.00000000E+00
  -0.10600000E+01           0.00000000E+00
  -0.10500000E+01           0.00000000E+00
  -0.10400000E+01           0.00000000E+00
  -0.10300000E+01           0.00000000E+00
  -0.10200000E+01           0.00000000E+00
  -0.10100000E+01           0.00000000E+00
  -0.10000000E+01           0.00000000E+00
  -0.99000000E+00           0.00000000E+00
  -0.98000000E+00           0.00000000E+00
  -0.97000000E+00           0.00000000E+00
  -0.96000000E+00           0.00000000E+00
  -0.95000000E+00           0.00000000E+00
  -0.94000000E+00           0.00000000E+00
  -0.93000000E+00           0.00000000E+00
  -0.92000000E+00           0.00000000E+00
  -0.91000000E+00           0.00000000E+00
  -0.90000000E+00           0.00000000E+00
  -0.89000000E+00           0.00000000E+00
  -0.88000000E+00           0.00000000E+00
  -0.87000000E+00           0.00000000E+00
  -0.86000000E+00           0.00000000E+00
  -0.85000000E+00           0.00000000E+00
  -0.84000000E+00           0.00000000E+00
  -0.83000000E+00           0.00000000E+00
  -0.82000000E+00           0.00000000E+00
  -0.81000000E+00           0.00000000E+00
  -0.80000000E+00           0.00000000E+00
  -0.79000000E+00           0.00000000E+00
  -0.78000000E+00           0.00000000E+00
  -0.77000000E+00           0.00000000E+00
  -0.76000000E+00           0.00000000E+00
  -0.75000000E+00           0.00000000E+00
  -0.74000000E+00           0.00000000E+00
  -0.73000000E+00           0.00000000E+00
  -0.72000000E+00           0.00000000E+00
  -0.71000000E+00           0.00000000E+00
  -0.70000000E+00           0.00000000E+00
  -0.69000000E+00           0.00000000E+00
  -0.68000000E+00           0.00000000E+00
  -0.67000000E+00           0.00000000E+00
  -0.66000000E+00           0.00000000E+00
  -0.65000000E+00           0.00000000E+00
  -0.64000000E+00           0.00000000E+00
  -0.63000000E+00           0.00000000E+00
  -0.62000000E+00           0.00000000E+00
  -0.61000000E+00           0.00000000E+00
  -0.60000000E+00           0.00000000E+00
  -0.59000000E+00           0.00000000E+00
  -0.58000000E+00           0.00000000E+00
  -0.57000000E+00           0.00000000E+00
  -0.56000000E+00           0.00000000E+00
  -0.55000000E+00           0.00000000E+00
  -0.54000000E+00           0.00000000E+00
  -0.53000000E+00           0.00000000E+00
  -0.52000000E+00           0.00000000E+00
  -0.51000000E+00           0.00000000E+00
  -0.50000000E+00           0.00000000E+00
  -0.49000000E+00           0.00000000E+00
  -0.48000000E+00           0.00000000E+00
  -0.47000000E+00           0.00000000E+00
  -0.46000000E+00           0.00000000E+00
  -0.45000000E+00           0.00000000E+00
  -0.44000000E+00           0.00000000E+00
  -0.43000000E+00           0.00000000E+00
  -0.42000000E+00           0.00000000E+00
  -0.41000000E+00           0.00000000E+00
  -0.40000000E+00           0.00000000E+00
  -0.39000000E+00           0.00000000E+00
  -0.38000000E+00           0.00000000E+00
  -0.37000000E+00           0.00000000E+00
  -0.36000000E+00           0.00000000E+00
  -0.35000000E+00           0.00000000E+00
  -0.34000000E+00           0.00000000E+00
  -0.33000000E+00           0.00000000E+00
  -0.32000000E+00           0.00000000E+00
  -0.31000000E+00           0.00000000E+00
  -0.30000000E+00           0.00000000E+00
  -0.29000000E+00           0.00000000E+00
  -0.28000000E+00           0.00000000E+00
  -0.27000000E+00           0.00000000E+00
  -0.26000000E+00           0.00000000E+00
  -0.25000000E+00           0.00000000E+00
  -0.24000000E+00           0.00000000E+00
  -0.23000000E+00           0.00000000E+00
  -0.22000000E+00           0.00000000E+00
  -0.21000000E+00           0.00000000E+00
  -0.20000000E+00           0.00000000E+00
  -0.19000000E+00           0.00000000E+00
  -0.18000000E+00           0.00000000E+00
  -0.17000000E+00           0.00000000E+00
  -0.16000000E+00           0.00000000E+00
  -0.15000000E+00           0.00000000E+00
  -0.14000000E+00           0.00000000E+00
  -0.13000000E+00           0.00000000E+00
  -0.12000000E+00           0.00000000E+00
  -0.11000000E+00           0.00000000E+00
  -0.10000000E+00           0.00000000E+00
  -0.90000000E-01           0.00000000E+00
  -0.80000000E-01           0.00000000E+00
  -0.70000000E-01           0.00000000E+00
  -0.60000000E-01           0.00000000E+00
  -0.50000000E-01           0.00000000E+00
  -0.40000000E-01           0.00000000E+00
  -0.30000000E-01           0.00000000E+00
  -0.20000000E-01           0.00000000E+00
  -0.10000000E-01           0.00000000E+00
   0.00000000E+00           0.29268000E-02
   0.10000000E-01           0.23640500E-01
   0.20000000E-01           0.46720800E-01
   0.30000000E-01           0.70224000E-01
   0.40000000E-01           0.93860100E-01
   0.50000000E-01           0.11668450E+00
   0.60000000E-01           0.13968210E+00
   0.70000000E-01           0.16251490E+00
   0.80000000E-01           0.18519950E+00
   0.90000000E-01           0.20735610E+00
   0.10000000E+00           0.22971210E+00
   0.11000000E+00           0.25136750E+00
   0.12000000E+00           0.27248950E+00
   0.13000000E+00           0.29427130E+00
   0.14000000E+00           0.31409730E+00
   0.15000000E+00           0.33472360E+00
   0.16000000E+00           0.35491570E+00
   0.17000000E+00           0.37399170E+00
   0.18000000E+00           0.39275240E+00
   0.19000000E+00           0.41024710E+00
   0.20000000E+00           0.42902790E+00
   0.21000000E+00           0.44606810E+00
   0.22000000E+00           0.46239880E+00
   0.23000000E+00           0.47923870E+00
   0.24000000E+00           0.49490780E+00
   0.25000000E+00           0.50992610E+00
   0.26000000E+00           0.52334210E+00
   0.27000000E+00           0.53660370E+00
   0.28000000E+00           0.55005460E+00
   0.29000000E+00           0.56222380E+00
   0.30000000E+00           0.57462180E+00
   0.31000000E+00           0.58458790E+00
   0.32000000E+00           0.59414050E+00
   0.33000000E+00           0.60516550E+00
   0.34000000E+00           0.61310290E+00
   0.35000000E+00           0.62111050E+00
   0.36000000E+00           0.62942300E+00
   0.37000000E+00           0.63622340E+00
   0.38000000E+00           0.64193380E+00
   0.39000000E+00           0.64793970E+00
   0.40000000E+00           0.65254270E+00
   0.41000000E+00           0.65707640E+00
   0.42000000E+00           0.66005390E+00
   0.43000000E+00           0.66198040E+00
   0.44000000E+00           0.66422080E+00
   0.45000000E+00           0.66598290E+00
   0.46000000E+00           0.66618590E+00
   0.47000000E+00           0.66685840E+00
   0.48000000E+00           0.66590960E+00
   0.49000000E+00           0.66422510E+00
   0.50000000E+00           0.66359160E+00
   0.51000000E+00           0.66099170E+00
   0.52000000E+00           0.65878600E+00
   0.53000000E+00           0.65430410E+00
   0.54000000E+00           0.65115210E+00
   0.55000000E+00           0.64631780E+00
   0.56000000E+00           0.64223790E+00
   0.57000000E+00           0.63598070E+00
   0.58000000E+00           0.63028990E+00
   0.59000000E+00           0.62449720E+00
   0.60000000E+00           0.61719360E+00
   0.61000000E+00           0.61142010E+00
   0.62000000E+00           0.60290780E+00
   0.63000000E+00           0.59554770E+00
   0.64000000E+00           0.58726230E+00
   0.65000000E+00           0.57851630E+00
   0.66000000E+00           0.57057510E+00
   0.67000000E+00           0.56119320E+00
   0.68000000E+00           0.55101190E+00
   0.69000000E+00           0.54254790E+00
   0.70000000E+00           0.53249980E+00
   0.71000000E+00           0.52277030E+00
   0.72000000E+00           0.51293970E+00
   0.73000000E+00           0.50250480E+00
   0.74000000E+00           0.49248710E+00
   0.75000000E+00           0.48087940E+00
   0.76000000E+00           0.47084620E+00
   0.77000000E+00           0.45981030E+00
   0.78000000E+00           0.45039510E+00
   0.79000000E+00           0.43886090E+00
   0.80000000E+00           0.42843100E+00
   0.81000000E+00           0.41712770E+00
   0.82000000E+00           0.40675590E+00
   0.83000000E+00           0.39605160E+00
   0.84000000E+00           0.38519400E+00
   0.85000000E+00           0.37421060E+00
   0.86000000E+00           0.36428670E+00
   0.87000000E+00           0.35360160E+00
   0.88000000E+00           0.34272580E+00
   0.89000000E+00           0.33266780E+00
   0.90000000E+00           0.32242740E+00
   0.91000000E+00           0.31214560E+00
   0.92000000E+00           0.30231690E+00
   0.93000000E+00           0.29230950E+00
   0.94000000E+00           0.28221150E+00
   0.95000000E+00           0.27269430E+00
   0.96000000E+00           0.26341740E+00
   0.97000000E+00           0.25400990E+00
   0.98000000E+00           0.24493700E+00
   0.99000000E+00           0.23651440E+00
   0.10000000E+01           0.22745010E+00
   0.10100000E+01           0.21894740E+00
   0.10200000E+01           0.21082930E+00
   0.10300000E+01           0.20255790E+00
   0.10400000E+01           0.19468610E+00
   0.10500000E+01           0.18693330E+00
   0.10600000E+01           0.17958240E+00
   0.10700000E+01           0.17218570E+00
   0.10800000E+01           0.16512770E+00
   0.10900000E+01           0.15811650E+00
   0.11000000E+01           0.15155610E+00
   0.11100000E+01           0.14528260E+00
   0.11200000E+01           0.13897810E+00
   0.11300000E+01           0.13249510E+00
   0.11400000E+01           0.12715510E+00
   0.11500000E+01           0.12141810E+00
   0.11600000E+01           0.11619640E+00
   0.11700000E+01           0.11064130E+00
   0.11800000E+01           0.10603560E+00
   0.11900000E+01           0.10141890E+00
   0.12000000E+01           0.96640700E-01
   0.12100000E+01           0.92318900E-01
   0.12200000E+01           0.88311900E-01
   0.12300000E+01           0.84590300E-01
   0.12400000E+01           0.80729000E-01
   0.12500000E+01           0.77227100E-01
   0.12600000E+01           0.73882700E-01
   0.12700000E+01           0.70967800E-01
   0.12800000E+01           0.68104200E-01
   0.12900000E+01           0.65449800E-01
   0.13000000E+01           0.62965100E-01
   0.13100000E+01           0.60945400E-01
   0.13200000E+01           0.58728800E-01
   0.13300000E+01           0.56983600E-01
   0.13400000E+01           0.55401600E-01
   0.13500000E+01           0.54076000E-01
   0.13600000E+01           0.52897900E-01
   0.13700000E+01           0.52096400E-01
   0.13800000E+01           0.51437100E-01
   0.13900000E+01           0.51040300E-01
   0.14000000E+01           0.50916800E-01
   0.14100000E+01           0.50904800E-01
   0.14200000E+01           0.51231600E-01
   0.14300000E+01           0.51891600E-01
   0.14400000E+01           0.52855800E-01
   0.14500000E+01           0.53994300E-01
   0.14600000E+01           0.55696000E-01
   0.14700000E+01           0.57453400E-01
   0.14800000E+01           0.59680500E-01
   0.14900000E+01           0.62354100E-01
   0.15000000E+01           0.65369300E-01
   0.15100000E+01           0.69159900E-01
   0.15200000E+01           0.73037300E-01
   0.15300000E+01           0.77615900E-01
   0.15400000E+01           0.82642000E-01
   0.15500000E+01           0.88251800E-01
   0.15600000E+01           0.94334900E-01
   0.15700000E+01           0.10140030E+00
   0.15800000E+01           0.10909160E+00
   0.15900000E+01           0.11772210E+00
   0.16000000E+01           0.12718570E+00
   0.16100000E+01           0.13733450E+00
   0.16200000E+01           0.14887930E+00
   0.16300000E+01           0.16139040E+00
   0.16400000E+01           0.17515190E+00
   0.16500000E+01           0.19059020E+00
   0.16600000E+01           0.20764600E+00
   0.16700000E+01           0.22599490E+00
   0.16800000E+01           0.24579830E+00
   0.16900000E+01           0.26829190E+00
   0.17000000E+01           0.29224160E+00
   0.17100000E+01           0.31920970E+00
   0.17200000E+01           0.34835680E+00
   0.17300000E+01           0.38094550E+00
   0.17400000E+01           0.41625310E+00
   0.17500000E+01           0.45479770E+00
   0.17600000E+01           0.49817900E+00
   0.17700000E+01           0.54421610E+00
   0.17800000E+01           0.59609120E+00
   0.17900000E+01           0.65166430E+00
   0.18000000E+01           0.71409230E+00
   0.18100000E+01           0.78269260E+00
   0.18200000E+01           0.85703050E+00
   0.18300000E+01           0.93885620E+00
   0.18400000E+01           0.10287186E+01
   0.18500000E+01           0.11291721E+01
   0.18600000E+01           0.12382903E+01
   0.18700000E+01           0.13583257E+01
   0.18800000E+01           0.14905890E+01
   0.18900000E+01           0.16358583E+01
   0.19000000E+01           0.17957116E+01
   0.19100000E+01           0.19722008E+01
   0.19200000E+01           0.21653991E+01
   0.19300000E+01           0.23791036E+01
   0.19400000E+01           0.26139695E+01
   0.19500000E+01           0.28719003E+01
   0.19600000E+01           0.31596283E+01
   0.19700000E+01           0.34733105E+01
   0.19800000E+01           0.38192317E+01
   0.19900000E+01           0.42021743E+01
   0.20000000E+01           0.22567250E+01
 #T=    49.0000
  -0.20000000E+01           0.00000000E+00
  -0.19900000E+01           0.00000000E+00
  -0.19800000E+01           0.00000000E+00
  -0.19700000E+01           0.00000000E+00
  -0.19600000E+01           0.00000000E+00
  -0.19500000E+01           0.00000000E+00
  -0.19400000E+01           0.00000000E+00
  -0.19300000E+01           0.00000000E+00
  -0.19200000E+01           0.00000000E+00
  -0.19100000E+01           0.00000000E+00
  -0.19000000E+01           0.00000000E+00
  -0.18900000E+01           0.00000000E+00
  -0.18800000E+01           0.00000000E+00
  -0.18700000E+01           0.00000000E+00
  -0.18600000E+01           0.00000000E+00
  -0.18500000E+01           0.00000000E+00
  -0.18400000E+01           0.00000000E+00
  -0.18300000E+01           0.00000000E+00
  -0.18200000E+01           0.00000000E+00
  -0.18100000E+01           0.00000000E+00
  -0.18000000E+01           0.00000000E+00
  -0.17900000E+01           0.00000000E+00
  -0.17800000E+01           0.00000000E+00
  -0.17700000E+01           0.00000000E+00
  -0.17600000E+01           0.00000000E+00
  -0.17500000E+01           0.00000000E+00
  -0.17400000E+01           0.00000000E+00
  -0.17300000E+01           0.00000000E+00
  -0.17200000E+01           0.00000000E+00
  -0.17100000E+01           0.00000000E+00
  -0.17000000E+01           0.00000000E+00
  -0.16900000E+01           0.00000000E+00
  -0.16800000E+01           0.00000000E+00
  -0.16700000E+01           0.00000000E+00
  -0.16600000E+01           0.00000000E+00
  -0.16500000E+01           0.00000000E+00
  -0.16400000E+01           0.00000000E+00
  -0.16300000E+01           0.00000000E+00
  -0.16200000E+01           0.00000000E+00
  -0.16100000E+01           0.00000000E+00
  -0.16000000E+01           0.00000000E+00
  -0.15900000E+01           0.00000000E+00
  -0.15800000E+01           0.00000000E+00
  -0.15700000E+01           0.00000000E+00
  -0.15600000E+01           0.00000000E+00
  -0.15500000E+01           0.00000000E+00
  -0.15400000E+01           0.00000000E+00
  -0.15300000E+01           0.00000000E+00
  -0.15200000E+01           0.00000000E+00
  -0.15100000E+01           0.00000000E+00
  -0.15000000E+01           0.00000000E+00
  -0.14900000E+01           0.00000000E+00
  -0.14800000E+01           0.00000000E+00
  -0.14700000E+01           0.00000000E+00
  -0.14600000E+01           0.00000000E+00
  -0.14500000E+01           0.00000000E+00
  -0.14400000E+01           0.00000000E+00
  -0.14300000E+01           0.00000000E+00
  -0.14200000E+01           0.00000000E+00
  -0.14100000E+01           0.00000000E+00
  -0.14000000E+01           0.00000000E+00
  -0.13900000E+01           0.00000000E+00
  -0.13800000E+01           0.00000000E+00
  -0.13700000E+01           0.00000000E+00
  -0.13600000E+01           0.00000000E+00
  -0.13500000E+01           0.00000000E+00
  -0.13400000E+01           0.00000000E+00
  -0.13300000E+01           0.00000000E+00
  -0.13200000E+01           0.00000000E+00
  -0.13100000E+01           0.00000000E+00
  -0.13000000E+01           0.00000000E+00
  -0.12900000E+01           0.00000000E+00
  -0.12800000E+01           0.00000000E+00
  -0.12700000E+01           0.00000000E+00
  -0.12600000E+01           0.00000000E+00
  -0.12500000E+01           0.00000000E+00
  -0.12400000E+01           0.00000000E+00
  -0.12300000E+01           0.00000000E+00
  -0.12200000E+01           0.00000000E+00
  -0.12100000E+01           0.00000000E+00
  -0.12000000E+01           0.00000000E+00
  -0.11900000E+01           0.00000000E+00
  -0.11800000E+01           0.00000000E+00
  -0.11700000E+01           0.00000000E+00
  -0.11600000E+01           0.00000000E+00
  -0.11500000E+01           0.00000000E+00
  -0.11400000E+01           0.00000000E+00
  -0.11300000E+01           0.00000000E+00
  -0.11200000E+01           0.00000000E+00
  -0.11100000E+01           0.00000000E+00
  -0.11000000E+01           0.00000000E+00
  -0.10900000E+01           0.00000000E+00
  -0.10800000E+01           0.00000000E+00
  -0.10700000E+01           0.00000000E+00
  -0.10600000E+01           0.00000000E+00
  -0.10500000E+01           0.00000000E+00
  -0.10400000E+01           0.00000000E+00
  -0.10300000E+01           0.00000000E+00
  -0.10200000E+01           0.00000000E+00
  -0.10100000E+01           0.00000000E+00
  -0.10000000E+01           0.00000000E+00
  -0.99000000E+00           0.00000000E+00
  -0.98000000E+00           0.00000000E+00
  -0.97000000E+00           0.00000000E+00
  -0.96000000E+00           0.00000000E+00
  -0.95000000E+00           0.00000000E+00
  -0.94000000E+00           0.00000000E+00
  -0.93000000E+00           0.00000000E+00
  -0.92000000E+00           0.00000000E+00
  -0.91000000E+00           0.00000000E+00
  -0.90000000E+00           0.00000000E+00
  -0.89000000E+00           0.00000000E+00
  -0.88000000E+00           0.00000000E+00
  -0.87000000E+00           0.00000000E+00
  -0.86000000E+00           0.00000000E+00
  -0.85000000E+00           0.00000000E+00
  -0.84000000E+00           0.00000000E+00
  -0.83000000E+00           0.00000000E+00
  -0.82000000E+00           0.00000000E+00
  -0.81000000E+00           0.00000000E+00
  -0.80000000E+00           0.00000000E+00
  -0.79000000E+00           0.00000000E+00
  -0.78000000E+00           0.00000000E+00
  -0.77000000E+00           0.00000000E+00
  -0.76000000E+00           0.00000000E+00
  -0.75000000E+00           0.00000000E+00
  -0.74000000E+00           0.00000000E+00
  -0.73000000E+00           0.00000000E+00
  -0.72000000E+00           0.00000000E+00
  -0.71000000E+00           0.00000000E+00
  -0.70000000E+00           0.00000000E+00
  -0.69000000E+00           0.00000000E+00
  -0.68000000E+00           0.00000000E+00
  -0.67000000E+00           0.00000000E+00
  -0.66000000E+00           0.00000000E+00
  -0.65000000E+00           0.00000000E+00
  -0.64000000E+00           0.00000000E+00
  -0.63000000E+00           0.00000000E+00
  -0.62000000E+00           0.00000000E+00
  -0.61000000E+00           0.00000000E+00
  -0.60000000E+00           0.00000000E+00
  -0.59000000E+00           0.00000000E+00
  -0.58000000E+00           0.00000000E+00
  -0.57000000E+00           0.00000000E+00
  -0.56000000E+00           0.00000000E+00
  -0.55000000E+00           0.00000000E+00
  -0.54000000E+00           0.00000000E+00
  -0.53000000E+00           0.00000000E+00
  -0.52000000E+00           0.00000000E+00
  -0.51000000E+00           0.00000000E+00
  -0.50000000E+00           0.00000000E+00
  -0.49000000E+00           0.00000000E+00
  -0.48000000E+00           0.00000000E+00
  -0.47000000E+00           0.00000000E+00
  -0.46000000E+00           0.00000000E+00
  -0.45000000E+00           0.00000000E+00
  -0.44000000E+00           0.00000000E+00
  -0.43000000E+00           0.00000000E+00
  -0.42000000E+00           0.00000000E+00
  -0.41000000E+00           0.00000000E+00
  -0.40000000E+00           0.00000000E+00
  -0.39000000E+00           0.00000000E+00
  -0.38000000E+00           0.00000000E+00
  -0.37000000E+00           0.00000000E+00
  -0.36000000E+00           0.00000000E+00
  -0.35000000E+00           0.00000000E+00
  -0.34000000E+00           0.00000000E+00
  -0.33000000E+00           0.00000000E+00
  -0.32000000E+00           0.00000000E+00
  -0.31000000E+00           0.00000000E+00
  -0.30000000E+00           0.00000000E+00
  -0.29000000E+00           0.00000000E+00
  -0.28000000E+00           0.00000000E+00
  -0.27000000E+00           0.00000000E+00
  -0.26000000E+00           0.00000000E+00
  -0.25000000E+00           0.00000000E+00
  -0.24000000E+00           0.00000000E+00
  -0.23000000E+00           0.00000000E+00
  -0.22000000E+00           0.00000000E+00
  -0.21000000E+00           0.00000000E+00
  -0.20000000E+00           0.00000000E+00
  -0.19000000E+00           0.00000000E+00
  -0.18000000E+00           0.00000000E+00
  -0.17000000E+00           0.00000000E+00
  -0.16000000E+00           0.00000000E+00
  -0.15000000E+00           0.00000000E+00
  -0.14000000E+00           0.00000000E+00
  -0.13000000E+00           0.00000000E+00
  -0.12000000E+00           0.00000000E+00
  -0.11000000E+00           0.00000000E+00
  -0.10000000E+00           0.00000000E+00
  -0.90000000E-01           0.00000000E+00
  -0.80000000E-01           0.00000000E+00
  -0.70000000E-01           0.00000000E+00
  -0.60000000E-01           0.00000000E+00
  -0.50000000E-01           0.00000000E+00
  -0.40000000E-01           0.00000000E+00
  -0.30000000E-01           0.00000000E+00
  -0.20000000E-01           0.00000000E+00
  -0.10000000E-01           0.00000000E+00
   0.00000000E+00           0.28737000E-02
   0.10000000E-01           0.22923400E-01
   0.20000000E-01           0.45933100E-01
   0.30000000E-01           0.68488200E-01
   0.40000000E-01           0.91480100E-01
   0.50000000E-01           0.11433720E+00
   0.60000000E-01           0.13623410E+00
   0.70000000E-01           0.15838730E+00
   0.80000000E-01           0.18073330E+00
   0.90000000E-01           0.20303320E+00
   0.10000000E+00           0.22395750E+00
   0.11000000E+00           0.24532720E+00
   0.12000000E+00           0.26614980E+00
   0.13000000E+00           0.28681380E+00
   0.14000000E+00           0.30732560E+00
   0.15000000E+00           0.32678330E+00
   0.16000000E+00           0.34622340E+00
   0.17000000E+00           0.36569600E+00
   0.18000000E+00           0.38407100E+00
   0.19000000E+00           0.40155130E+00
   0.20000000E+00           0.41955570E+00
   0.21000000E+00           0.43618590E+00
   0.22000000E+00           0.45299170E+00
   0.23000000E+00           0.46889100E+00
   0.24000000E+00           0.48416720E+00
   0.25000000E+00           0.49879920E+00
   0.26000000E+00           0.51299990E+00
   0.27000000E+00           0.52609630E+00
   0.28000000E+00           0.53909780E+00
   0.29000000E+00           0.55118510E+00
   0.30000000E+00           0.56383600E+00
   0.31000000E+00           0.57435460E+00
   0.32000000E+00           0.58456110E+00
   0.33000000E+00           0.59449210E+00
   0.34000000E+00           0.60322680E+00
   0.35000000E+00           0.61197090E+00
   0.36000000E+00           0.61873480E+00
   0.37000000E+00           0.62627400E+00
   0.38000000E+00           0.63183920E+00
   0.39000000E+00           0.63766050E+00
   0.40000000E+00           0.64170420E+00
   0.41000000E+00           0.64656090E+00
   0.42000000E+00           0.65135300E+00
   0.43000000E+00           0.65262560E+00
   0.44000000E+00           0.65550890E+00
   0.45000000E+00           0.65732350E+00
   0.46000000E+00           0.65839780E+00
   0.47000000E+00           0.65847420E+00
   0.48000000E+00           0.65881260E+00
   0.49000000E+00           0.65739800E+00
   0.50000000E+00           0.65734800E+00
   0.51000000E+00           0.65360120E+00
   0.52000000E+00           0.65266180E+00
   0.53000000E+00           0.64981310E+00
   0.54000000E+00           0.64514960E+00
   0.55000000E+00           0.64133860E+00
   0.56000000E+00           0.63825870E+00
   0.57000000E+00           0.63301990E+00
   0.58000000E+00           0.62707910E+00
   0.59000000E+00           0.62185190E+00
   0.60000000E+00           0.61524520E+00
   0.61000000E+00           0.60846490E+00
   0.62000000E+00           0.60219660E+00
   0.63000000E+00           0.59377510E+00
   0.64000000E+00           0.58716430E+00
   0.65000000E+00           0.57859930E+00
   0.66000000E+00           0.57112710E+00
   0.67000000E+00           0.56243020E+00
   0.68000000E+00           0.55320380E+00
   0.69000000E+00           0.54402990E+00
   0.70000000E+00           0.53481790E+00
   0.71000000E+00           0.52556930E+00
   0.72000000E+00           0.51564810E+00
   0.73000000E+00           0.50585940E+00
   0.74000000E+00           0.49551810E+00
   0.75000000E+00           0.48572540E+00
   0.76000000E+00           0.47543620E+00
   0.77000000E+00           0.46534170E+00
   0.78000000E+00           0.45477310E+00
   0.79000000E+00           0.44460570E+00
   0.80000000E+00           0.43399480E+00
   0.81000000E+00           0.42352910E+00
   0.82000000E+00           0.41294420E+00
   0.83000000E+00           0.40232580E+00
   0.84000000E+00           0.39196320E+00
   0.85000000E+00           0.38109260E+00
   0.86000000E+00           0.37174250E+00
   0.87000000E+00           0.36036080E+00
   0.88000000E+00           0.35011370E+00
   0.89000000E+00           0.34017260E+00
   0.90000000E+00           0.32974000E+00
   0.91000000E+00           0.32033260E+00
   0.92000000E+00           0.31001300E+00
   0.93000000E+00           0.30031420E+00
   0.94000000E+00           0.29090470E+00
   0.95000000E+00           0.28139150E+00
   0.96000000E+00           0.27190930E+00
   0.97000000E+00           0.26253700E+00
   0.98000000E+00           0.25359940E+00
   0.99000000E+00           0.24464330E+00
   0.10000000E+01           0.23609680E+00
   0.10100000E+01           0.22690420E+00
   0.10200000E+01           0.21911780E+00
   0.10300000E+01           0.21103590E+00
   0.10400000E+01           0.20298290E+00
   0.10500000E+01           0.19500730E+00
   0.10600000E+01           0.18748420E+00
   0.10700000E+01           0.18050790E+00
   0.10800000E+01           0.17287580E+00
   0.10900000E+01           0.16588500E+00
   0.11000000E+01           0.15931570E+00
   0.11100000E+01           0.15283710E+00
   0.11200000E+01           0.14684930E+00
   0.11300000E+01           0.14051400E+00
   0.11400000E+01           0.13458500E+00
   0.11500000E+01           0.12868270E+00
   0.11600000E+01           0.12332240E+00
   0.11700000E+01           0.11806200E+00
   0.11800000E+01           0.11285910E+00
   0.11900000E+01           0.10818150E+00
   0.12000000E+01           0.10329490E+00
   0.12100000E+01           0.99148000E-01
   0.12200000E+01           0.95079200E-01
   0.12300000E+01           0.90784800E-01
   0.12400000E+01           0.87143300E-01
   0.12500000E+01           0.83550200E-01
   0.12600000E+01           0.80230500E-01
   0.12700000E+01           0.77119300E-01
   0.12800000E+01           0.74006100E-01
   0.12900000E+01           0.71445200E-01
   0.13000000E+01           0.69104200E-01
   0.13100000E+01           0.66612100E-01
   0.13200000E+01           0.64533300E-01
   0.13300000E+01           0.62735800E-01
   0.13400000E+01           0.60991800E-01
   0.13500000E+01           0.59667900E-01
   0.13600000E+01           0.58506600E-01
   0.13700000E+01           0.57799300E-01
   0.13800000E+01           0.56840100E-01
   0.13900000E+01           0.56457200E-01
   0.14000000E+01           0.56329200E-01
   0.14100000E+01           0.56405100E-01
   0.14200000E+01           0.56924900E-01
   0.14300000E+01           0.57577300E-01
   0.14400000E+01           0.58434500E-01
   0.14500000E+01           0.59877200E-01
   0.14600000E+01           0.61523600E-01
   0.14700000E+01           0.63404600E-01
   0.14800000E+01           0.65740600E-01
   0.14900000E+01           0.68681300E-01
   0.15000000E+01           0.71811600E-01
   0.15100000E+01           0.75736000E-01
   0.15200000E+01           0.79771900E-01
   0.15300000E+01           0.84312800E-01
   0.15400000E+01           0.89563100E-01
   0.15500000E+01           0.95514300E-01
   0.15600000E+01           0.10202230E+00
   0.15700000E+01           0.10929210E+00
   0.15800000E+01           0.11728900E+00
   0.15900000E+01           0.12647310E+00
   0.16000000E+01           0.13573870E+00
   0.16100000E+01           0.14657900E+00
   0.16200000E+01           0.15845470E+00
   0.16300000E+01           0.17149640E+00
   0.16400000E+01           0.18551610E+00
   0.16500000E+01           0.20164780E+00
   0.16600000E+01           0.21841480E+00
   0.16700000E+01           0.23725290E+00
   0.16800000E+01           0.25795590E+00
   0.16900000E+01           0.28046510E+00
   0.17000000E+01           0.30547080E+00
   0.17100000E+01           0.33264900E+00
   0.17200000E+01           0.36210600E+00
   0.17300000E+01           0.39457400E+00
   0.17400000E+01           0.43010030E+00
   0.17500000E+01           0.46932270E+00
   0.17600000E+01           0.51201210E+00
   0.17700000E+01           0.55870390E+00
   0.17800000E+01           0.60961320E+00
   0.17900000E+01           0.66629670E+00
   0.18000000E+01           0.72846690E+00
   0.18100000E+01           0.79552580E+00
   0.18200000E+01           0.87004970E+00
   0.18300000E+01           0.95124540E+00
   0.18400000E+01           0.10398678E+01
   0.18500000E+01           0.11380741E+01
   0.18600000E+01           0.12454090E+01
   0.18700000E+01           0.13620539E+01
   0.18800000E+01           0.14921638E+01
   0.18900000E+01           0.16342866E+01
   0.19000000E+01           0.17907083E+01
   0.19100000E+01           0.19610477E+01
   0.19200000E+01           0.21485727E+01
   0.19300000E+01           0.23555940E+01
   0.19400000E+01           0.25831131E+01
   0.19500000E+01           0.28309626E+01
   0.19600000E+01           0.31054697E+01
   0.19700000E+01           0.34081042E+01
   0.19800000E+01           0.37388691E+01
   0.19900000E+01           0.41049119E+01
   0.20000000E+01           0.21996142E+01
 #T=    50.0000
  -0.20000000E+01           0.00000000E+00
  -0.19900000E+01           0.00000000E+00
  -0.19800000E+01           0.00000000E+00
  -0.19700000E+01           0.00000000E+00
  -0.19600000E+01           0.00000000E+00
  -0.19500000E+01           0.00000000E+00
  -0.19400000E+01           0.00000000E+00
  -0.19300000E+01           0.00000000E+00
  -0.19200000E+01           0.00000000E+00
  -0.19100000E+01           0.00000000E+00
  -0.19000000E+01           0.00000000E+00
  -0.18900000E+01           0.00000000E+00
  -0.18800000E+01           0.00000000E+00
  -0.18700000E+01           0.00000000E+00
  -0.18600000E+01           0.00000000E+00
  -0.18500000E+01           0.00000000E+00
  -0.18400000E+01           0.00000000E+00
  -0.18300000E+01           0.00000000E+00
  -0.18200000E+01           0.00000000E+00
  -0.18100000E+01           0.00000000E+00
  -0.18000000E+01           0.00000000E+00
  -0.17900000E+01           0.00000000E+00
  -0.17800000E+01           0.00000000E+00
  -0.17700000E+01           0.00000000E+00
  -0.17600000E+01           0.00000000E+00
  -0.17500000E+01           0.00000000E+00
  -0.17400000E+01           0.00000000E+00
  -0.17300000E+01           0.00000000E+00
  -0.17200000E+01           0.00000000E+00
  -0.17100000E+01           0.00000000E+00
  -0.17000000E+01           0.00000000E+00
  -0.16900000E+01           0.00000000E+00
  -0.16800000E+01           0.00000000E+00
  -0.16700000E+01           0.00000000E+00
  -0.16600000E+01           0.00000000E+00
  -0.16500000E+01           0.00000000E+00
  -0.16400000E+01           0.00000000E+00
  -0.16300000E+01           0.00000000E+00
  -0.16200000E+01           0.00000000E+00
  -0.16100000E+01           0.00000000E+00
  -0.16000000E+01           0.00000000E+00
  -0.15900000E+01           0.00000000E+00
  -0.15800000E+01           0.00000000E+00
  -0.15700000E+01           0.00000000E+00
  -0.15600000E+01           0.00000000E+00
  -0.15500000E+01           0.00000000E+00
  -0.15400000E+01           0.00000000E+00
  -0.15300000E+01           0.00000000E+00
  -0.15200000E+01           0.00000000E+00
  -0.15100000E+01           0.00000000E+00
  -0.15000000E+01           0.00000000E+00
  -0.14900000E+01           0.00000000E+00
  -0.14800000E+01           0.00000000E+00
  -0.14700000E+01           0.00000000E+00
  -0.14600000E+01           0.00000000E+00
  -0.14500000E+01           0.00000000E+00
  -0.14400000E+01           0.00000000E+00
  -0.14300000E+01           0.00000000E+00
  -0.14200000E+01           0.00000000E+00
  -0.14100000E+01           0.00000000E+00
  -0.14000000E+01           0.00000000E+00
  -0.13900000E+01           0.00000000E+00
  -0.13800000E+01           0.00000000E+00
  -0.13700000E+01           0.00000000E+00
  -0.13600000E+01           0.00000000E+00
  -0.13500000E+01           0.00000000E+00
  -0.13400000E+01           0.00000000E+00
  -0.13300000E+01           0.00000000E+00
  -0.13200000E+01           0.00000000E+00
  -0.13100000E+01           0.00000000E+00
  -0.13000000E+01           0.00000000E+00
  -0.12900000E+01           0.00000000E+00
  -0.12800000E+01           0.00000000E+00
  -0.12700000E+01           0.00000000E+00
  -0.12600000E+01           0.00000000E+00
  -0.12500000E+01           0.00000000E+00
  -0.12400000E+01           0.00000000E+00
  -0.12300000E+01           0.00000000E+00
  -0.12200000E+01           0.00000000E+00
  -0.12100000E+01           0.00000000E+00
  -0.12000000E+01           0.00000000E+00
  -0.11900000E+01           0.00000000E+00
  -0.11800000E+01           0.00000000E+00
  -0.11700000E+01           0.00000000E+00
  -0.11600000E+01           0.00000000E+00
  -0.11500000E+01           0.00000000E+00
  -0.11400000E+01           0.00000000E+00
  -0.11300000E+01           0.00000000E+00
  -0.11200000E+01           0.00000000E+00
  -0.11100000E+01           0.00000000E+00
  -0.11000000E+01           0.00000000E+00
  -0.10900000E+01           0.00000000E+00
  -0.10800000E+01           0.00000000E+00
  -0.10700000E+01           0.00000000E+00
  -0.10600000E+01           0.00000000E+00
  -0.10500000E+01           0.00000000E+00
  -0.10400000E+01           0.00000000E+00
  -0.10300000E+01           0.00000000E+00
  -0.10200000E+01           0.00000000E+00
  -0.10100000E+01           0.00000000E+00
  -0.10000000E+01           0.00000000E+00
  -0.99000000E+00           0.00000000E+00
  -0.98000000E+00           0.00000000E+00
  -0.97000000E+00           0.00000000E+00
  -0.96000000E+00           0.00000000E+00
  -0.95000000E+00           0.00000000E+00
  -0.94000000E+00           0.00000000E+00
  -0.93000000E+00           0.00000000E+00
  -0.92000000E+00           0.00000000E+00
  -0.91000000E+00           0.00000000E+00
  -0.90000000E+00           0.00000000E+00
  -0.89000000E+00           0.00000000E+00
  -0.88000000E+00           0.00000000E+00
  -0.87000000E+00           0.00000000E+00
  -0.86000000E+00           0.00000000E+00
  -0.85000000E+00           0.00000000E+00
  -0.84000000E+00           0.00000000E+00
  -0.83000000E+00           0.00000000E+00
  -0.82000000E+00           0.00000000E+00
  -0.81000000E+00           0.00000000E+00
  -0.80000000E+00           0.00000000E+00
  -0.79000000E+00           0.00000000E+00
  -0.78000000E+00           0.00000000E+00
  -0.77000000E+00           0.00000000E+00
  -0.76000000E+00           0.00000000E+00
  -0.75000000E+00           0.00000000E+00
  -0.74000000E+00           0.00000000E+00
  -0.73000000E+00           0.00000000E+00
  -0.72000000E+00           0.00000000E+00
  -0.71000000E+00           0.00000000E+00
  -0.70000000E+00           0.00000000E+00
  -0.69000000E+00           0.00000000E+00
  -0.68000000E+00           0.00000000E+00
  -0.67000000E+00           0.00000000E+00
  -0.66000000E+00           0.00000000E+00
  -0.65000000E+00           0.00000000E+00
  -0.64000000E+00           0.00000000E+00
  -0.63000000E+00           0.00000000E+00
  -0.62000000E+00           0.00000000E+00
  -0.61000000E+00           0.00000000E+00
  -0.60000000E+00           0.00000000E+00
  -0.59000000E+00           0.00000000E+00
  -0.58000000E+00           0.00000000E+00
  -0.57000000E+00           0.00000000E+00
  -0.56000000E+00           0.00000000E+00
  -0.55000000E+00           0.00000000E+00
  -0.54000000E+00           0.00000000E+00
  -0.53000000E+00           0.00000000E+00
  -0.52000000E+00           0.00000000E+00
  -0.51000000E+00           0.00000000E+00
  -0.50000000E+00           0.00000000E+00
  -0.49000000E+00           0.00000000E+00
  -0.48000000E+00           0.00000000E+00
  -0.47000000E+00           0.00000000E+00
  -0.46000000E+00           0.00000000E+00
  -0.45000000E+00           0.00000000E+00
  -0.44000000E+00           0.00000000E+00
  -0.43000000E+00           0.00000000E+00
  -0.42000000E+00           0.00000000E+00
  -0.41000000E+00           0.00000000E+00
  -0.40000000E+00           0.00000000E+00
  -0.39000000E+00           0.00000000E+00
  -0.38000000E+00           0.00000000E+00
  -0.37000000E+00           0.00000000E+00
  -0.36000000E+00           0.00000000E+00
  -0.35000000E+00           0.00000000E+00
  -0.34000000E+00           0.00000000E+00
  -0.33000000E+00           0.00000000E+00
  -0.32000000E+00           0.00000000E+00
  -0.31000000E+00           0.00000000E+00
  -0.30000000E+00           0.00000000E+00
  -0.29000000E+00           0.00000000E+00
  -0.28000000E+00           0.00000000E+00
  -0.27000000E+00           0.00000000E+00
  -0.26000000E+00           0.00000000E+00
  -0.25000000E+00           0.00000000E+00
  -0.24000000E+00           0.00000000E+00
  -0.23000000E+00           0.00000000E+00
  -0.22000000E+00           0.00000000E+00
  -0.21000000E+00           0.00000000E+00
  -0.20000000E+00           0.00000000E+00
  -0.19000000E+00           0.00000000E+00
  -0.18000000E+00           0.00000000E+00
  -0.17000000E+00           0.00000000E+00
  -0.16000000E+00           0.00000000E+00
  -0.15000000E+00           0.00000000E+00
  -0.14000000E+00           0.00000000E+00
  -0.13000000E+00           0.00000000E+00
  -0.12000000E+00           0.00000000E+00
  -0.11000000E+00           0.00000000E+00
  -0.10000000E+00           0.00000000E+00
  -0.90000000E-01           0.00000000E+00
  -0.80000000E-01           0.00000000E+00
  -0.70000000E-01           0.00000000E+00
  -0.60000000E-01           0.00000000E+00
  -0.50000000E-01           0.00000000E+00
  -0.40000000E-01           0.00000000E+00
  -0.30000000E-01           0.00000000E+00
  -0.20000000E-01           0.00000000E+00
  -0.10000000E-01           0.00000000E+00
   0.00000000E+00           0.27893000E-02
   0.10000000E-01           0.22325400E-01
   0.20000000E-01           0.44625600E-01
   0.30000000E-01           0.66734200E-01
   0.40000000E-01           0.88951000E-01
   0.50000000E-01           0.11132090E+00
   0.60000000E-01           0.13279530E+00
   0.70000000E-01           0.15471410E+00
   0.80000000E-01           0.17646790E+00
   0.90000000E-01           0.19792590E+00
   0.10000000E+00           0.21914230E+00
   0.11000000E+00           0.23932750E+00
   0.12000000E+00           0.25944890E+00
   0.13000000E+00           0.27985660E+00
   0.14000000E+00           0.29979370E+00
   0.15000000E+00           0.31920710E+00
   0.16000000E+00           0.33804440E+00
   0.17000000E+00           0.35641440E+00
   0.18000000E+00           0.37540170E+00
   0.19000000E+00           0.39290240E+00
   0.20000000E+00           0.40963350E+00
   0.21000000E+00           0.42665470E+00
   0.22000000E+00           0.44273360E+00
   0.23000000E+00           0.45780310E+00
   0.24000000E+00           0.47330820E+00
   0.25000000E+00           0.48759340E+00
   0.26000000E+00           0.50127040E+00
   0.27000000E+00           0.51530310E+00
   0.28000000E+00           0.52802170E+00
   0.29000000E+00           0.54012600E+00
   0.30000000E+00           0.55237280E+00
   0.31000000E+00           0.56282620E+00
   0.32000000E+00           0.57245570E+00
   0.33000000E+00           0.58246140E+00
   0.34000000E+00           0.59196390E+00
   0.35000000E+00           0.60013530E+00
   0.36000000E+00           0.60812790E+00
   0.37000000E+00           0.61437100E+00
   0.38000000E+00           0.62077440E+00
   0.39000000E+00           0.62782830E+00
   0.40000000E+00           0.63196500E+00
   0.41000000E+00           0.63659880E+00
   0.42000000E+00           0.64011660E+00
   0.43000000E+00           0.64364390E+00
   0.44000000E+00           0.64611660E+00
   0.45000000E+00           0.64776120E+00
   0.46000000E+00           0.64983830E+00
   0.47000000E+00           0.65029280E+00
   0.48000000E+00           0.65030070E+00
   0.49000000E+00           0.65055980E+00
[...]
   0.13800000E+01           0.63611260E+00
   0.13900000E+01           0.64106470E+00
   0.14000000E+01           0.64567480E+00
   0.14100000E+01           0.65025460E+00
   0.14200000E+01           0.65435770E+00
   0.14300000E+01           0.65933640E+00
   0.14400000E+01           0.66337520E+00
   0.14500000E+01           0.66883360E+00
   0.14600000E+01           0.67346750E+00
   0.14700000E+01           0.67908530E+00
   0.14800000E+01           0.68344140E+00
   0.14900000E+01           0.68881380E+00
   0.15000000E+01           0.69395460E+00
   0.15100000E+01           0.69941640E+00
   0.15200000E+01           0.70463750E+00
   0.15300000E+01           0.70979740E+00
   0.15400000E+01           0.71593530E+00
   0.15500000E+01           0.72128460E+00
   0.15600000E+01           0.72754010E+00
   0.15700000E+01           0.73342410E+00
   0.15800000E+01           0.73927520E+00
   0.15900000E+01           0.74558270E+00
   0.16000000E+01           0.75181130E+00
   0.16100000E+01           0.75753600E+00
   0.16200000E+01           0.76486980E+00
   0.16300000E+01           0.77096850E+00
   0.16400000E+01           0.77799130E+00
   0.16500000E+01           0.78464500E+00
   0.16600000E+01           0.79177640E+00
   0.16700000E+01           0.79922200E+00
   0.16800000E+01           0.80693730E+00
   0.16900000E+01           0.81443550E+00
   0.17000000E+01           0.82207160E+00
   0.17100000E+01           0.82961370E+00
   0.17200000E+01           0.83758570E+00
   0.17300000E+01           0.84640260E+00
   0.17400000E+01           0.85445050E+00
   0.17500000E+01           0.86307100E+00
   0.17600000E+01           0.87189940E+00
   0.17700000E+01           0.88082980E+00
   0.17800000E+01           0.89003330E+00
   0.17900000E+01           0.90047980E+00
   0.18000000E+01           0.90881290E+00
   0.18100000E+01           0.91909390E+00
   0.18200000E+01           0.92930380E+00
   0.18300000E+01           0.94037950E+00
   0.18400000E+01           0.95060930E+00
   0.18500000E+01           0.96167360E+00
   0.18600000E+01           0.97301460E+00
   0.18700000E+01           0.98437560E+00
   0.18800000E+01           0.99599860E+00
   0.18900000E+01           0.10083199E+01
   0.19000000E+01           0.10200391E+01
   0.19100000E+01           0.10334052E+01
   0.19200000E+01           0.10462194E+01
   0.19300000E+01           0.10595158E+01
   0.19400000E+01           0.10735631E+01
   0.19500000E+01           0.10877773E+01
   0.19600000E+01           0.11022213E+01
   0.19700000E+01           0.11164095E+01
   0.19800000E+01           0.11324226E+01
   0.19900000E+01           0.11473449E+01
   0.20000000E+01           0.57936280E+00
 #T=   125.0000
  -0.20000000E+01           0.00000000E+00
  -0.19900000E+01           0.00000000E+00
  -0.19800000E+01           0.00000000E+00
  -0.19700000E+01           0.00000000E+00
  -0.19600000E+01           0.00000000E+00
  -0.19500000E+01           0.00000000E+00
  -0.19400000E+01           0.00000000E+00
  -0.19300000E+01           0.00000000E+00
  -0.19200000E+01           0.00000000E+00
  -0.19100000E+01           0.00000000E+00
  -0.19000000E+01           0.00000000E+00
  -0.18900000E+01           0.00000000E+00
  -0.18800000E+01           0.00000000E+00
  -0.18700000E+01           0.00000000E+00
  -0.18600000E+01           0.00000000E+00
  -0.18500000E+01           0.00000000E+00
  -0.18400000E+01           0.00000000E+00
  -0.18300000E+01           0.00000000E+00
  -0.18200000E+01           0.00000000E+00
  -0.18100000E+01           0.00000000E+00
  -0.18000000E+01           0.00000000E+00
  -0.17900000E+01           0.00000000E+00
  -0.17800000E+01           0.00000000E+00
  -0.17700000E+01           0.00000000E+00
  -0.17600000E+01           0.00000000E+00
  -0.17500000E+01           0.00000000E+00
  -0.17400000E+01           0.00000000E+00
  -0.17300000E+01           0.00000000E+00
  -0.17200000E+01           0.00000000E+00
  -0.17100000E+01           0.00000000E+00
  -0.17000000E+01           0.00000000E+00
  -0.16900000E+01           0.00000000E+00
  -0.16800000E+01           0.00000000E+00
  -0.16700000E+01           0.00000000E+00
  -0.16600000E+01           0.00000000E+00
  -0.16500000E+01           0.00000000E+00
  -0.16400000E+01           0.00000000E+00
  -0.16300000E+01           0.00000000E+00
  -0.16200000E+01           0.00000000E+00
  -0.16100000E+01           0.00000000E+00
  -0.16000000E+01           0.00000000E+00
  -0.15900000E+01           0.00000000E+00
  -0.15800000E+01           0.00000000E+00
  -0.15700000E+01           0.00000000E+00
  -0.15600000E+01           0.00000000E+00
  -0.15500000E+01           0.00000000E+00
  -0.15400000E+01           0.00000000E+00
  -0.15300000E+01           0.00000000E+00
  -0.15200000E+01           0.00000000E+00
  -0.15100000E+01           0.00000000E+00
  -0.15000000E+01           0.00000000E+00
  -0.14900000E+01           0.00000000E+00
  -0.14800000E+01           0.00000000E+00
  -0.14700000E+01           0.00000000E+00
  -0.14600000E+01           0.00000000E+00
  -0.14500000E+01           0.00000000E+00
  -0.14400000E+01           0.00000000E+00
  -0.14300000E+01           0.00000000E+00
  -0.14200000E+01           0.00000000E+00
  -0.14100000E+01           0.00000000E+00
  -0.14000000E+01           0.00000000E+00
  -0.13900000E+01           0.00000000E+00
  -0.13800000E+01           0.00000000E+00
  -0.13700000E+01           0.00000000E+00
  -0.13600000E+01           0.00000000E+00
  -0.13500000E+01           0.00000000E+00
  -0.13400000E+01           0.00000000E+00
  -0.13300000E+01           0.00000000E+00
  -0.13200000E+01           0.00000000E+00
  -0.13100000E+01           0.00000000E+00
  -0.13000000E+01           0.00000000E+00
  -0.12900000E+01           0.00000000E+00
  -0.12800000E+01           0.00000000E+00
  -0.12700000E+01           0.00000000E+00
  -0.12600000E+01           0.00000000E+00
  -0.12500000E+01           0.00000000E+00
  -0.12400000E+01           0.00000000E+00
  -0.12300000E+01           0.00000000E+00
  -0.12200000E+01           0.00000000E+00
  -0.12100000E+01           0.00000000E+00
  -0.12000000E+01           0.00000000E+00
  -0.11900000E+01           0.00000000E+00
  -0.11800000E+01           0.00000000E+00
  -0.11700000E+01           0.00000000E+00
  -0.11600000E+01           0.00000000E+00
  -0.11500000E+01           0.00000000E+00
  -0.11400000E+01           0.00000000E+00
  -0.11300000E+01           0.00000000E+00
  -0.11200000E+01           0.00000000E+00
  -0.11100000E+01           0.00000000E+00
  -0.11000000E+01           0.00000000E+00
  -0.10900000E+01           0.00000000E+00
  -0.10800000E+01           0.00000000E+00
  -0.10700000E+01           0.00000000E+00
  -0.10600000E+01           0.00000000E+00
  -0.10500000E+01           0.00000000E+00
  -0.10400000E+01           0.00000000E+00
  -0.10300000E+01           0.00000000E+00
  -0.10200000E+01           0.00000000E+00
  -0.10100000E+01           0.00000000E+00
  -0.10000000E+01           0.00000000E+00
  -0.99000000E+00           0.00000000E+00
  -0.98000000E+00           0.00000000E+00
  -0.97000000E+00           0.00000000E+00
  -0.96000000E+00           0.00000000E+00
  -0.95000000E+00           0.00000000E+00
  -0.94000000E+00           0.00000000E+00
  -0.93000000E+00           0.00000000E+00
  -0.92000000E+00           0.00000000E+00
  -0.91000000E+00           0.00000000E+00
  -0.90000000E+00           0.00000000E+00
  -0.89000000E+00           0.00000000E+00
  -0.88000000E+00           0.00000000E+00
  -0.87000000E+00           0.00000000E+00
  -0.86000000E+00           0.00000000E+00
  -0.85000000E+00           0.00000000E+00
  -0.84000000E+00           0.00000000E+00
  -0.83000000E+00           0.00000000E+00
  -0.82000000E+00           0.00000000E+00
  -0.81000000E+00           0.00000000E+00
  -0.80000000E+00           0.00000000E+00
  -0.79000000E+00           0.00000000E+00
  -0.78000000E+00           0.00000000E+00
  -0.77000000E+00           0.00000000E+00
  -0.76000000E+00           0.00000000E+00
  -0.75000000E+00           0.00000000E+00
  -0.74000000E+00           0.00000000E+00
  -0.73000000E+00           0.00000000E+00
  -0.72000000E+00           0.00000000E+00
  -0.71000000E+00           0.00000000E+00
  -0.70000000E+00           0.00000000E+00
  -0.69000000E+00           0.00000000E+00
  -0.68000000E+00           0.00000000E+00
  -0.67000000E+00           0.00000000E+00
  -0.66000000E+00           0.00000000E+00
  -0.65000000E+00           0.00000000E+00
  -0.64000000E+00           0.00000000E+00
  -0.63000000E+00           0.00000000E+00
  -0.62000000E+00           0.00000000E+00
  -0.61000000E+00           0.00000000E+00
  -0.60000000E+00           0.00000000E+00
  -0.59000000E+00           0.00000000E+00
  -0.58000000E+00           0.00000000E+00
  -0.57000000E+00           0.00000000E+00
  -0.56000000E+00           0.00000000E+00
  -0.55000000E+00           0.00000000E+00
  -0.54000000E+00           0.00000000E+00
  -0.53000000E+00           0.00000000E+00
  -0.52000000E+00           0.00000000E+00
  -0.51000000E+00           0.00000000E+00
  -0.50000000E+00           0.00000000E+00
  -0.49000000E+00           0.00000000E+00
  -0.48000000E+00           0.00000000E+00
  -0.47000000E+00           0.00000000E+00
  -0.46000000E+00           0.00000000E+00
  -0.45000000E+00           0.00000000E+00
  -0.44000000E+00           0.00000000E+00
  -0.43000000E+00           0.00000000E+00
  -0.42000000E+00           0.00000000E+00
  -0.41000000E+00           0.00000000E+00
  -0.40000000E+00           0.00000000E+00
  -0.39000000E+00           0.00000000E+00
  -0.38000000E+00           0.00000000E+00
  -0.37000000E+00           0.00000000E+00
  -0.36000000E+00           0.00000000E+00
  -0.35000000E+00           0.00000000E+00
  -0.34000000E+00           0.00000000E+00
  -0.33000000E+00           0.00000000E+00
  -0.32000000E+00           0.00000000E+00
  -0.31000000E+00           0.00000000E+00
  -0.30000000E+00           0.00000000E+00
  -0.29000000E+00           0.00000000E+00
  -0.28000000E+00           0.00000000E+00
  -0.27000000E+00           0.00000000E+00
  -0.26000000E+00           0.00000000E+00
  -0.25000000E+00           0.00000000E+00
  -0.24000000E+00           0.00000000E+00
  -0.23000000E+00           0.00000000E+00
  -0.22000000E+00           0.00000000E+00
  -0.21000000E+00           0.00000000E+00
  -0.20000000E+00           0.00000000E+00
  -0.19000000E+00           0.00000000E+00
  -0.18000000E+00           0.00000000E+00
  -0.17000000E+00           0.00000000E+00
  -0.16000000E+00           0.00000000E+00
  -0.15000000E+00           0.00000000E+00
  -0.14000000E+00           0.00000000E+00
  -0.13000000E+00           0.00000000E+00
  -0.12000000E+00           0.00000000E+00
  -0.11000000E+00           0.00000000E+00
  -0.10000000E+00           0.00000000E+00
  -0.90000000E-01           0.00000000E+00
  -0.80000000E-01           0.00000000E+00
  -0.70000000E-01           0.00000000E+00
  -0.60000000E-01           0.00000000E+00
  -0.50000000E-01           0.00000000E+00
  -0.40000000E-01           0.00000000E+00
  -0.30000000E-01           0.00000000E+00
  -0.20000000E-01           0.00000000E+00
  -0.10000000E-01           0.00000000E+00
   0.00000000E+00           0.71360000E-03
   0.10000000E-01           0.57882000E-02
   0.20000000E-01           0.11517500E-01
   0.30000000E-01           0.17388700E-01
   0.40000000E-01           0.23238100E-01
   0.50000000E-01           0.28982200E-01
   0.60000000E-01           0.34792400E-01
   0.70000000E-01           0.40441300E-01
   0.80000000E-01           0.46362300E-01
   0.90000000E-01           0.52080700E-01
   0.10000000E+00           0.57849600E-01
   0.11000000E+00           0.63688900E-01
   0.12000000E+00           0.69337200E-01
   0.13000000E+00           0.75212000E-01
   0.14000000E+00           0.80816500E-01
   0.15000000E+00           0.86709500E-01
   0.16000000E+00           0.92383400E-01
   0.17000000E+00           0.98007300E-01
   0.18000000E+00           0.10372290E+00
   0.19000000E+00           0.10926610E+00
   0.20000000E+00           0.11495110E+00
   0.21000000E+00           0.12054400E+00
   0.22000000E+00           0.12630770E+00
   0.23000000E+00           0.13192400E+00
   0.24000000E+00           0.13745070E+00
   0.25000000E+00           0.14309660E+00
   0.26000000E+00           0.14883460E+00
   0.27000000E+00           0.15424190E+00
   0.28000000E+00           0.15959450E+00
   0.29000000E+00           0.16532280E+00
   0.30000000E+00           0.17080460E+00
   0.31000000E+00           0.17586070E+00
   0.32000000E+00           0.18164710E+00
   0.33000000E+00           0.18701560E+00
   0.34000000E+00           0.19244790E+00
   0.35000000E+00           0.19784370E+00
   0.36000000E+00           0.20316830E+00
   0.37000000E+00           0.20840950E+00
   0.38000000E+00           0.21386410E+00
   0.39000000E+00           0.21895300E+00
   0.40000000E+00           0.22419660E+00
   0.41000000E+00           0.22960340E+00
   0.42000000E+00           0.23475770E+00
   0.43000000E+00           0.24005690E+00
   0.44000000E+00           0.24503450E+00
   0.45000000E+00           0.25034110E+00
   0.46000000E+00           0.25517060E+00
   0.47000000E+00           0.26002950E+00
   0.48000000E+00           0.26532360E+00
   0.49000000E+00           0.27077430E+00
   0.50000000E+00           0.27549630E+00
   0.51000000E+00           0.28015600E+00
   0.52000000E+00           0.28523040E+00
   0.53000000E+00           0.29007480E+00
   0.54000000E+00           0.29481190E+00
   0.55000000E+00           0.29984580E+00
   0.56000000E+00           0.30458370E+00
   0.57000000E+00           0.30939130E+00
   0.58000000E+00           0.31399190E+00
   0.59000000E+00           0.31889240E+00
   0.60000000E+00           0.32378460E+00
   0.61000000E+00           0.32817880E+00
   0.62000000E+00           0.33277200E+00
   0.63000000E+00           0.33749150E+00
   0.64000000E+00           0.34207830E+00
   0.65000000E+00           0.34652860E+00
   0.66000000E+00           0.35125770E+00
   0.67000000E+00           0.35533580E+00
   0.68000000E+00           0.35989850E+00
   0.69000000E+00           0.36440930E+00
   0.70000000E+00           0.36862620E+00
   0.71000000E+00           0.37336350E+00
   0.72000000E+00           0.37739090E+00
   0.73000000E+00           0.38221810E+00
   0.74000000E+00           0.38644960E+00
   0.75000000E+00           0.39042010E+00
   0.76000000E+00           0.39474110E+00
   0.77000000E+00           0.39879530E+00
   0.78000000E+00           0.40310110E+00
   0.79000000E+00           0.40745370E+00
   0.80000000E+00           0.41148290E+00
   0.81000000E+00           0.41534920E+00
   0.82000000E+00           0.41987980E+00
   0.83000000E+00           0.42344370E+00
   0.84000000E+00           0.42770370E+00
   0.85000000E+00           0.43159760E+00
   0.86000000E+00           0.43586290E+00
   0.87000000E+00           0.43937480E+00
   0.88000000E+00           0.44318370E+00
   0.89000000E+00           0.44794530E+00
   0.90000000E+00           0.45156830E+00
   0.91000000E+00           0.45529630E+00
   0.92000000E+00           0.45936940E+00
   0.93000000E+00           0.46306860E+00
   0.94000000E+00           0.46709700E+00
   0.95000000E+00           0.47053100E+00
   0.96000000E+00           0.47418440E+00
   0.97000000E+00           0.47867270E+00
   0.98000000E+00           0.48225880E+00
   0.99000000E+00           0.48633360E+00
   0.10000000E+01           0.48945350E+00
   0.10100000E+01           0.49323200E+00
   0.10200000E+01           0.49699350E+00
   0.10300000E+01           0.50076750E+00
   0.10400000E+01           0.50458850E+00
   0.10500000E+01           0.50816690E+00
   0.10600000E+01           0.51158210E+00
   0.10700000E+01           0.51594580E+00
   0.10800000E+01           0.51938340E+00
   0.10900000E+01           0.52298700E+00
   0.11000000E+01           0.52710400E+00
   0.11100000E+01           0.53062870E+00
   0.11200000E+01           0.53456590E+00
   0.11300000E+01           0.53761920E+00
   0.11400000E+01           0.54161970E+00
   0.11500000E+01           0.54558890E+00
   0.11600000E+01           0.54959960E+00
   0.11700000E+01           0.55320080E+00
   0.11800000E+01           0.55685390E+00
   0.11900000E+01           0.56070700E+00
   0.12000000E+01           0.56430840E+00
   0.12100000E+01           0.56830180E+00
   0.12200000E+01           0.57200280E+00
   0.12300000E+01           0.57572510E+00
   0.12400000E+01           0.57974240E+00
   0.12500000E+01           0.58369230E+00
   0.12600000E+01           0.58795640E+00
   0.12700000E+01           0.59169220E+00
   0.12800000E+01           0.59588080E+00
   0.12900000E+01           0.60020920E+00
   0.13000000E+01           0.60384350E+00
   0.13100000E+01           0.60805510E+00
   0.13200000E+01           0.61230810E+00
   0.13300000E+01           0.61611760E+00
   0.13400000E+01           0.62026150E+00
   0.13500000E+01           0.62423150E+00
   0.13600000E+01           0.62869530E+00
   0.13700000E+01           0.63326160E+00
   0.13800000E+01           0.63791390E+00
   0.13900000E+01           0.64164610E+00
   0.14000000E+01           0.64662010E+00
   0.14100000E+01           0.65100790E+00
   0.14200000E+01           0.65606030E+00
   0.14300000E+01           0.66035740E+00
   0.14400000E+01           0.66543610E+00
   0.14500000E+01           0.67031700E+00
   0.14600000E+01           0.67456990E+00
   0.14700000E+01           0.67963750E+00
   0.14800000E+01           0.68485050E+00
   0.14900000E+01           0.68980750E+00
   0.15000000E+01           0.69508290E+00
   0.15100000E+01           0.70029670E+00
   0.15200000E+01           0.70574600E+00
   0.15300000E+01           0.71206010E+00
   0.15400000E+01           0.71681590E+00
   0.15500000E+01           0.72264100E+00
   0.15600000E+01           0.72885510E+00
   0.15700000E+01           0.73458610E+00
   0.15800000E+01           0.73999890E+00
   0.15900000E+01           0.74642320E+00
   0.16000000E+01           0.75250200E+00
   0.16100000E+01           0.75880580E+00
   0.16200000E+01           0.76532270E+00
   0.16300000E+01           0.77254300E+00
   0.16400000E+01           0.77888140E+00
   0.16500000E+01           0.78599970E+00
   0.16600000E+01           0.79244640E+00
   0.16700000E+01           0.80000370E+00
   0.16800000E+01           0.80722030E+00
   0.16900000E+01           0.81466470E+00
   0.17000000E+01           0.82222500E+00
   0.17100000E+01           0.83023140E+00
   0.17200000E+01           0.83847830E+00
   0.17300000E+01           0.84625100E+00
   0.17400000E+01           0.85548250E+00
   0.17500000E+01           0.86275130E+00
   0.17600000E+01           0.87239030E+00
   0.17700000E+01           0.88115380E+00
   0.17800000E+01           0.88999570E+00
   0.17900000E+01           0.89981500E+00
   0.18000000E+01           0.90937550E+00
   0.18100000E+01           0.91909470E+00
   0.18200000E+01           0.92937130E+00
   0.18300000E+01           0.93988620E+00
   0.18400000E+01           0.94979440E+00
   0.18500000E+01           0.96036620E+00
   0.18600000E+01           0.97227750E+00
   0.18700000E+01           0.98377200E+00
   0.18800000E+01           0.99493690E+00
   0.18900000E+01           0.10074630E+01
   0.19000000E+01           0.10185020E+01
   0.19100000E+01           0.10314088E+01
   0.19200000E+01           0.10442804E+01
   0.19300000E+01           0.10573676E+01
   0.19400000E+01           0.10706675E+01
   0.19500000E+01           0.10850667E+01
   0.19600000E+01           0.10998376E+01
   0.19700000E+01           0.11135883E+01
   0.19800000E+01           0.11286189E+01
   0.19900000E+01           0.11440980E+01
   0.20000000E+01           0.57861700E+00
