 #written on  6Dec2024 at 17:07:29 
 #----------------------------------------------- MONTECARLO ---------------------------------------------------#
 # Temp      Magnetization     Energy_ave          C_M              Sus              U_E              U_M       #
 #--------------------------------------------------------------------------------------------------------------#
  46.0000   0.89308409E-02  -0.25997173E+03   0.12179563E+01   0.79852309E-03   0.66664125E+00   0.37045944E+00
  47.0000   0.90497036E-02  -0.25875932E+03   0.12299965E+01   0.79883727E-03   0.66663962E+00   0.37145739E+00
  48.0000   0.91432405E-02  -0.25752937E+03   0.12307279E+01   0.79517464E-03   0.66663817E+00   0.37255699E+00
  49.0000   0.92682066E-02  -0.25628440E+03   0.12446433E+01   0.79644554E-03   0.66663634E+00   0.37320704E+00
  50.0000   0.93870377E-02  -0.25504062E+03   0.12580454E+01   0.79583031E-03   0.66663444E+00   0.37478277E+00
  51.0000   0.94983083E-02  -0.25377479E+03   0.12643713E+01   0.79355017E-03   0.66663263E+00   0.37748895E+00
  52.0000   0.96176241E-02  -0.25250396E+03   0.12842281E+01   0.79520630E-03   0.66663037E+00   0.37781671E+00
  53.0000   0.97172444E-02  -0.25120950E+03   0.12910887E+01   0.79334696E-03   0.66662837E+00   0.37811840E+00
  54.0000   0.98488707E-02  -0.24991754E+03   0.13096286E+01   0.79490766E-03   0.66662592E+00   0.38106919E+00
  55.0000   0.99709044E-02  -0.24859739E+03   0.13223490E+01   0.79604631E-03   0.66662353E+00   0.38209806E+00
  56.0000   0.10077059E-01  -0.24727409E+03   0.13379978E+01   0.79483544E-03   0.66662093E+00   0.38336632E+00
  57.0000   0.10200634E-01  -0.24592013E+03   0.13568712E+01   0.79630029E-03   0.66661809E+00   0.38473095E+00
  58.0000   0.10320869E-01  -0.24455823E+03   0.13740187E+01   0.79490844E-03   0.66661516E+00   0.38630688E+00
  59.0000   0.10429012E-01  -0.24317529E+03   0.13952621E+01   0.79498512E-03   0.66661193E+00   0.38757045E+00
  60.0000   0.10566885E-01  -0.24176883E+03   0.14178029E+01   0.79479000E-03   0.66660848E+00   0.39055736E+00
  61.0000   0.10693839E-01  -0.24034030E+03   0.14322221E+01   0.79638500E-03   0.66660519E+00   0.39137655E+00
  62.0000   0.10815655E-01  -0.23889300E+03   0.14621874E+01   0.79856948E-03   0.66660104E+00   0.39283348E+00
  63.0000   0.10939271E-01  -0.23742922E+03   0.14893807E+01   0.79547878E-03   0.66659679E+00   0.39625064E+00
  64.0000   0.11063236E-01  -0.23592720E+03   0.15103711E+01   0.79682990E-03   0.66659261E+00   0.39702993E+00
  65.0000   0.11183993E-01  -0.23439229E+03   0.15414624E+01   0.79962712E-03   0.66658768E+00   0.39765886E+00
  66.0000   0.11327137E-01  -0.23283697E+03   0.15722537E+01   0.80016926E-03   0.66658249E+00   0.40062390E+00
  67.0000   0.11464003E-01  -0.23124708E+03   0.16082789E+01   0.80452617E-03   0.66657672E+00   0.40156924E+00
  68.0000   0.11597353E-01  -0.22961773E+03   0.16506578E+01   0.80433827E-03   0.66657022E+00   0.40373448E+00
  69.0000   0.11722314E-01  -0.22795288E+03   0.16850938E+01   0.80369916E-03   0.66656381E+00   0.40649996E+00
  70.0000   0.11874259E-01  -0.22624052E+03   0.17303475E+01   0.80624673E-03   0.66655631E+00   0.40862799E+00
  71.0000   0.12033779E-01  -0.22449331E+03   0.17854181E+01   0.81030787E-03   0.66654770E+00   0.41066835E+00
  72.0000   0.12169995E-01  -0.22268043E+03   0.18306381E+01   0.81242781E-03   0.66653918E+00   0.41261016E+00
  73.0000   0.12338494E-01  -0.22081514E+03   0.18912035E+01   0.81648371E-03   0.66652899E+00   0.41525452E+00
  74.0000   0.12500344E-01  -0.21888568E+03   0.19627137E+01   0.82004520E-03   0.66651726E+00   0.41772177E+00
  75.0000   0.12660845E-01  -0.21689153E+03   0.20356848E+01   0.82470969E-03   0.66650456E+00   0.41978886E+00
  76.0000   0.12834105E-01  -0.21480828E+03   0.21187833E+01   0.82921763E-03   0.66649005E+00   0.42172329E+00
  77.0000   0.12999580E-01  -0.21264037E+03   0.22241270E+01   0.83364731E-03   0.66647248E+00   0.42412603E+00
  78.0000   0.13192010E-01  -0.21034592E+03   0.23392946E+01   0.84472505E-03   0.66645252E+00   0.42532046E+00
  79.0000   0.13402415E-01  -0.20793362E+03   0.24855502E+01   0.85147060E-03   0.66642788E+00   0.42852529E+00
  80.0000   0.13584402E-01  -0.20535659E+03   0.26610723E+01   0.85914417E-03   0.66639793E+00   0.43055643E+00
  81.0000   0.13827969E-01  -0.20259816E+03   0.28960737E+01   0.87380060E-03   0.66635873E+00   0.43244837E+00
  82.0000   0.14066210E-01  -0.19954156E+03   0.32160984E+01   0.88326788E-03   0.66630554E+00   0.43576225E+00
  83.0000   0.14344923E-01  -0.19614755E+03   0.35983511E+01   0.90124424E-03   0.66623843E+00   0.43799322E+00
  84.0000   0.14642476E-01  -0.19231373E+03   0.40596900E+01   0.92263204E-03   0.66615199E+00   0.43981021E+00
  85.0000   0.14987071E-01  -0.18799905E+03   0.45805978E+01   0.95252306E-03   0.66604436E+00   0.44055860E+00
  86.0000   0.15350494E-01  -0.18317474E+03   0.49666648E+01   0.98067976E-03   0.66593853E+00   0.44278867E+00
  87.0000   0.15751807E-01  -0.17812999E+03   0.51137582E+01   0.10206541E-02   0.66585444E+00   0.44269302E+00
  88.0000   0.16124861E-01  -0.17311790E+03   0.48527560E+01   0.10525627E-02   0.66583030E+00   0.44404334E+00
  89.0000   0.16481832E-01  -0.16849294E+03   0.43375285E+01   0.10910421E-02   0.66585824E+00   0.44312376E+00
  90.0000   0.16785674E-01  -0.16446209E+03   0.37105637E+01   0.11190635E-02   0.66592381E+00   0.44301654E+00
  91.0000   0.17022258E-01  -0.16105888E+03   0.31261644E+01   0.11394684E-02   0.66599928E+00   0.44265092E+00
  92.0000   0.17247144E-01  -0.15821463E+03   0.26286268E+01   0.11591346E-02   0.66607221E+00   0.44223351E+00
  93.0000   0.17430719E-01  -0.15576884E+03   0.22342799E+01   0.11729811E-02   0.66613413E+00   0.44179772E+00
  94.0000   0.17577787E-01  -0.15369152E+03   0.19556592E+01   0.11838764E-02   0.66617774E+00   0.44088451E+00
  95.0000   0.17741834E-01  -0.15185897E+03   0.17311502E+01   0.11904869E-02   0.66621406E+00   0.44138726E+00
  96.0000   0.17838584E-01  -0.15021930E+03   0.15628768E+01   0.11900938E-02   0.66624038E+00   0.44102160E+00
  97.0000   0.17947825E-01  -0.14871962E+03   0.14338442E+01   0.11966185E-02   0.66625942E+00   0.44040992E+00
  98.0000   0.18054396E-01  -0.14734157E+03   0.13353692E+01   0.11975844E-02   0.66627232E+00   0.44051406E+00
  99.0000   0.18148799E-01  -0.14604288E+03   0.12465565E+01   0.11976988E-02   0.66628445E+00   0.44060139E+00
 100.0000   0.18230276E-01  -0.14483553E+03   0.11767269E+01   0.11996895E-02   0.66629240E+00   0.43972350E+00
 101.0000   0.18331032E-01  -0.14368267E+03   0.11202472E+01   0.12000998E-02   0.66629739E+00   0.43979546E+00
 102.0000   0.18402811E-01  -0.14259371E+03   0.10685190E+01   0.12014453E-02   0.66630200E+00   0.43928476E+00
 103.0000   0.18479406E-01  -0.14155978E+03   0.10238110E+01   0.11992579E-02   0.66630518E+00   0.43946264E+00
 104.0000   0.18533712E-01  -0.14055143E+03   0.98224731E+00   0.11939875E-02   0.66630803E+00   0.43895280E+00
 105.0000   0.18613098E-01  -0.13958687E+03   0.94853515E+00   0.11922889E-02   0.66630879E+00   0.43946528E+00
 106.0000   0.18685099E-01  -0.13865955E+03   0.91976354E+00   0.11902479E-02   0.66630825E+00   0.43941838E+00
 107.0000   0.18750497E-01  -0.13775519E+03   0.88774767E+00   0.11865798E-02   0.66630957E+00   0.43960136E+00
 108.0000   0.18801770E-01  -0.13687331E+03   0.86273424E+00   0.11857548E-02   0.66630854E+00   0.43869313E+00
 109.0000   0.18859611E-01  -0.13602451E+03   0.83861159E+00   0.11809734E-02   0.66630767E+00   0.43866906E+00
 110.0000   0.18921476E-01  -0.13519688E+03   0.81600482E+00   0.11773639E-02   0.66630654E+00   0.43931969E+00
 111.0000   0.18980794E-01  -0.13439403E+03   0.79453004E+00   0.11748316E-02   0.66630537E+00   0.43901118E+00
 112.0000   0.19033615E-01  -0.13361240E+03   0.77418922E+00   0.11716103E-02   0.66630402E+00   0.43883448E+00
 113.0000   0.19081118E-01  -0.13284693E+03   0.75747851E+00   0.11657596E-02   0.66630135E+00   0.43970028E+00
 114.0000   0.19133742E-01  -0.13209822E+03   0.73834361E+00   0.11587838E-02   0.66630013E+00   0.44008076E+00
 115.0000   0.19175791E-01  -0.13136271E+03   0.72398361E+00   0.11548799E-02   0.66629682E+00   0.43941437E+00
 116.0000   0.19233649E-01  -0.13065094E+03   0.70802144E+00   0.11552642E-02   0.66629467E+00   0.43874414E+00
 117.0000   0.19279587E-01  -0.12995515E+03   0.69207211E+00   0.11468083E-02   0.66629277E+00   0.43964625E+00
 118.0000   0.19320694E-01  -0.12926463E+03   0.67912658E+00   0.11416606E-02   0.66628951E+00   0.43965185E+00
 119.0000   0.19330090E-01  -0.12859681E+03   0.66344358E+00   0.11368481E-02   0.66628805E+00   0.43873580E+00
 120.0000   0.19385100E-01  -0.12794136E+03   0.65137154E+00   0.11309068E-02   0.66628475E+00   0.43948769E+00
 121.0000   0.19441128E-01  -0.12729002E+03   0.64021411E+00   0.11298843E-02   0.66628113E+00   0.43940023E+00
 122.0000   0.19461078E-01  -0.12665388E+03   0.62865596E+00   0.11264025E-02   0.66627791E+00   0.43808828E+00
 123.0000   0.19492529E-01  -0.12603352E+03   0.61531271E+00   0.11188669E-02   0.66627609E+00   0.43842909E+00
 124.0000   0.19541504E-01  -0.12542512E+03   0.60646904E+00   0.11141618E-02   0.66627165E+00   0.43877378E+00
 125.0000   0.19566703E-01  -0.12482397E+03   0.59661921E+00   0.11092707E-02   0.66626793E+00   0.43858957E+00
