 #written on 31Jul2024 at 20:06:06 
 #----------------- MONTECARLO -------------------#
 #        M                      P(M)             #
 #------------------------------------------------#
 #T=    21.0000
  -0.20000000E+01           0.00000000E+00
  -0.19900000E+01           0.00000000E+00
  -0.19800000E+01           0.00000000E+00
  -0.19700000E+01           0.00000000E+00
  -0.19600000E+01           0.00000000E+00
  -0.19500000E+01           0.00000000E+00
  -0.19400000E+01           0.00000000E+00
  -0.19300000E+01           0.00000000E+00
  -0.19200000E+01           0.00000000E+00
  -0.19100000E+01           0.00000000E+00
  -0.19000000E+01           0.00000000E+00
  -0.18900000E+01           0.00000000E+00
  -0.18800000E+01           0.00000000E+00
  -0.18700000E+01           0.00000000E+00
  -0.18600000E+01           0.00000000E+00
  -0.18500000E+01           0.00000000E+00
  -0.18400000E+01           0.00000000E+00
  -0.18300000E+01           0.00000000E+00
  -0.18200000E+01           0.00000000E+00
  -0.18100000E+01           0.00000000E+00
  -0.18000000E+01           0.00000000E+00
  -0.17900000E+01           0.00000000E+00
  -0.17800000E+01           0.00000000E+00
  -0.17700000E+01           0.00000000E+00
  -0.17600000E+01           0.00000000E+00
  -0.17500000E+01           0.00000000E+00
  -0.17400000E+01           0.00000000E+00
  -0.17300000E+01           0.00000000E+00
  -0.17200000E+01           0.00000000E+00
  -0.17100000E+01           0.00000000E+00
  -0.17000000E+01           0.00000000E+00
  -0.16900000E+01           0.00000000E+00
  -0.16800000E+01           0.00000000E+00
  -0.16700000E+01           0.00000000E+00
  -0.16600000E+01           0.00000000E+00
  -0.16500000E+01           0.00000000E+00
  -0.16400000E+01           0.00000000E+00
  -0.16300000E+01           0.00000000E+00
  -0.16200000E+01           0.00000000E+00
  -0.16100000E+01           0.00000000E+00
  -0.16000000E+01           0.00000000E+00
  -0.15900000E+01           0.00000000E+00
  -0.15800000E+01           0.00000000E+00
  -0.15700000E+01           0.00000000E+00
  -0.15600000E+01           0.00000000E+00
  -0.15500000E+01           0.00000000E+00
  -0.15400000E+01           0.00000000E+00
  -0.15300000E+01           0.00000000E+00
  -0.15200000E+01           0.00000000E+00
  -0.15100000E+01           0.00000000E+00
  -0.15000000E+01           0.00000000E+00
  -0.14900000E+01           0.00000000E+00
  -0.14800000E+01           0.00000000E+00
  -0.14700000E+01           0.00000000E+00
  -0.14600000E+01           0.00000000E+00
  -0.14500000E+01           0.00000000E+00
  -0.14400000E+01           0.00000000E+00
  -0.14300000E+01           0.00000000E+00
  -0.14200000E+01           0.00000000E+00
  -0.14100000E+01           0.00000000E+00
  -0.14000000E+01           0.00000000E+00
  -0.13900000E+01           0.00000000E+00
  -0.13800000E+01           0.00000000E+00
  -0.13700000E+01           0.00000000E+00
  -0.13600000E+01           0.00000000E+00
  -0.13500000E+01           0.00000000E+00
  -0.13400000E+01           0.00000000E+00
  -0.13300000E+01           0.00000000E+00
  -0.13200000E+01           0.00000000E+00
  -0.13100000E+01           0.00000000E+00
  -0.13000000E+01           0.00000000E+00
  -0.12900000E+01           0.00000000E+00
  -0.12800000E+01           0.00000000E+00
  -0.12700000E+01           0.00000000E+00
  -0.12600000E+01           0.00000000E+00
  -0.12500000E+01           0.00000000E+00
  -0.12400000E+01           0.00000000E+00
  -0.12300000E+01           0.00000000E+00
  -0.12200000E+01           0.00000000E+00
  -0.12100000E+01           0.00000000E+00
  -0.12000000E+01           0.00000000E+00
  -0.11900000E+01           0.00000000E+00
  -0.11800000E+01           0.00000000E+00
  -0.11700000E+01           0.00000000E+00
  -0.11600000E+01           0.00000000E+00
  -0.11500000E+01           0.00000000E+00
  -0.11400000E+01           0.00000000E+00
  -0.11300000E+01           0.00000000E+00
  -0.11200000E+01           0.00000000E+00
  -0.11100000E+01           0.00000000E+00
  -0.11000000E+01           0.00000000E+00
  -0.10900000E+01           0.00000000E+00
  -0.10800000E+01           0.00000000E+00
  -0.10700000E+01           0.00000000E+00
  -0.10600000E+01           0.00000000E+00
  -0.10500000E+01           0.00000000E+00
  -0.10400000E+01           0.00000000E+00
  -0.10300000E+01           0.00000000E+00
  -0.10200000E+01           0.00000000E+00
  -0.10100000E+01           0.00000000E+00
  -0.10000000E+01           0.00000000E+00
  -0.99000000E+00           0.00000000E+00
  -0.98000000E+00           0.00000000E+00
  -0.97000000E+00           0.00000000E+00
  -0.96000000E+00           0.00000000E+00
  -0.95000000E+00           0.00000000E+00
  -0.94000000E+00           0.00000000E+00
  -0.93000000E+00           0.00000000E+00
  -0.92000000E+00           0.00000000E+00
  -0.91000000E+00           0.00000000E+00
  -0.90000000E+00           0.00000000E+00
  -0.89000000E+00           0.00000000E+00
  -0.88000000E+00           0.00000000E+00
  -0.87000000E+00           0.00000000E+00
  -0.86000000E+00           0.00000000E+00
  -0.85000000E+00           0.00000000E+00
  -0.84000000E+00           0.00000000E+00
  -0.83000000E+00           0.00000000E+00
  -0.82000000E+00           0.00000000E+00
  -0.81000000E+00           0.00000000E+00
  -0.80000000E+00           0.00000000E+00
  -0.79000000E+00           0.00000000E+00
  -0.78000000E+00           0.00000000E+00
  -0.77000000E+00           0.00000000E+00
  -0.76000000E+00           0.00000000E+00
  -0.75000000E+00           0.00000000E+00
  -0.74000000E+00           0.00000000E+00
  -0.73000000E+00           0.00000000E+00
  -0.72000000E+00           0.00000000E+00
  -0.71000000E+00           0.00000000E+00
  -0.70000000E+00           0.00000000E+00
  -0.69000000E+00           0.00000000E+00
  -0.68000000E+00           0.00000000E+00
  -0.67000000E+00           0.00000000E+00
  -0.66000000E+00           0.00000000E+00
  -0.65000000E+00           0.00000000E+00
  -0.64000000E+00           0.00000000E+00
  -0.63000000E+00           0.00000000E+00
  -0.62000000E+00           0.00000000E+00
  -0.61000000E+00           0.00000000E+00
  -0.60000000E+00           0.00000000E+00
  -0.59000000E+00           0.00000000E+00
  -0.58000000E+00           0.00000000E+00
  -0.57000000E+00           0.00000000E+00
  -0.56000000E+00           0.00000000E+00
  -0.55000000E+00           0.00000000E+00
  -0.54000000E+00           0.00000000E+00
  -0.53000000E+00           0.00000000E+00
  -0.52000000E+00           0.00000000E+00
  -0.51000000E+00           0.00000000E+00
  -0.50000000E+00           0.00000000E+00
  -0.49000000E+00           0.00000000E+00
  -0.48000000E+00           0.00000000E+00
  -0.47000000E+00           0.00000000E+00
  -0.46000000E+00           0.00000000E+00
  -0.45000000E+00           0.00000000E+00
  -0.44000000E+00           0.00000000E+00
  -0.43000000E+00           0.00000000E+00
  -0.42000000E+00           0.00000000E+00
  -0.41000000E+00           0.00000000E+00
  -0.40000000E+00           0.00000000E+00
  -0.39000000E+00           0.00000000E+00
  -0.38000000E+00           0.00000000E+00
  -0.37000000E+00           0.00000000E+00
  -0.36000000E+00           0.00000000E+00
  -0.35000000E+00           0.00000000E+00
  -0.34000000E+00           0.00000000E+00
  -0.33000000E+00           0.00000000E+00
  -0.32000000E+00           0.00000000E+00
  -0.31000000E+00           0.00000000E+00
  -0.30000000E+00           0.00000000E+00
  -0.29000000E+00           0.00000000E+00
  -0.28000000E+00           0.00000000E+00
  -0.27000000E+00           0.00000000E+00
  -0.26000000E+00           0.00000000E+00
  -0.25000000E+00           0.00000000E+00
  -0.24000000E+00           0.00000000E+00
  -0.23000000E+00           0.00000000E+00
  -0.22000000E+00           0.00000000E+00
  -0.21000000E+00           0.00000000E+00
  -0.20000000E+00           0.00000000E+00
  -0.19000000E+00           0.00000000E+00
  -0.18000000E+00           0.00000000E+00
  -0.17000000E+00           0.00000000E+00
  -0.16000000E+00           0.00000000E+00
  -0.15000000E+00           0.00000000E+00
  -0.14000000E+00           0.00000000E+00
  -0.13000000E+00           0.00000000E+00
  -0.12000000E+00           0.00000000E+00
  -0.11000000E+00           0.00000000E+00
  -0.10000000E+00           0.00000000E+00
  -0.90000000E-01           0.00000000E+00
  -0.80000000E-01           0.00000000E+00
  -0.70000000E-01           0.00000000E+00
  -0.60000000E-01           0.00000000E+00
  -0.50000000E-01           0.00000000E+00
  -0.40000000E-01           0.00000000E+00
  -0.30000000E-01           0.00000000E+00
  -0.20000000E-01           0.00000000E+00
  -0.10000000E-01           0.00000000E+00
   0.00000000E+00           0.24095500E-02
   0.10000000E-01           0.19510744E-01
   0.20000000E-01           0.38720753E-01
   0.30000000E-01           0.58372544E-01
   0.40000000E-01           0.77138200E-01
   0.50000000E-01           0.96565106E-01
   0.60000000E-01           0.11547337E+00
   0.70000000E-01           0.13364233E+00
   0.80000000E-01           0.15244637E+00
   0.90000000E-01           0.17026795E+00
   0.10000000E+00           0.18735895E+00
   0.11000000E+00           0.20428163E+00
   0.12000000E+00           0.22134481E+00
   0.13000000E+00           0.23736731E+00
   0.14000000E+00           0.25390441E+00
   0.15000000E+00           0.26926731E+00
   0.16000000E+00           0.28355519E+00
   0.17000000E+00           0.29760882E+00
   0.18000000E+00           0.31182277E+00
   0.19000000E+00           0.32422700E+00
   0.20000000E+00           0.33704059E+00
   0.21000000E+00           0.34908035E+00
   0.22000000E+00           0.35964628E+00
   0.23000000E+00           0.37026731E+00
   0.24000000E+00           0.38003609E+00
   0.25000000E+00           0.38952388E+00
   0.26000000E+00           0.39816547E+00
   0.27000000E+00           0.40568567E+00
   0.28000000E+00           0.41285005E+00
   0.29000000E+00           0.41947870E+00
   0.30000000E+00           0.42561726E+00
   0.31000000E+00           0.43119688E+00
   0.32000000E+00           0.43606217E+00
   0.33000000E+00           0.43962195E+00
   0.34000000E+00           0.44334940E+00
   0.35000000E+00           0.44663177E+00
   0.36000000E+00           0.44867218E+00
   0.37000000E+00           0.44998512E+00
   0.38000000E+00           0.45122112E+00
   0.39000000E+00           0.45129054E+00
   0.40000000E+00           0.45258118E+00
   0.41000000E+00           0.45108494E+00
   0.42000000E+00           0.45051589E+00
   0.43000000E+00           0.44907355E+00
   0.44000000E+00           0.44752461E+00
   0.45000000E+00           0.44603186E+00
   0.46000000E+00           0.44292094E+00
   0.47000000E+00           0.43956795E+00
   0.48000000E+00           0.43616290E+00
   0.49000000E+00           0.43313912E+00
   0.50000000E+00           0.42800266E+00
   0.51000000E+00           0.42460083E+00
   0.52000000E+00           0.42027291E+00
   0.53000000E+00           0.41578650E+00
   0.54000000E+00           0.41051056E+00
   0.55000000E+00           0.40535978E+00
   0.56000000E+00           0.40044316E+00
   0.57000000E+00           0.39514601E+00
   0.58000000E+00           0.38938320E+00
   0.59000000E+00           0.38325877E+00
   0.60000000E+00           0.37757071E+00
   0.61000000E+00           0.37178650E+00
   0.62000000E+00           0.36651359E+00
   0.63000000E+00           0.35949504E+00
   0.64000000E+00           0.35413269E+00
   0.65000000E+00           0.34778007E+00
   0.66000000E+00           0.34179835E+00
   0.67000000E+00           0.33565032E+00
   0.68000000E+00           0.32940119E+00
   0.69000000E+00           0.32337870E+00
   0.70000000E+00           0.31685455E+00
   0.71000000E+00           0.31053361E+00
   0.72000000E+00           0.30438246E+00
   0.73000000E+00           0.29887484E+00
   0.74000000E+00           0.29285904E+00
   0.75000000E+00           0.28631983E+00
   0.76000000E+00           0.28008916E+00
   0.77000000E+00           0.27468972E+00
   0.78000000E+00           0.26941423E+00
   0.79000000E+00           0.26333370E+00
   0.80000000E+00           0.25781341E+00
   0.81000000E+00           0.25198852E+00
   0.82000000E+00           0.24692360E+00
   0.83000000E+00           0.24132736E+00
   0.84000000E+00           0.23574518E+00
   0.85000000E+00           0.23062057E+00
   0.86000000E+00           0.22540964E+00
   0.87000000E+00           0.22020046E+00
   0.88000000E+00           0.21493581E+00
   0.89000000E+00           0.21046676E+00
   0.90000000E+00           0.20584995E+00
   0.91000000E+00           0.20059761E+00
   0.92000000E+00           0.19584472E+00
   0.93000000E+00           0.19140900E+00
   0.94000000E+00           0.18746942E+00
   0.95000000E+00           0.18285657E+00
   0.96000000E+00           0.17798347E+00
   0.97000000E+00           0.17408439E+00
   0.98000000E+00           0.16996364E+00
   0.99000000E+00           0.16595730E+00
   0.10000000E+01           0.16237456E+00
   0.10100000E+01           0.15822231E+00
   0.10200000E+01           0.15463315E+00
   0.10300000E+01           0.15083802E+00
   0.10400000E+01           0.14778788E+00
   0.10500000E+01           0.14385197E+00
   0.10600000E+01           0.14035574E+00
   0.10700000E+01           0.13684105E+00
   0.10800000E+01           0.13364068E+00
   0.10900000E+01           0.13091414E+00
   0.11000000E+01           0.12786997E+00
   0.11100000E+01           0.12487254E+00
   0.11200000E+01           0.12138916E+00
   0.11300000E+01           0.11881671E+00
   0.11400000E+01           0.11615427E+00
   0.11500000E+01           0.11348788E+00
   0.11600000E+01           0.11119871E+00
   0.11700000E+01           0.10816667E+00
   0.11800000E+01           0.10539100E+00
   0.11900000E+01           0.10323866E+00
   0.12000000E+01           0.10132029E+00
   0.12100000E+01           0.99108540E-01
   0.12200000E+01           0.96911662E-01
   0.12300000E+01           0.95226263E-01
   0.12400000E+01           0.93114876E-01
   0.12500000E+01           0.91090634E-01
   0.12600000E+01           0.89183104E-01
   0.12700000E+01           0.87455188E-01
   0.12800000E+01           0.86220845E-01
   0.12900000E+01           0.84373186E-01
   0.13000000E+01           0.83019835E-01
   0.13100000E+01           0.81638017E-01
   0.13200000E+01           0.80504591E-01
   0.13300000E+01           0.79312672E-01
   0.13400000E+01           0.78266758E-01
   0.13500000E+01           0.77378421E-01
   0.13600000E+01           0.76588613E-01
   0.13700000E+01           0.75858494E-01
   0.13800000E+01           0.75246556E-01
   0.13900000E+01           0.74742516E-01
   0.14000000E+01           0.74536455E-01
   0.14100000E+01           0.74285767E-01
   0.14200000E+01           0.74424334E-01
   0.14300000E+01           0.74384573E-01
   0.14400000E+01           0.74527732E-01
   0.14500000E+01           0.75227456E-01
   0.14600000E+01           0.75759137E-01
   0.14700000E+01           0.76667401E-01
   0.14800000E+01           0.77548301E-01
   0.14900000E+01           0.79263545E-01
   0.15000000E+01           0.80816437E-01
   0.15100000E+01           0.82491093E-01
   0.15200000E+01           0.84418916E-01
   0.15300000E+01           0.86785491E-01
   0.15400000E+01           0.89932140E-01
   0.15500000E+01           0.93239027E-01
   0.15600000E+01           0.96699357E-01
   0.15700000E+01           0.10084178E+00
   0.15800000E+01           0.10544784E+00
   0.15900000E+01           0.11055005E+00
   0.16000000E+01           0.11615225E+00
   0.16100000E+01           0.12320927E+00
   0.16200000E+01           0.13010257E+00
   0.16300000E+01           0.13816290E+00
   0.16400000E+01           0.14743287E+00
   0.16500000E+01           0.15704463E+00
   0.16600000E+01           0.16873673E+00
   0.16700000E+01           0.18091892E+00
   0.16800000E+01           0.19496878E+00
   0.16900000E+01           0.21005152E+00
   0.17000000E+01           0.22820257E+00
   0.17100000E+01           0.24702590E+00
   0.17200000E+01           0.26910028E+00
   0.17300000E+01           0.29447337E+00
   0.17400000E+01           0.32114343E+00
   0.17500000E+01           0.35269715E+00
   0.17600000E+01           0.38731864E+00
   0.17700000E+01           0.42644904E+00
   0.17800000E+01           0.47252957E+00
   0.17900000E+01           0.52289522E+00
   0.18000000E+01           0.58090037E+00
   0.18100000E+01           0.64628907E+00
   0.18200000E+01           0.72213471E+00
   0.18300000E+01           0.80847851E+00
   0.18400000E+01           0.90733701E+00
   0.18500000E+01           0.10232921E+01
   0.18600000E+01           0.11561610E+01
   0.18700000E+01           0.13095435E+01
   0.18800000E+01           0.14912970E+01
   0.18900000E+01           0.17027199E+01
   0.19000000E+01           0.19524169E+01
   0.19100000E+01           0.22476372E+01
   0.19200000E+01           0.26005742E+01
   0.19300000E+01           0.30170409E+01
   0.19400000E+01           0.35206103E+01
   0.19500000E+01           0.41248508E+01
   0.19600000E+01           0.48560891E+01
   0.19700000E+01           0.57448233E+01
   0.19800000E+01           0.68345376E+01
   0.19900000E+01           0.81672536E+01
   0.20000000E+01           0.46785635E+01
 #T=    22.0000
  -0.20000000E+01           0.00000000E+00
  -0.19900000E+01           0.00000000E+00
  -0.19800000E+01           0.00000000E+00
  -0.19700000E+01           0.00000000E+00
  -0.19600000E+01           0.00000000E+00
  -0.19500000E+01           0.00000000E+00
  -0.19400000E+01           0.00000000E+00
  -0.19300000E+01           0.00000000E+00
  -0.19200000E+01           0.00000000E+00
  -0.19100000E+01           0.00000000E+00
  -0.19000000E+01           0.00000000E+00
  -0.18900000E+01           0.00000000E+00
  -0.18800000E+01           0.00000000E+00
  -0.18700000E+01           0.00000000E+00
  -0.18600000E+01           0.00000000E+00
  -0.18500000E+01           0.00000000E+00
  -0.18400000E+01           0.00000000E+00
  -0.18300000E+01           0.00000000E+00
  -0.18200000E+01           0.00000000E+00
  -0.18100000E+01           0.00000000E+00
  -0.18000000E+01           0.00000000E+00
  -0.17900000E+01           0.00000000E+00
  -0.17800000E+01           0.00000000E+00
  -0.17700000E+01           0.00000000E+00
  -0.17600000E+01           0.00000000E+00
  -0.17500000E+01           0.00000000E+00
  -0.17400000E+01           0.00000000E+00
  -0.17300000E+01           0.00000000E+00
  -0.17200000E+01           0.00000000E+00
  -0.17100000E+01           0.00000000E+00
  -0.17000000E+01           0.00000000E+00
  -0.16900000E+01           0.00000000E+00
  -0.16800000E+01           0.00000000E+00
  -0.16700000E+01           0.00000000E+00
  -0.16600000E+01           0.00000000E+00
  -0.16500000E+01           0.00000000E+00
  -0.16400000E+01           0.00000000E+00
  -0.16300000E+01           0.00000000E+00
  -0.16200000E+01           0.00000000E+00
  -0.16100000E+01           0.00000000E+00
  -0.16000000E+01           0.00000000E+00
  -0.15900000E+01           0.00000000E+00
  -0.15800000E+01           0.00000000E+00
  -0.15700000E+01           0.00000000E+00
  -0.15600000E+01           0.00000000E+00
  -0.15500000E+01           0.00000000E+00
  -0.15400000E+01           0.00000000E+00
  -0.15300000E+01           0.00000000E+00
  -0.15200000E+01           0.00000000E+00
  -0.15100000E+01           0.00000000E+00
  -0.15000000E+01           0.00000000E+00
  -0.14900000E+01           0.00000000E+00
  -0.14800000E+01           0.00000000E+00
  -0.14700000E+01           0.00000000E+00
  -0.14600000E+01           0.00000000E+00
  -0.14500000E+01           0.00000000E+00
  -0.14400000E+01           0.00000000E+00
  -0.14300000E+01           0.00000000E+00
  -0.14200000E+01           0.00000000E+00
  -0.14100000E+01           0.00000000E+00
  -0.14000000E+01           0.00000000E+00
  -0.13900000E+01           0.00000000E+00
  -0.13800000E+01           0.00000000E+00
  -0.13700000E+01           0.00000000E+00
  -0.13600000E+01           0.00000000E+00
  -0.13500000E+01           0.00000000E+00
  -0.13400000E+01           0.00000000E+00
  -0.13300000E+01           0.00000000E+00
  -0.13200000E+01           0.00000000E+00
  -0.13100000E+01           0.00000000E+00
  -0.13000000E+01           0.00000000E+00
  -0.12900000E+01           0.00000000E+00
  -0.12800000E+01           0.00000000E+00
  -0.12700000E+01           0.00000000E+00
  -0.12600000E+01           0.00000000E+00
  -0.12500000E+01           0.00000000E+00
  -0.12400000E+01           0.00000000E+00
  -0.12300000E+01           0.00000000E+00
  -0.12200000E+01           0.00000000E+00
  -0.12100000E+01           0.00000000E+00
  -0.12000000E+01           0.00000000E+00
  -0.11900000E+01           0.00000000E+00
  -0.11800000E+01           0.00000000E+00
  -0.11700000E+01           0.00000000E+00
  -0.11600000E+01           0.00000000E+00
  -0.11500000E+01           0.00000000E+00
  -0.11400000E+01           0.00000000E+00
  -0.11300000E+01           0.00000000E+00
  -0.11200000E+01           0.00000000E+00
  -0.11100000E+01           0.00000000E+00
  -0.11000000E+01           0.00000000E+00
  -0.10900000E+01           0.00000000E+00
  -0.10800000E+01           0.00000000E+00
  -0.10700000E+01           0.00000000E+00
  -0.10600000E+01           0.00000000E+00
  -0.10500000E+01           0.00000000E+00
  -0.10400000E+01           0.00000000E+00
  -0.10300000E+01           0.00000000E+00
  -0.10200000E+01           0.00000000E+00
  -0.10100000E+01           0.00000000E+00
  -0.10000000E+01           0.00000000E+00
  -0.99000000E+00           0.00000000E+00
  -0.98000000E+00           0.00000000E+00
  -0.97000000E+00           0.00000000E+00
  -0.96000000E+00           0.00000000E+00
  -0.95000000E+00           0.00000000E+00
  -0.94000000E+00           0.00000000E+00
  -0.93000000E+00           0.00000000E+00
  -0.92000000E+00           0.00000000E+00
  -0.91000000E+00           0.00000000E+00
  -0.90000000E+00           0.00000000E+00
  -0.89000000E+00           0.00000000E+00
  -0.88000000E+00           0.00000000E+00
  -0.87000000E+00           0.00000000E+00
  -0.86000000E+00           0.00000000E+00
  -0.85000000E+00           0.00000000E+00
  -0.84000000E+00           0.00000000E+00
  -0.83000000E+00           0.00000000E+00
  -0.82000000E+00           0.00000000E+00
  -0.81000000E+00           0.00000000E+00
  -0.80000000E+00           0.00000000E+00
  -0.79000000E+00           0.00000000E+00
  -0.78000000E+00           0.00000000E+00
  -0.77000000E+00           0.00000000E+00
  -0.76000000E+00           0.00000000E+00
  -0.75000000E+00           0.00000000E+00
  -0.74000000E+00           0.00000000E+00
  -0.73000000E+00           0.00000000E+00
  -0.72000000E+00           0.00000000E+00
  -0.71000000E+00           0.00000000E+00
  -0.70000000E+00           0.00000000E+00
  -0.69000000E+00           0.00000000E+00
  -0.68000000E+00           0.00000000E+00
  -0.67000000E+00           0.00000000E+00
  -0.66000000E+00           0.00000000E+00
  -0.65000000E+00           0.00000000E+00
  -0.64000000E+00           0.00000000E+00
  -0.63000000E+00           0.00000000E+00
  -0.62000000E+00           0.00000000E+00
  -0.61000000E+00           0.00000000E+00
  -0.60000000E+00           0.00000000E+00
  -0.59000000E+00           0.00000000E+00
  -0.58000000E+00           0.00000000E+00
  -0.57000000E+00           0.00000000E+00
  -0.56000000E+00           0.00000000E+00
  -0.55000000E+00           0.00000000E+00
  -0.54000000E+00           0.00000000E+00
  -0.53000000E+00           0.00000000E+00
  -0.52000000E+00           0.00000000E+00
  -0.51000000E+00           0.00000000E+00
  -0.50000000E+00           0.00000000E+00
  -0.49000000E+00           0.00000000E+00
  -0.48000000E+00           0.00000000E+00
  -0.47000000E+00           0.00000000E+00
  -0.46000000E+00           0.00000000E+00
  -0.45000000E+00           0.00000000E+00
  -0.44000000E+00           0.00000000E+00
  -0.43000000E+00           0.00000000E+00
  -0.42000000E+00           0.00000000E+00
  -0.41000000E+00           0.00000000E+00
  -0.40000000E+00           0.00000000E+00
  -0.39000000E+00           0.00000000E+00
  -0.38000000E+00           0.00000000E+00
  -0.37000000E+00           0.00000000E+00
  -0.36000000E+00           0.00000000E+00
  -0.35000000E+00           0.00000000E+00
  -0.34000000E+00           0.00000000E+00
  -0.33000000E+00           0.00000000E+00
  -0.32000000E+00           0.00000000E+00
  -0.31000000E+00           0.00000000E+00
  -0.30000000E+00           0.00000000E+00
  -0.29000000E+00           0.00000000E+00
  -0.28000000E+00           0.00000000E+00
  -0.27000000E+00           0.00000000E+00
  -0.26000000E+00           0.00000000E+00
  -0.25000000E+00           0.00000000E+00
  -0.24000000E+00           0.00000000E+00
  -0.23000000E+00           0.00000000E+00
  -0.22000000E+00           0.00000000E+00
  -0.21000000E+00           0.00000000E+00
  -0.20000000E+00           0.00000000E+00
  -0.19000000E+00           0.00000000E+00
  -0.18000000E+00           0.00000000E+00
  -0.17000000E+00           0.00000000E+00
  -0.16000000E+00           0.00000000E+00
  -0.15000000E+00           0.00000000E+00
  -0.14000000E+00           0.00000000E+00
  -0.13000000E+00           0.00000000E+00
  -0.12000000E+00           0.00000000E+00
  -0.11000000E+00           0.00000000E+00
  -0.10000000E+00           0.00000000E+00
  -0.90000000E-01           0.00000000E+00
  -0.80000000E-01           0.00000000E+00
  -0.70000000E-01           0.00000000E+00
  -0.60000000E-01           0.00000000E+00
  -0.50000000E-01           0.00000000E+00
  -0.40000000E-01           0.00000000E+00
  -0.30000000E-01           0.00000000E+00
  -0.20000000E-01           0.00000000E+00
  -0.10000000E-01           0.00000000E+00
   0.00000000E+00           0.22676768E-02
   0.10000000E-01           0.18010836E-01
   0.20000000E-01           0.36189348E-01
   0.30000000E-01           0.54267218E-01
   0.40000000E-01           0.72237098E-01
   0.50000000E-01           0.90005969E-01
   0.60000000E-01           0.10696832E+00
   0.70000000E-01           0.12491258E+00
   0.80000000E-01           0.14177062E+00
   0.90000000E-01           0.15918292E+00
   0.10000000E+00           0.17535115E+00
   0.11000000E+00           0.19183930E+00
   0.12000000E+00           0.20725161E+00
   0.13000000E+00           0.22299890E+00
   0.14000000E+00           0.23818751E+00
   0.15000000E+00           0.25249881E+00
   0.16000000E+00           0.26569164E+00
   0.17000000E+00           0.27951662E+00
   0.18000000E+00           0.29302479E+00
   0.19000000E+00           0.30542700E+00
   0.20000000E+00           0.31650992E+00
   0.21000000E+00           0.32906961E+00
   0.22000000E+00           0.33889054E+00
   0.23000000E+00           0.34982048E+00
   0.24000000E+00           0.35974252E+00
   0.25000000E+00           0.36806501E+00
   0.26000000E+00           0.37682580E+00
   0.27000000E+00           0.38469725E+00
   0.28000000E+00           0.39252837E+00
   0.29000000E+00           0.39823030E+00
   0.30000000E+00           0.40487961E+00
   0.31000000E+00           0.40957163E+00
   0.32000000E+00           0.41494986E+00
   0.33000000E+00           0.41798191E+00
   0.34000000E+00           0.42244527E+00
   0.35000000E+00           0.42539054E+00
   0.36000000E+00           0.42875197E+00
   0.37000000E+00           0.43067365E+00
   0.38000000E+00           0.43206051E+00
   0.39000000E+00           0.43283627E+00
   0.40000000E+00           0.43373701E+00
   0.41000000E+00           0.43345583E+00
   0.42000000E+00           0.43385344E+00
   0.43000000E+00           0.43283242E+00
   0.44000000E+00           0.43177181E+00
   0.45000000E+00           0.42940073E+00
   0.46000000E+00           0.42793453E+00
   0.47000000E+00           0.42503287E+00
   0.48000000E+00           0.42216327E+00
   0.49000000E+00           0.41985978E+00
   0.50000000E+00           0.41615207E+00
   0.51000000E+00           0.41259017E+00
   0.52000000E+00           0.40915877E+00
   0.53000000E+00           0.40443425E+00
   0.54000000E+00           0.40068972E+00
   0.55000000E+00           0.39624619E+00
   0.56000000E+00           0.39146722E+00
   0.57000000E+00           0.38646079E+00
   0.58000000E+00           0.38204169E+00
   0.59000000E+00           0.37643820E+00
   0.60000000E+00           0.37086731E+00
   0.61000000E+00           0.36570073E+00
   0.62000000E+00           0.36039587E+00
   0.63000000E+00           0.35505253E+00
   0.64000000E+00           0.34827208E+00
   0.65000000E+00           0.34322378E+00
   0.66000000E+00           0.33755684E+00
   0.67000000E+00           0.33258292E+00
   0.68000000E+00           0.32580707E+00
   0.69000000E+00           0.32085078E+00
   0.70000000E+00           0.31455868E+00
   0.71000000E+00           0.30919017E+00
   0.72000000E+00           0.30342975E+00
   0.73000000E+00           0.29753177E+00
   0.74000000E+00           0.29194261E+00
   0.75000000E+00           0.28656621E+00
   0.76000000E+00           0.28093177E+00
   0.77000000E+00           0.27477713E+00
   0.78000000E+00           0.26930882E+00
   0.79000000E+00           0.26434683E+00
   0.80000000E+00           0.25873444E+00
   0.81000000E+00           0.25314628E+00
   0.82000000E+00           0.24857824E+00
   0.83000000E+00           0.24314977E+00
   0.84000000E+00           0.23779807E+00
   0.85000000E+00           0.23290156E+00
   0.86000000E+00           0.22741680E+00
   0.87000000E+00           0.22308228E+00
   0.88000000E+00           0.21813719E+00
   0.89000000E+00           0.21336208E+00
   0.90000000E+00           0.20844876E+00
   0.91000000E+00           0.20421120E+00
   0.92000000E+00           0.19899403E+00
   0.93000000E+00           0.19512011E+00
   0.94000000E+00           0.19032498E+00
   0.95000000E+00           0.18635014E+00
   0.96000000E+00           0.18211093E+00
   0.97000000E+00           0.17811341E+00
   0.98000000E+00           0.17421194E+00
   0.99000000E+00           0.17063030E+00
   0.10000000E+01           0.16627796E+00
   0.10100000E+01           0.16274619E+00
   0.10200000E+01           0.15871331E+00
   0.10300000E+01           0.15530432E+00
   0.10400000E+01           0.15176235E+00
   0.10500000E+01           0.14820404E+00
   0.10600000E+01           0.14510404E+00
   0.10700000E+01           0.14157484E+00
   0.10800000E+01           0.13861377E+00
   0.10900000E+01           0.13521809E+00
   0.11000000E+01           0.13249532E+00
   0.11100000E+01           0.12938871E+00
   0.11200000E+01           0.12650459E+00
   0.11300000E+01           0.12372287E+00
   0.11400000E+01           0.12090165E+00
   0.11500000E+01           0.11873388E+00
   0.11600000E+01           0.11587796E+00
   0.11700000E+01           0.11351579E+00
   0.11800000E+01           0.11112332E+00
   0.11900000E+01           0.10876722E+00
   0.12000000E+01           0.10658825E+00
   0.12100000E+01           0.10411313E+00
   0.12200000E+01           0.10232847E+00
   0.12300000E+01           0.10037282E+00
   0.12400000E+01           0.98231313E-01
   0.12500000E+01           0.96513039E-01
   0.12600000E+01           0.94424426E-01
   0.12700000E+01           0.93153811E-01
   0.12800000E+01           0.91568503E-01
   0.12900000E+01           0.90440404E-01
   0.13000000E+01           0.88629201E-01
   0.13100000E+01           0.87646556E-01
   0.13200000E+01           0.86632231E-01
   0.13300000E+01           0.85455096E-01
   0.13400000E+01           0.84253168E-01
   0.13500000E+01           0.83498347E-01
   0.13600000E+01           0.82802479E-01
   0.13700000E+01           0.82468962E-01
   0.13800000E+01           0.82024793E-01
   0.13900000E+01           0.81413958E-01
   0.14000000E+01           0.81468871E-01
   0.14100000E+01           0.81444720E-01
   0.14200000E+01           0.81502296E-01
   0.14300000E+01           0.81919651E-01
   0.14400000E+01           0.82607622E-01
   0.14500000E+01           0.83221396E-01
   0.14600000E+01           0.84056015E-01
   0.14700000E+01           0.84893664E-01
   0.14800000E+01           0.86224151E-01
   0.14900000E+01           0.87942332E-01
   0.15000000E+01           0.89890909E-01
   0.15100000E+01           0.92156290E-01
   0.15200000E+01           0.94365840E-01
   0.15300000E+01           0.97355739E-01
   0.15400000E+01           0.10063682E+00
   0.15500000E+01           0.10428421E+00
   0.15600000E+01           0.10885041E+00
   0.15700000E+01           0.11314298E+00
   0.15800000E+01           0.11816428E+00
   0.15900000E+01           0.12389871E+00
   0.16000000E+01           0.13044968E+00
   0.16100000E+01           0.13769458E+00
   0.16200000E+01           0.14582066E+00
   0.16300000E+01           0.15431249E+00
   0.16400000E+01           0.16396107E+00
   0.16500000E+01           0.17513545E+00
   0.16600000E+01           0.18755758E+00
   0.16700000E+01           0.20108659E+00
   0.16800000E+01           0.21592544E+00
   0.16900000E+01           0.23259605E+00
   0.17000000E+01           0.25160542E+00
   0.17100000E+01           0.27271497E+00
   0.17200000E+01           0.29607759E+00
   0.17300000E+01           0.32198062E+00
   0.17400000E+01           0.35127612E+00
   0.17500000E+01           0.38400955E+00
   0.17600000E+01           0.42070037E+00
   0.17700000E+01           0.46259954E+00
   0.17800000E+01           0.50949715E+00
   0.17900000E+01           0.56187392E+00
   0.18000000E+01           0.62253333E+00
   0.18100000E+01           0.69132984E+00
   0.18200000E+01           0.76846657E+00
   0.18300000E+01           0.85824904E+00
   0.18400000E+01           0.95956097E+00
   0.18500000E+01           0.10759354E+01
   0.18600000E+01           0.12126066E+01
   0.18700000E+01           0.13674514E+01
   0.18800000E+01           0.15493485E+01
   0.18900000E+01           0.17611431E+01
   0.19000000E+01           0.20098051E+01
   0.19100000E+01           0.23020360E+01
   0.19200000E+01           0.26478734E+01
   0.19300000E+01           0.30511331E+01
   0.19400000E+01           0.35380562E+01
   0.19500000E+01           0.41177807E+01
   0.19600000E+01           0.48158374E+01
   0.19700000E+01           0.56515079E+01
   0.19800000E+01           0.66705253E+01
   0.19900000E+01           0.79104065E+01
   0.20000000E+01           0.45014450E+01
 #T=    23.0000
  -0.20000000E+01           0.00000000E+00
  -0.19900000E+01           0.00000000E+00
  -0.19800000E+01           0.00000000E+00
  -0.19700000E+01           0.00000000E+00
  -0.19600000E+01           0.00000000E+00
  -0.19500000E+01           0.00000000E+00
  -0.19400000E+01           0.00000000E+00
  -0.19300000E+01           0.00000000E+00
  -0.19200000E+01           0.00000000E+00
  -0.19100000E+01           0.00000000E+00
  -0.19000000E+01           0.00000000E+00
  -0.18900000E+01           0.00000000E+00
  -0.18800000E+01           0.00000000E+00
  -0.18700000E+01           0.00000000E+00
  -0.18600000E+01           0.00000000E+00
  -0.18500000E+01           0.00000000E+00
  -0.18400000E+01           0.00000000E+00
  -0.18300000E+01           0.00000000E+00
  -0.18200000E+01           0.00000000E+00
  -0.18100000E+01           0.00000000E+00
  -0.18000000E+01           0.00000000E+00
  -0.17900000E+01           0.00000000E+00
  -0.17800000E+01           0.00000000E+00
  -0.17700000E+01           0.00000000E+00
  -0.17600000E+01           0.00000000E+00
  -0.17500000E+01           0.00000000E+00
  -0.17400000E+01           0.00000000E+00
  -0.17300000E+01           0.00000000E+00
  -0.17200000E+01           0.00000000E+00
  -0.17100000E+01           0.00000000E+00
  -0.17000000E+01           0.00000000E+00
  -0.16900000E+01           0.00000000E+00
  -0.16800000E+01           0.00000000E+00
  -0.16700000E+01           0.00000000E+00
  -0.16600000E+01           0.00000000E+00
  -0.16500000E+01           0.00000000E+00
  -0.16400000E+01           0.00000000E+00
  -0.16300000E+01           0.00000000E+00
  -0.16200000E+01           0.00000000E+00
  -0.16100000E+01           0.00000000E+00
  -0.16000000E+01           0.00000000E+00
  -0.15900000E+01           0.00000000E+00
  -0.15800000E+01           0.00000000E+00
  -0.15700000E+01           0.00000000E+00
  -0.15600000E+01           0.00000000E+00
  -0.15500000E+01           0.00000000E+00
  -0.15400000E+01           0.00000000E+00
  -0.15300000E+01           0.00000000E+00
  -0.15200000E+01           0.00000000E+00
  -0.15100000E+01           0.00000000E+00
  -0.15000000E+01           0.00000000E+00
  -0.14900000E+01           0.00000000E+00
  -0.14800000E+01           0.00000000E+00
  -0.14700000E+01           0.00000000E+00
  -0.14600000E+01           0.00000000E+00
  -0.14500000E+01           0.00000000E+00
  -0.14400000E+01           0.00000000E+00
  -0.14300000E+01           0.00000000E+00
  -0.14200000E+01           0.00000000E+00
  -0.14100000E+01           0.00000000E+00
  -0.14000000E+01           0.00000000E+00
  -0.13900000E+01           0.00000000E+00
  -0.13800000E+01           0.00000000E+00
  -0.13700000E+01           0.00000000E+00
  -0.13600000E+01           0.00000000E+00
  -0.13500000E+01           0.00000000E+00
  -0.13400000E+01           0.00000000E+00
  -0.13300000E+01           0.00000000E+00
  -0.13200000E+01           0.00000000E+00
  -0.13100000E+01           0.00000000E+00
  -0.13000000E+01           0.00000000E+00
  -0.12900000E+01           0.00000000E+00
  -0.12800000E+01           0.00000000E+00
  -0.12700000E+01           0.00000000E+00
  -0.12600000E+01           0.00000000E+00
  -0.12500000E+01           0.00000000E+00
  -0.12400000E+01           0.00000000E+00
  -0.12300000E+01           0.00000000E+00
  -0.12200000E+01           0.00000000E+00
  -0.12100000E+01           0.00000000E+00
  -0.12000000E+01           0.00000000E+00
  -0.11900000E+01           0.00000000E+00
  -0.11800000E+01           0.00000000E+00
  -0.11700000E+01           0.00000000E+00
  -0.11600000E+01           0.00000000E+00
  -0.11500000E+01           0.00000000E+00
  -0.11400000E+01           0.00000000E+00
  -0.11300000E+01           0.00000000E+00
  -0.11200000E+01           0.00000000E+00
  -0.11100000E+01           0.00000000E+00
  -0.11000000E+01           0.00000000E+00
  -0.10900000E+01           0.00000000E+00
  -0.10800000E+01           0.00000000E+00
  -0.10700000E+01           0.00000000E+00
  -0.10600000E+01           0.00000000E+00
  -0.10500000E+01           0.00000000E+00
  -0.10400000E+01           0.00000000E+00
  -0.10300000E+01           0.00000000E+00
  -0.10200000E+01           0.00000000E+00
  -0.10100000E+01           0.00000000E+00
  -0.10000000E+01           0.00000000E+00
  -0.99000000E+00           0.00000000E+00
  -0.98000000E+00           0.00000000E+00
  -0.97000000E+00           0.00000000E+00
  -0.96000000E+00           0.00000000E+00
  -0.95000000E+00           0.00000000E+00
  -0.94000000E+00           0.00000000E+00
  -0.93000000E+00           0.00000000E+00
  -0.92000000E+00           0.00000000E+00
  -0.91000000E+00           0.00000000E+00
  -0.90000000E+00           0.00000000E+00
  -0.89000000E+00           0.00000000E+00
  -0.88000000E+00           0.00000000E+00
  -0.87000000E+00           0.00000000E+00
  -0.86000000E+00           0.00000000E+00
  -0.85000000E+00           0.00000000E+00
  -0.84000000E+00           0.00000000E+00
  -0.83000000E+00           0.00000000E+00
  -0.82000000E+00           0.00000000E+00
  -0.81000000E+00           0.00000000E+00
  -0.80000000E+00           0.00000000E+00
  -0.79000000E+00           0.00000000E+00
  -0.78000000E+00           0.00000000E+00
  -0.77000000E+00           0.00000000E+00
  -0.76000000E+00           0.00000000E+00
  -0.75000000E+00           0.00000000E+00
  -0.74000000E+00           0.00000000E+00
  -0.73000000E+00           0.00000000E+00
  -0.72000000E+00           0.00000000E+00
  -0.71000000E+00           0.00000000E+00
  -0.70000000E+00           0.00000000E+00
  -0.69000000E+00           0.00000000E+00
  -0.68000000E+00           0.00000000E+00
  -0.67000000E+00           0.00000000E+00
  -0.66000000E+00           0.00000000E+00
  -0.65000000E+00           0.00000000E+00
  -0.64000000E+00           0.00000000E+00
  -0.63000000E+00           0.00000000E+00
  -0.62000000E+00           0.00000000E+00
  -0.61000000E+00           0.00000000E+00
  -0.60000000E+00           0.00000000E+00
  -0.59000000E+00           0.00000000E+00
  -0.58000000E+00           0.00000000E+00
  -0.57000000E+00           0.00000000E+00
  -0.56000000E+00           0.00000000E+00
  -0.55000000E+00           0.00000000E+00
  -0.54000000E+00           0.00000000E+00
  -0.53000000E+00           0.00000000E+00
  -0.52000000E+00           0.00000000E+00
  -0.51000000E+00           0.00000000E+00
  -0.50000000E+00           0.00000000E+00
  -0.49000000E+00           0.00000000E+00
  -0.48000000E+00           0.00000000E+00
  -0.47000000E+00           0.00000000E+00
  -0.46000000E+00           0.00000000E+00
  -0.45000000E+00           0.00000000E+00
  -0.44000000E+00           0.00000000E+00
  -0.43000000E+00           0.00000000E+00
  -0.42000000E+00           0.00000000E+00
  -0.41000000E+00           0.00000000E+00
  -0.40000000E+00           0.00000000E+00
  -0.39000000E+00           0.00000000E+00
  -0.38000000E+00           0.00000000E+00
  -0.37000000E+00           0.00000000E+00
  -0.36000000E+00           0.00000000E+00
  -0.35000000E+00           0.00000000E+00
  -0.34000000E+00           0.00000000E+00
  -0.33000000E+00           0.00000000E+00
  -0.32000000E+00           0.00000000E+00
  -0.31000000E+00           0.00000000E+00
  -0.30000000E+00           0.00000000E+00
  -0.29000000E+00           0.00000000E+00
  -0.28000000E+00           0.00000000E+00
  -0.27000000E+00           0.00000000E+00
  -0.26000000E+00           0.00000000E+00
  -0.25000000E+00           0.00000000E+00
  -0.24000000E+00           0.00000000E+00
  -0.23000000E+00           0.00000000E+00
  -0.22000000E+00           0.00000000E+00
  -0.21000000E+00           0.00000000E+00
  -0.20000000E+00           0.00000000E+00
  -0.19000000E+00           0.00000000E+00
  -0.18000000E+00           0.00000000E+00
  -0.17000000E+00           0.00000000E+00
  -0.16000000E+00           0.00000000E+00
  -0.15000000E+00           0.00000000E+00
  -0.14000000E+00           0.00000000E+00
  -0.13000000E+00           0.00000000E+00
  -0.12000000E+00           0.00000000E+00
  -0.11000000E+00           0.00000000E+00
  -0.10000000E+00           0.00000000E+00
  -0.90000000E-01           0.00000000E+00
  -0.80000000E-01           0.00000000E+00
  -0.70000000E-01           0.00000000E+00
  -0.60000000E-01           0.00000000E+00
  -0.50000000E-01           0.00000000E+00
  -0.40000000E-01           0.00000000E+00
  -0.30000000E-01           0.00000000E+00
  -0.20000000E-01           0.00000000E+00
  -0.10000000E-01           0.00000000E+00
   0.00000000E+00           0.21250689E-02
   0.10000000E-01           0.17190909E-01
   0.20000000E-01           0.34405601E-01
   0.30000000E-01           0.51391001E-01
   0.40000000E-01           0.68336639E-01
   0.50000000E-01           0.85275298E-01
   0.60000000E-01           0.10189761E+00
   0.70000000E-01           0.11821570E+00
   0.80000000E-01           0.13473967E+00
   0.90000000E-01           0.15060450E+00
   0.10000000E+00           0.16606208E+00
   0.11000000E+00           0.18187052E+00
   0.12000000E+00           0.19675721E+00
   0.13000000E+00           0.21158072E+00
   0.14000000E+00           0.22595960E+00
   0.15000000E+00           0.23978053E+00
   0.16000000E+00           0.25260597E+00
   0.17000000E+00           0.26589881E+00
   0.18000000E+00           0.27916795E+00
   0.19000000E+00           0.29053820E+00
   0.20000000E+00           0.30173848E+00
   0.21000000E+00           0.31416400E+00
   0.22000000E+00           0.32349164E+00
   0.23000000E+00           0.33392736E+00
   0.24000000E+00           0.34307741E+00
   0.25000000E+00           0.35182819E+00
   0.26000000E+00           0.36033471E+00
   0.27000000E+00           0.36772176E+00
   0.28000000E+00           0.37474775E+00
   0.29000000E+00           0.38156924E+00
   0.30000000E+00           0.38771717E+00
   0.31000000E+00           0.39287815E+00
   0.32000000E+00           0.39895014E+00
   0.33000000E+00           0.40373462E+00
   0.34000000E+00           0.40709945E+00
   0.35000000E+00           0.41100376E+00
   0.36000000E+00           0.41334518E+00
   0.37000000E+00           0.41600073E+00
   0.38000000E+00           0.41808264E+00
   0.39000000E+00           0.41896786E+00
   0.40000000E+00           0.41984665E+00
   0.41000000E+00           0.42026556E+00
   0.42000000E+00           0.42083067E+00
   0.43000000E+00           0.42071570E+00
   0.44000000E+00           0.41991276E+00
   0.45000000E+00           0.41870588E+00
   0.46000000E+00           0.41731846E+00
   0.47000000E+00           0.41530386E+00
   0.48000000E+00           0.41334591E+00
   0.49000000E+00           0.41076694E+00
   0.50000000E+00           0.40814454E+00
   0.51000000E+00           0.40558871E+00
   0.52000000E+00           0.40198439E+00
   0.53000000E+00           0.39852231E+00
   0.54000000E+00           0.39503691E+00
   0.55000000E+00           0.39073039E+00
   0.56000000E+00           0.38595996E+00
   0.57000000E+00           0.38192397E+00
   0.58000000E+00           0.37744490E+00
   0.59000000E+00           0.37289275E+00
   0.60000000E+00           0.36849624E+00
   0.61000000E+00           0.36299146E+00
   0.62000000E+00           0.35841680E+00
   0.63000000E+00           0.35319835E+00
   0.64000000E+00           0.34835528E+00
   0.65000000E+00           0.34264545E+00
   0.66000000E+00           0.33722250E+00
   0.67000000E+00           0.33217254E+00
   0.68000000E+00           0.32665510E+00
   0.69000000E+00           0.32068999E+00
   0.70000000E+00           0.31582672E+00
   0.71000000E+00           0.31072066E+00
   0.72000000E+00           0.30511919E+00
   0.73000000E+00           0.29943306E+00
   0.74000000E+00           0.29386272E+00
   0.75000000E+00           0.28901772E+00
   0.76000000E+00           0.28350046E+00
   0.77000000E+00           0.27784803E+00
   0.78000000E+00           0.27259385E+00
   0.79000000E+00           0.26732755E+00
   0.80000000E+00           0.26201837E+00
   0.81000000E+00           0.25684757E+00
   0.82000000E+00           0.25188154E+00
   0.83000000E+00           0.24662810E+00
   0.84000000E+00           0.24173095E+00
   0.85000000E+00           0.23712782E+00
   0.86000000E+00           0.23207870E+00
   0.87000000E+00           0.22698549E+00
   0.88000000E+00           0.22275473E+00
   0.89000000E+00           0.21770762E+00
   0.90000000E+00           0.21345106E+00
   0.91000000E+00           0.20841579E+00
   0.92000000E+00           0.20419376E+00
   0.93000000E+00           0.20007934E+00
   0.94000000E+00           0.19538577E+00
   0.95000000E+00           0.19129421E+00
   0.96000000E+00           0.18733737E+00
   0.97000000E+00           0.18343994E+00
   0.98000000E+00           0.17946878E+00
   0.99000000E+00           0.17560670E+00
   0.10000000E+01           0.17188044E+00
   0.10100000E+01           0.16809853E+00
   0.10200000E+01           0.16459118E+00
   0.10300000E+01           0.16110055E+00
   0.10400000E+01           0.15749219E+00
   0.10500000E+01           0.15394720E+00
   0.10600000E+01           0.15060138E+00
   0.10700000E+01           0.14738127E+00
   0.10800000E+01           0.14424738E+00
   0.10900000E+01           0.14145941E+00
   0.11000000E+01           0.13824151E+00
   0.11100000E+01           0.13555730E+00
   0.11200000E+01           0.13209862E+00
   0.11300000E+01           0.12926896E+00
   0.11400000E+01           0.12723930E+00
   0.11500000E+01           0.12408466E+00
   0.11600000E+01           0.12201598E+00
   0.11700000E+01           0.11957594E+00
   0.11800000E+01           0.11672048E+00
   0.11900000E+01           0.11408127E+00
   0.12000000E+01           0.11219320E+00
   0.12100000E+01           0.11019541E+00
   0.12200000E+01           0.10833747E+00
   0.12300000E+01           0.10635014E+00
   0.12400000E+01           0.10451846E+00
   0.12500000E+01           0.10269936E+00
   0.12600000E+01           0.10110680E+00
   0.12700000E+01           0.99348944E-01
   0.12800000E+01           0.97978145E-01
   0.12900000E+01           0.96837282E-01
   0.13000000E+01           0.95541965E-01
   0.13100000E+01           0.93999541E-01
   0.13200000E+01           0.93116804E-01
   0.13300000E+01           0.92225895E-01
   0.13400000E+01           0.91273462E-01
   0.13500000E+01           0.90505051E-01
   0.13600000E+01           0.89666942E-01
   0.13700000E+01           0.89523875E-01
   0.13800000E+01           0.89285124E-01
   0.13900000E+01           0.88918090E-01
   0.14000000E+01           0.88920845E-01
   0.14100000E+01           0.88989991E-01
   0.14200000E+01           0.89260790E-01
   0.14300000E+01           0.89969605E-01
   0.14400000E+01           0.90443893E-01
   0.14500000E+01           0.91629385E-01
   0.14600000E+01           0.92547842E-01
   0.14700000E+01           0.93985399E-01
   0.14800000E+01           0.95506152E-01
   0.14900000E+01           0.97668962E-01
   0.15000000E+01           0.99504040E-01
   0.15100000E+01           0.10187750E+00
   0.15200000E+01           0.10487640E+00
   0.15300000E+01           0.10808843E+00
   0.15400000E+01           0.11183535E+00
   0.15500000E+01           0.11594242E+00
   0.15600000E+01           0.12036988E+00
   0.15700000E+01           0.12541120E+00
   0.15800000E+01           0.13105739E+00
   0.15900000E+01           0.13756933E+00
   0.16000000E+01           0.14427144E+00
   0.16100000E+01           0.15209587E+00
   0.16200000E+01           0.16111203E+00
   0.16300000E+01           0.17055758E+00
   0.16400000E+01           0.18106391E+00
   0.16500000E+01           0.19305960E+00
   0.16600000E+01           0.20609164E+00
   0.16700000E+01           0.22056446E+00
   0.16800000E+01           0.23672975E+00
   0.16900000E+01           0.25402902E+00
   0.17000000E+01           0.27443480E+00
   0.17100000E+01           0.29688219E+00
   0.17200000E+01           0.32137309E+00
   0.17300000E+01           0.34846850E+00
   0.17400000E+01           0.37916869E+00
   0.17500000E+01           0.41279596E+00
   0.17600000E+01           0.45136951E+00
   0.17700000E+01           0.49531745E+00
   0.17800000E+01           0.54328209E+00
   0.17900000E+01           0.59834931E+00
   0.18000000E+01           0.66034242E+00
   0.18100000E+01           0.72957622E+00
   0.18200000E+01           0.80899541E+00
   0.18300000E+01           0.90047870E+00
   0.18400000E+01           0.10028746E+01
   0.18500000E+01           0.11206844E+01
   0.18600000E+01           0.12567044E+01
   0.18700000E+01           0.14142207E+01
   0.18800000E+01           0.15938716E+01
   0.18900000E+01           0.18048785E+01
   0.19000000E+01           0.20484898E+01
   0.19100000E+01           0.23351917E+01
   0.19200000E+01           0.26681550E+01
   0.19300000E+01           0.30645973E+01
   0.19400000E+01           0.35291470E+01
   0.19500000E+01           0.40833174E+01
   0.19600000E+01           0.47444473E+01
   0.19700000E+01           0.55324138E+01
   0.19800000E+01           0.64808436E+01
   0.19900000E+01           0.76255452E+01
   0.20000000E+01           0.43148953E+01
 #T=    24.0000
  -0.20000000E+01           0.00000000E+00
  -0.19900000E+01           0.00000000E+00
  -0.19800000E+01           0.00000000E+00
  -0.19700000E+01           0.00000000E+00
  -0.19600000E+01           0.00000000E+00
  -0.19500000E+01           0.00000000E+00
  -0.19400000E+01           0.00000000E+00
  -0.19300000E+01           0.00000000E+00
  -0.19200000E+01           0.00000000E+00
  -0.19100000E+01           0.00000000E+00
  -0.19000000E+01           0.00000000E+00
  -0.18900000E+01           0.00000000E+00
  -0.18800000E+01           0.00000000E+00
  -0.18700000E+01           0.00000000E+00
  -0.18600000E+01           0.00000000E+00
  -0.18500000E+01           0.00000000E+00
  -0.18400000E+01           0.00000000E+00
  -0.18300000E+01           0.00000000E+00
  -0.18200000E+01           0.00000000E+00
  -0.18100000E+01           0.00000000E+00
  -0.18000000E+01           0.00000000E+00
  -0.17900000E+01           0.00000000E+00
  -0.17800000E+01           0.00000000E+00
  -0.17700000E+01           0.00000000E+00
  -0.17600000E+01           0.00000000E+00
  -0.17500000E+01           0.00000000E+00
  -0.17400000E+01           0.00000000E+00
  -0.17300000E+01           0.00000000E+00
  -0.17200000E+01           0.00000000E+00
  -0.17100000E+01           0.00000000E+00
  -0.17000000E+01           0.00000000E+00
  -0.16900000E+01           0.00000000E+00
  -0.16800000E+01           0.00000000E+00
  -0.16700000E+01           0.00000000E+00
  -0.16600000E+01           0.00000000E+00
  -0.16500000E+01           0.00000000E+00
  -0.16400000E+01           0.00000000E+00
  -0.16300000E+01           0.00000000E+00
  -0.16200000E+01           0.00000000E+00
  -0.16100000E+01           0.00000000E+00
  -0.16000000E+01           0.00000000E+00
  -0.15900000E+01           0.00000000E+00
  -0.15800000E+01           0.00000000E+00
  -0.15700000E+01           0.00000000E+00
  -0.15600000E+01           0.00000000E+00
  -0.15500000E+01           0.00000000E+00
  -0.15400000E+01           0.00000000E+00
  -0.15300000E+01           0.00000000E+00
  -0.15200000E+01           0.00000000E+00
  -0.15100000E+01           0.00000000E+00
  -0.15000000E+01           0.00000000E+00
  -0.14900000E+01           0.00000000E+00
  -0.14800000E+01           0.00000000E+00
  -0.14700000E+01           0.00000000E+00
  -0.14600000E+01           0.00000000E+00
  -0.14500000E+01           0.00000000E+00
  -0.14400000E+01           0.00000000E+00
  -0.14300000E+01           0.00000000E+00
  -0.14200000E+01           0.00000000E+00
  -0.14100000E+01           0.00000000E+00
  -0.14000000E+01           0.00000000E+00
  -0.13900000E+01           0.00000000E+00
  -0.13800000E+01           0.00000000E+00
  -0.13700000E+01           0.00000000E+00
  -0.13600000E+01           0.00000000E+00
  -0.13500000E+01           0.00000000E+00
  -0.13400000E+01           0.00000000E+00
  -0.13300000E+01           0.00000000E+00
  -0.13200000E+01           0.00000000E+00
  -0.13100000E+01           0.00000000E+00
  -0.13000000E+01           0.00000000E+00
  -0.12900000E+01           0.00000000E+00
  -0.12800000E+01           0.00000000E+00
  -0.12700000E+01           0.00000000E+00
  -0.12600000E+01           0.00000000E+00
  -0.12500000E+01           0.00000000E+00
  -0.12400000E+01           0.00000000E+00
  -0.12300000E+01           0.00000000E+00
  -0.12200000E+01           0.00000000E+00
  -0.12100000E+01           0.00000000E+00
  -0.12000000E+01           0.00000000E+00
  -0.11900000E+01           0.00000000E+00
  -0.11800000E+01           0.00000000E+00
  -0.11700000E+01           0.00000000E+00
  -0.11600000E+01           0.00000000E+00
  -0.11500000E+01           0.00000000E+00
  -0.11400000E+01           0.00000000E+00
  -0.11300000E+01           0.00000000E+00
  -0.11200000E+01           0.00000000E+00
  -0.11100000E+01           0.00000000E+00
  -0.11000000E+01           0.00000000E+00
  -0.10900000E+01           0.00000000E+00
  -0.10800000E+01           0.00000000E+00
  -0.10700000E+01           0.00000000E+00
  -0.10600000E+01           0.00000000E+00
  -0.10500000E+01           0.00000000E+00
  -0.10400000E+01           0.00000000E+00
  -0.10300000E+01           0.00000000E+00
  -0.10200000E+01           0.00000000E+00
  -0.10100000E+01           0.00000000E+00
  -0.10000000E+01           0.00000000E+00
  -0.99000000E+00           0.00000000E+00
  -0.98000000E+00           0.00000000E+00
  -0.97000000E+00           0.00000000E+00
  -0.96000000E+00           0.00000000E+00
  -0.95000000E+00           0.00000000E+00
  -0.94000000E+00           0.00000000E+00
  -0.93000000E+00           0.00000000E+00
  -0.92000000E+00           0.00000000E+00
  -0.91000000E+00           0.00000000E+00
  -0.90000000E+00           0.00000000E+00
  -0.89000000E+00           0.00000000E+00
  -0.88000000E+00           0.00000000E+00
  -0.87000000E+00           0.00000000E+00
  -0.86000000E+00           0.00000000E+00
  -0.85000000E+00           0.00000000E+00
  -0.84000000E+00           0.00000000E+00
  -0.83000000E+00           0.00000000E+00
  -0.82000000E+00           0.00000000E+00
  -0.81000000E+00           0.00000000E+00
  -0.80000000E+00           0.00000000E+00
  -0.79000000E+00           0.00000000E+00
  -0.78000000E+00           0.00000000E+00
  -0.77000000E+00           0.00000000E+00
  -0.76000000E+00           0.00000000E+00
  -0.75000000E+00           0.00000000E+00
  -0.74000000E+00           0.00000000E+00
  -0.73000000E+00           0.00000000E+00
  -0.72000000E+00           0.00000000E+00
  -0.71000000E+00           0.00000000E+00
  -0.70000000E+00           0.00000000E+00
  -0.69000000E+00           0.00000000E+00
  -0.68000000E+00           0.00000000E+00
  -0.67000000E+00           0.00000000E+00
  -0.66000000E+00           0.00000000E+00
  -0.65000000E+00           0.00000000E+00
  -0.64000000E+00           0.00000000E+00
  -0.63000000E+00           0.00000000E+00
  -0.62000000E+00           0.00000000E+00
  -0.61000000E+00           0.00000000E+00
  -0.60000000E+00           0.00000000E+00
  -0.59000000E+00           0.00000000E+00
  -0.58000000E+00           0.00000000E+00
  -0.57000000E+00           0.00000000E+00
  -0.56000000E+00           0.00000000E+00
  -0.55000000E+00           0.00000000E+00
  -0.54000000E+00           0.00000000E+00
  -0.53000000E+00           0.00000000E+00
  -0.52000000E+00           0.00000000E+00
  -0.51000000E+00           0.00000000E+00
  -0.50000000E+00           0.00000000E+00
  -0.49000000E+00           0.00000000E+00
  -0.48000000E+00           0.00000000E+00
  -0.47000000E+00           0.00000000E+00
  -0.46000000E+00           0.00000000E+00
  -0.45000000E+00           0.00000000E+00
  -0.44000000E+00           0.00000000E+00
  -0.43000000E+00           0.00000000E+00
  -0.42000000E+00           0.00000000E+00
  -0.41000000E+00           0.00000000E+00
  -0.40000000E+00           0.00000000E+00
  -0.39000000E+00           0.00000000E+00
  -0.38000000E+00           0.00000000E+00
  -0.37000000E+00           0.00000000E+00
  -0.36000000E+00           0.00000000E+00
  -0.35000000E+00           0.00000000E+00
  -0.34000000E+00           0.00000000E+00
  -0.33000000E+00           0.00000000E+00
  -0.32000000E+00           0.00000000E+00
  -0.31000000E+00           0.00000000E+00
  -0.30000000E+00           0.00000000E+00
  -0.29000000E+00           0.00000000E+00
  -0.28000000E+00           0.00000000E+00
  -0.27000000E+00           0.00000000E+00
  -0.26000000E+00           0.00000000E+00
  -0.25000000E+00           0.00000000E+00
  -0.24000000E+00           0.00000000E+00
  -0.23000000E+00           0.00000000E+00
  -0.22000000E+00           0.00000000E+00
  -0.21000000E+00           0.00000000E+00
  -0.20000000E+00           0.00000000E+00
  -0.19000000E+00           0.00000000E+00
  -0.18000000E+00           0.00000000E+00
  -0.17000000E+00           0.00000000E+00
  -0.16000000E+00           0.00000000E+00
  -0.15000000E+00           0.00000000E+00
  -0.14000000E+00           0.00000000E+00
  -0.13000000E+00           0.00000000E+00
  -0.12000000E+00           0.00000000E+00
  -0.11000000E+00           0.00000000E+00
  -0.10000000E+00           0.00000000E+00
  -0.90000000E-01           0.00000000E+00
  -0.80000000E-01           0.00000000E+00
  -0.70000000E-01           0.00000000E+00
  -0.60000000E-01           0.00000000E+00
  -0.50000000E-01           0.00000000E+00
  -0.40000000E-01           0.00000000E+00
  -0.30000000E-01           0.00000000E+00
  -0.20000000E-01           0.00000000E+00
  -0.10000000E-01           0.00000000E+00
   0.00000000E+00           0.20680441E-02
   0.10000000E-01           0.16468779E-01
   0.20000000E-01           0.32958861E-01
   0.30000000E-01           0.49134527E-01
   0.40000000E-01           0.65530579E-01
   0.50000000E-01           0.81478696E-01
   0.60000000E-01           0.97502847E-01
   0.70000000E-01           0.11376694E+00
   0.80000000E-01           0.12892378E+00
   0.90000000E-01           0.14418393E+00
   0.10000000E+00           0.15956097E+00
   0.11000000E+00           0.17419256E+00
   0.12000000E+00           0.18954435E+00
   0.13000000E+00           0.20320119E+00
   0.14000000E+00           0.21692948E+00
   0.15000000E+00           0.23016051E+00
   0.16000000E+00           0.24373095E+00
   0.17000000E+00           0.25622948E+00
   0.18000000E+00           0.26800349E+00
   0.19000000E+00           0.27993756E+00
   0.20000000E+00           0.29091111E+00
   0.21000000E+00           0.30230588E+00
   0.22000000E+00           0.31253012E+00
   0.23000000E+00           0.32241111E+00
   0.24000000E+00           0.33209036E+00
   0.25000000E+00           0.33993857E+00
   0.26000000E+00           0.34828200E+00
   0.27000000E+00           0.35689174E+00
   0.28000000E+00           0.36325859E+00
   0.29000000E+00           0.37050716E+00
   0.30000000E+00           0.37606446E+00
   0.31000000E+00           0.38255243E+00
   0.32000000E+00           0.38669320E+00
   0.33000000E+00           0.39218329E+00
   0.34000000E+00           0.39669376E+00
   0.35000000E+00           0.39968916E+00
   0.36000000E+00           0.40292048E+00
   0.37000000E+00           0.40598595E+00
   0.38000000E+00           0.40824729E+00
   0.39000000E+00           0.40981653E+00
   0.40000000E+00           0.41169486E+00
   0.41000000E+00           0.41257282E+00
   0.42000000E+00           0.41263884E+00
   0.43000000E+00           0.41329192E+00
   0.44000000E+00           0.41301497E+00
   0.45000000E+00           0.41095106E+00
   0.46000000E+00           0.41118935E+00
   0.47000000E+00           0.41006924E+00
   0.48000000E+00           0.40762176E+00
   0.49000000E+00           0.40611919E+00
   0.50000000E+00           0.40343893E+00
   0.51000000E+00           0.40090055E+00
   0.52000000E+00           0.39844959E+00
   0.53000000E+00           0.39520505E+00
   0.54000000E+00           0.39195326E+00
   0.55000000E+00           0.38906217E+00
   0.56000000E+00           0.38513646E+00
   0.57000000E+00           0.38164141E+00
   0.58000000E+00           0.37667631E+00
   0.59000000E+00           0.37258852E+00
   0.60000000E+00           0.36828687E+00
   0.61000000E+00           0.36352837E+00
   0.62000000E+00           0.35874022E+00
   0.63000000E+00           0.35454601E+00
   0.64000000E+00           0.34961460E+00
   0.65000000E+00           0.34422287E+00
   0.66000000E+00           0.33988411E+00
   0.67000000E+00           0.33454711E+00
   0.68000000E+00           0.32944793E+00
   0.69000000E+00           0.32414022E+00
   0.70000000E+00           0.31966033E+00
   0.71000000E+00           0.31331680E+00
   0.72000000E+00           0.30882241E+00
   0.73000000E+00           0.30318880E+00
   0.74000000E+00           0.29813664E+00
   0.75000000E+00           0.29364040E+00
   0.76000000E+00           0.28810826E+00
   0.77000000E+00           0.28264986E+00
   0.78000000E+00           0.27759477E+00
   0.79000000E+00           0.27254656E+00
   0.80000000E+00           0.26703425E+00
   0.81000000E+00           0.26217447E+00
   0.82000000E+00           0.25767172E+00
   0.83000000E+00           0.25307172E+00
   0.84000000E+00           0.24773655E+00
   0.85000000E+00           0.24324362E+00
   0.86000000E+00           0.23846768E+00
   0.87000000E+00           0.23358255E+00
   0.88000000E+00           0.22873131E+00
   0.89000000E+00           0.22442828E+00
   0.90000000E+00           0.21957649E+00
   0.91000000E+00           0.21559651E+00
   0.92000000E+00           0.21109109E+00
   0.93000000E+00           0.20700285E+00
   0.94000000E+00           0.20258062E+00
   0.95000000E+00           0.19829302E+00
   0.96000000E+00           0.19388788E+00
   0.97000000E+00           0.18995592E+00
   0.98000000E+00           0.18644353E+00
   0.99000000E+00           0.18228145E+00
   0.10000000E+01           0.17863994E+00
   0.10100000E+01           0.17533517E+00
   0.10200000E+01           0.17122994E+00
   0.10300000E+01           0.16769073E+00
   0.10400000E+01           0.16467328E+00
   0.10500000E+01           0.16079972E+00
   0.10600000E+01           0.15800973E+00
   0.10700000E+01           0.15451974E+00
   0.10800000E+01           0.15134408E+00
   0.10900000E+01           0.14859183E+00
   0.11000000E+01           0.14514426E+00
   0.11100000E+01           0.14241230E+00
   0.11200000E+01           0.13972553E+00
   0.11300000E+01           0.13660285E+00
   0.11400000E+01           0.13427769E+00
   0.11500000E+01           0.13132479E+00
   0.11600000E+01           0.12899734E+00
   0.11700000E+01           0.12657447E+00
   0.11800000E+01           0.12419881E+00
   0.11900000E+01           0.12196419E+00
   0.12000000E+01           0.11975106E+00
   0.12100000E+01           0.11752837E+00
   0.12200000E+01           0.11548219E+00
   0.12300000E+01           0.11360606E+00
   0.12400000E+01           0.11157181E+00
   0.12500000E+01           0.10990680E+00
   0.12600000E+01           0.10856364E+00
   0.12700000E+01           0.10700542E+00
   0.12800000E+01           0.10547576E+00
   0.12900000E+01           0.10420432E+00
   0.13000000E+01           0.10288733E+00
   0.13100000E+01           0.10172075E+00
   0.13200000E+01           0.10071065E+00
   0.13300000E+01           0.99767401E-01
   0.13400000E+01           0.99081726E-01
   0.13500000E+01           0.98608632E-01
   0.13600000E+01           0.97803489E-01
   0.13700000E+01           0.97710193E-01
   0.13800000E+01           0.97559780E-01
   0.13900000E+01           0.96882277E-01
   0.14000000E+01           0.97084022E-01
   0.14100000E+01           0.97754545E-01
   0.14200000E+01           0.97967218E-01
   0.14300000E+01           0.98582094E-01
   0.14400000E+01           0.99361708E-01
   0.14500000E+01           0.10060799E+00
   0.14600000E+01           0.10190349E+00
   0.14700000E+01           0.10349761E+00
   0.14800000E+01           0.10537713E+00
   0.14900000E+01           0.10761111E+00
   0.15000000E+01           0.11012590E+00
   0.15100000E+01           0.11247943E+00
   0.15200000E+01           0.11592746E+00
   0.15300000E+01           0.11946933E+00
   0.15400000E+01           0.12330165E+00
   0.15500000E+01           0.12787916E+00
   0.15600000E+01           0.13298292E+00
   0.15700000E+01           0.13837897E+00
   0.15800000E+01           0.14464830E+00
   0.15900000E+01           0.15132066E+00
   0.16000000E+01           0.15902185E+00
   0.16100000E+01           0.16745969E+00
   0.16200000E+01           0.17630918E+00
   0.16300000E+01           0.18644270E+00
   0.16400000E+01           0.19795455E+00
   0.16500000E+01           0.21026538E+00
   0.16600000E+01           0.22407107E+00
   0.16700000E+01           0.23953774E+00
   0.16800000E+01           0.25618760E+00
   0.16900000E+01           0.27499550E+00
   0.17000000E+01           0.29565188E+00
   0.17100000E+01           0.31906538E+00
   0.17200000E+01           0.34469495E+00
   0.17300000E+01           0.37322084E+00
   0.17400000E+01           0.40475941E+00
   0.17500000E+01           0.44069201E+00
   0.17600000E+01           0.48009614E+00
   0.17700000E+01           0.52402746E+00
   0.17800000E+01           0.57390321E+00
   0.17900000E+01           0.62950744E+00
   0.18000000E+01           0.69353186E+00
   0.18100000E+01           0.76296924E+00
   0.18200000E+01           0.84417713E+00
   0.18300000E+01           0.93518797E+00
   0.18400000E+01           0.10386927E+01
   0.18500000E+01           0.11563412E+01
   0.18600000E+01           0.12930140E+01
   0.18700000E+01           0.14468719E+01
   0.18800000E+01           0.16261153E+01
   0.18900000E+01           0.18321282E+01
   0.19000000E+01           0.20705042E+01
   0.19100000E+01           0.23488974E+01
   0.19200000E+01           0.26737108E+01
   0.19300000E+01           0.30509603E+01
   0.19400000E+01           0.34979595E+01
   0.19500000E+01           0.40228011E+01
   0.19600000E+01           0.46461429E+01
   0.19700000E+01           0.53829186E+01
   0.19800000E+01           0.62646092E+01
   0.19900000E+01           0.73173415E+01
   0.20000000E+01           0.41179445E+01
 #T=    25.0000
  -0.20000000E+01           0.00000000E+00
  -0.19900000E+01           0.00000000E+00
  -0.19800000E+01           0.00000000E+00
  -0.19700000E+01           0.00000000E+00
  -0.19600000E+01           0.00000000E+00
  -0.19500000E+01           0.00000000E+00
  -0.19400000E+01           0.00000000E+00
  -0.19300000E+01           0.00000000E+00
  -0.19200000E+01           0.00000000E+00
  -0.19100000E+01           0.00000000E+00
  -0.19000000E+01           0.00000000E+00
  -0.18900000E+01           0.00000000E+00
  -0.18800000E+01           0.00000000E+00
  -0.18700000E+01           0.00000000E+00
  -0.18600000E+01           0.00000000E+00
  -0.18500000E+01           0.00000000E+00
  -0.18400000E+01           0.00000000E+00
  -0.18300000E+01           0.00000000E+00
  -0.18200000E+01           0.00000000E+00
  -0.18100000E+01           0.00000000E+00
  -0.18000000E+01           0.00000000E+00
  -0.17900000E+01           0.00000000E+00
  -0.17800000E+01           0.00000000E+00
  -0.17700000E+01           0.00000000E+00
  -0.17600000E+01           0.00000000E+00
  -0.17500000E+01           0.00000000E+00
  -0.17400000E+01           0.00000000E+00
  -0.17300000E+01           0.00000000E+00
  -0.17200000E+01           0.00000000E+00
  -0.17100000E+01           0.00000000E+00
  -0.17000000E+01           0.00000000E+00
  -0.16900000E+01           0.00000000E+00
  -0.16800000E+01           0.00000000E+00
  -0.16700000E+01           0.00000000E+00
  -0.16600000E+01           0.00000000E+00
  -0.16500000E+01           0.00000000E+00
  -0.16400000E+01           0.00000000E+00
  -0.16300000E+01           0.00000000E+00
  -0.16200000E+01           0.00000000E+00
  -0.16100000E+01           0.00000000E+00
  -0.16000000E+01           0.00000000E+00
  -0.15900000E+01           0.00000000E+00
  -0.15800000E+01           0.00000000E+00
  -0.15700000E+01           0.00000000E+00
  -0.15600000E+01           0.00000000E+00
  -0.15500000E+01           0.00000000E+00
  -0.15400000E+01           0.00000000E+00
  -0.15300000E+01           0.00000000E+00
  -0.15200000E+01           0.00000000E+00
  -0.15100000E+01           0.00000000E+00
  -0.15000000E+01           0.00000000E+00
  -0.14900000E+01           0.00000000E+00
  -0.14800000E+01           0.00000000E+00
  -0.14700000E+01           0.00000000E+00
  -0.14600000E+01           0.00000000E+00
  -0.14500000E+01           0.00000000E+00
  -0.14400000E+01           0.00000000E+00
  -0.14300000E+01           0.00000000E+00
  -0.14200000E+01           0.00000000E+00
  -0.14100000E+01           0.00000000E+00
  -0.14000000E+01           0.00000000E+00
  -0.13900000E+01           0.00000000E+00
  -0.13800000E+01           0.00000000E+00
  -0.13700000E+01           0.00000000E+00
  -0.13600000E+01           0.00000000E+00
  -0.13500000E+01           0.00000000E+00
  -0.13400000E+01           0.00000000E+00
  -0.13300000E+01           0.00000000E+00
  -0.13200000E+01           0.00000000E+00
  -0.13100000E+01           0.00000000E+00
  -0.13000000E+01           0.00000000E+00
  -0.12900000E+01           0.00000000E+00
  -0.12800000E+01           0.00000000E+00
  -0.12700000E+01           0.00000000E+00
  -0.12600000E+01           0.00000000E+00
  -0.12500000E+01           0.00000000E+00
  -0.12400000E+01           0.00000000E+00
  -0.12300000E+01           0.00000000E+00
  -0.12200000E+01           0.00000000E+00
  -0.12100000E+01           0.00000000E+00
  -0.12000000E+01           0.00000000E+00
  -0.11900000E+01           0.00000000E+00
  -0.11800000E+01           0.00000000E+00
  -0.11700000E+01           0.00000000E+00
  -0.11600000E+01           0.00000000E+00
  -0.11500000E+01           0.00000000E+00
  -0.11400000E+01           0.00000000E+00
  -0.11300000E+01           0.00000000E+00
  -0.11200000E+01           0.00000000E+00
  -0.11100000E+01           0.00000000E+00
  -0.11000000E+01           0.00000000E+00
  -0.10900000E+01           0.00000000E+00
  -0.10800000E+01           0.00000000E+00
  -0.10700000E+01           0.00000000E+00
  -0.10600000E+01           0.00000000E+00
  -0.10500000E+01           0.00000000E+00
  -0.10400000E+01           0.00000000E+00
  -0.10300000E+01           0.00000000E+00
  -0.10200000E+01           0.00000000E+00
  -0.10100000E+01           0.00000000E+00
  -0.10000000E+01           0.00000000E+00
  -0.99000000E+00           0.00000000E+00
  -0.98000000E+00           0.00000000E+00
  -0.97000000E+00           0.00000000E+00
  -0.96000000E+00           0.00000000E+00
  -0.95000000E+00           0.00000000E+00
  -0.94000000E+00           0.00000000E+00
  -0.93000000E+00           0.00000000E+00
  -0.92000000E+00           0.00000000E+00
  -0.91000000E+00           0.00000000E+00
  -0.90000000E+00           0.00000000E+00
  -0.89000000E+00           0.00000000E+00
  -0.88000000E+00           0.00000000E+00
  -0.87000000E+00           0.00000000E+00
  -0.86000000E+00           0.00000000E+00
  -0.85000000E+00           0.00000000E+00
  -0.84000000E+00           0.00000000E+00
  -0.83000000E+00           0.00000000E+00
  -0.82000000E+00           0.00000000E+00
  -0.81000000E+00           0.00000000E+00
  -0.80000000E+00           0.00000000E+00
  -0.79000000E+00           0.00000000E+00
  -0.78000000E+00           0.00000000E+00
  -0.77000000E+00           0.00000000E+00
  -0.76000000E+00           0.00000000E+00
  -0.75000000E+00           0.00000000E+00
  -0.74000000E+00           0.00000000E+00
  -0.73000000E+00           0.00000000E+00
  -0.72000000E+00           0.00000000E+00
  -0.71000000E+00           0.00000000E+00
  -0.70000000E+00           0.00000000E+00
  -0.69000000E+00           0.00000000E+00
  -0.68000000E+00           0.00000000E+00
  -0.67000000E+00           0.00000000E+00
  -0.66000000E+00           0.00000000E+00
  -0.65000000E+00           0.00000000E+00
  -0.64000000E+00           0.00000000E+00
  -0.63000000E+00           0.00000000E+00
  -0.62000000E+00           0.00000000E+00
  -0.61000000E+00           0.00000000E+00
  -0.60000000E+00           0.00000000E+00
  -0.59000000E+00           0.00000000E+00
  -0.58000000E+00           0.00000000E+00
  -0.57000000E+00           0.00000000E+00
  -0.56000000E+00           0.00000000E+00
  -0.55000000E+00           0.00000000E+00
  -0.54000000E+00           0.00000000E+00
  -0.53000000E+00           0.00000000E+00
  -0.52000000E+00           0.00000000E+00
  -0.51000000E+00           0.00000000E+00
  -0.50000000E+00           0.00000000E+00
  -0.49000000E+00           0.00000000E+00
  -0.48000000E+00           0.00000000E+00
  -0.47000000E+00           0.00000000E+00
  -0.46000000E+00           0.00000000E+00
  -0.45000000E+00           0.00000000E+00
  -0.44000000E+00           0.00000000E+00
  -0.43000000E+00           0.00000000E+00
  -0.42000000E+00           0.00000000E+00
  -0.41000000E+00           0.00000000E+00
  -0.40000000E+00           0.00000000E+00
  -0.39000000E+00           0.00000000E+00
  -0.38000000E+00           0.00000000E+00
  -0.37000000E+00           0.00000000E+00
  -0.36000000E+00           0.00000000E+00
  -0.35000000E+00           0.00000000E+00
  -0.34000000E+00           0.00000000E+00
  -0.33000000E+00           0.00000000E+00
  -0.32000000E+00           0.00000000E+00
  -0.31000000E+00           0.00000000E+00
  -0.30000000E+00           0.00000000E+00
  -0.29000000E+00           0.00000000E+00
  -0.28000000E+00           0.00000000E+00
  -0.27000000E+00           0.00000000E+00
  -0.26000000E+00           0.00000000E+00
  -0.25000000E+00           0.00000000E+00
  -0.24000000E+00           0.00000000E+00
  -0.23000000E+00           0.00000000E+00
  -0.22000000E+00           0.00000000E+00
  -0.21000000E+00           0.00000000E+00
  -0.20000000E+00           0.00000000E+00
  -0.19000000E+00           0.00000000E+00
  -0.18000000E+00           0.00000000E+00
  -0.17000000E+00           0.00000000E+00
  -0.16000000E+00           0.00000000E+00
  -0.15000000E+00           0.00000000E+00
  -0.14000000E+00           0.00000000E+00
  -0.13000000E+00           0.00000000E+00
  -0.12000000E+00           0.00000000E+00
  -0.11000000E+00           0.00000000E+00
  -0.10000000E+00           0.00000000E+00
  -0.90000000E-01           0.00000000E+00
  -0.80000000E-01           0.00000000E+00
  -0.70000000E-01           0.00000000E+00
  -0.60000000E-01           0.00000000E+00
  -0.50000000E-01           0.00000000E+00
  -0.40000000E-01           0.00000000E+00
  -0.30000000E-01           0.00000000E+00
  -0.20000000E-01           0.00000000E+00
  -0.10000000E-01           0.00000000E+00
   0.00000000E+00           0.19554637E-02
   0.10000000E-01           0.15576676E-01
   0.20000000E-01           0.31243067E-01
   0.30000000E-01           0.46825344E-01
   0.40000000E-01           0.62315519E-01
   0.50000000E-01           0.77457117E-01
   0.60000000E-01           0.92784665E-01
   0.70000000E-01           0.10759486E+00
   0.80000000E-01           0.12252938E+00
   0.90000000E-01           0.13724050E+00
   0.10000000E+00           0.15132213E+00
   0.11000000E+00           0.16611102E+00
   0.12000000E+00           0.18027300E+00
   0.13000000E+00           0.19343903E+00
   0.14000000E+00           0.20642195E+00
   0.15000000E+00           0.21932369E+00
   0.16000000E+00           0.23164894E+00
   0.17000000E+00           0.24426823E+00
   0.18000000E+00           0.25583306E+00
   0.19000000E+00           0.26673710E+00
   0.20000000E+00           0.27834151E+00
   0.21000000E+00           0.28840790E+00
   0.22000000E+00           0.29846419E+00
   0.23000000E+00           0.30856722E+00
   0.24000000E+00           0.31689963E+00
   0.25000000E+00           0.32581368E+00
   0.26000000E+00           0.33364591E+00
   0.27000000E+00           0.34206455E+00
   0.28000000E+00           0.34884031E+00
   0.29000000E+00           0.35613462E+00
   0.30000000E+00           0.36180854E+00
   0.31000000E+00           0.36809596E+00
   0.32000000E+00           0.37284362E+00
   0.33000000E+00           0.37754766E+00
   0.34000000E+00           0.38210836E+00
   0.35000000E+00           0.38684178E+00
   0.36000000E+00           0.38932039E+00
   0.37000000E+00           0.39243177E+00
   0.38000000E+00           0.39557925E+00
   0.39000000E+00           0.39721993E+00
   0.40000000E+00           0.39854757E+00
   0.41000000E+00           0.40009366E+00
   0.42000000E+00           0.40114527E+00
   0.43000000E+00           0.40131671E+00
   0.44000000E+00           0.40181038E+00
   0.45000000E+00           0.40159174E+00
   0.46000000E+00           0.40124270E+00
   0.47000000E+00           0.40036951E+00
   0.48000000E+00           0.39873489E+00
   0.49000000E+00           0.39710441E+00
[...]
   0.13800000E+01           0.59507374E+00
   0.13900000E+01           0.60235950E+00
   0.14000000E+01           0.60886676E+00
   0.14100000E+01           0.61636566E+00
   0.14200000E+01           0.62421203E+00
   0.14300000E+01           0.63179853E+00
   0.14400000E+01           0.63920413E+00
   0.14500000E+01           0.64743480E+00
   0.14600000E+01           0.65592305E+00
   0.14700000E+01           0.66340882E+00
   0.14800000E+01           0.67244702E+00
   0.14900000E+01           0.68091267E+00
   0.15000000E+01           0.68989229E+00
   0.15100000E+01           0.69899054E+00
   0.15200000E+01           0.70847769E+00
   0.15300000E+01           0.71786749E+00
   0.15400000E+01           0.72857429E+00
   0.15500000E+01           0.73824380E+00
   0.15600000E+01           0.74791129E+00
   0.15700000E+01           0.75865950E+00
   0.15800000E+01           0.76955161E+00
   0.15900000E+01           0.78108127E+00
   0.16000000E+01           0.79211249E+00
   0.16100000E+01           0.80396979E+00
   0.16200000E+01           0.81615271E+00
   0.16300000E+01           0.82920661E+00
   0.16400000E+01           0.84139541E+00
   0.16500000E+01           0.85480634E+00
   0.16600000E+01           0.86844435E+00
   0.16700000E+01           0.88257879E+00
   0.16800000E+01           0.89632948E+00
   0.16900000E+01           0.91103994E+00
   0.17000000E+01           0.92643719E+00
   0.17100000E+01           0.94220643E+00
   0.17200000E+01           0.95832975E+00
   0.17300000E+01           0.97496208E+00
   0.17400000E+01           0.99214637E+00
   0.17500000E+01           0.10093725E+01
   0.17600000E+01           0.10272938E+01
   0.17700000E+01           0.10464987E+01
   0.17800000E+01           0.10654916E+01
   0.17900000E+01           0.10853478E+01
   0.18000000E+01           0.11062785E+01
   0.18100000E+01           0.11273379E+01
   0.18200000E+01           0.11493339E+01
   0.18300000E+01           0.11719137E+01
   0.18400000E+01           0.11952527E+01
   0.18500000E+01           0.12198247E+01
   0.18600000E+01           0.12438967E+01
   0.18700000E+01           0.12703412E+01
   0.18800000E+01           0.12975490E+01
   0.18900000E+01           0.13248494E+01
   0.19000000E+01           0.13528707E+01
   0.19100000E+01           0.13833659E+01
   0.19200000E+01           0.14143972E+01
   0.19300000E+01           0.14465259E+01
   0.19400000E+01           0.14792324E+01
   0.19500000E+01           0.15132287E+01
   0.19600000E+01           0.15488912E+01
   0.19700000E+01           0.15849467E+01
   0.19800000E+01           0.16227250E+01
   0.19900000E+01           0.16629500E+01
   0.20000000E+01           0.84650312E+00
 #T=   100.0000
  -0.20000000E+01           0.00000000E+00
  -0.19900000E+01           0.00000000E+00
  -0.19800000E+01           0.00000000E+00
  -0.19700000E+01           0.00000000E+00
  -0.19600000E+01           0.00000000E+00
  -0.19500000E+01           0.00000000E+00
  -0.19400000E+01           0.00000000E+00
  -0.19300000E+01           0.00000000E+00
  -0.19200000E+01           0.00000000E+00
  -0.19100000E+01           0.00000000E+00
  -0.19000000E+01           0.00000000E+00
  -0.18900000E+01           0.00000000E+00
  -0.18800000E+01           0.00000000E+00
  -0.18700000E+01           0.00000000E+00
  -0.18600000E+01           0.00000000E+00
  -0.18500000E+01           0.00000000E+00
  -0.18400000E+01           0.00000000E+00
  -0.18300000E+01           0.00000000E+00
  -0.18200000E+01           0.00000000E+00
  -0.18100000E+01           0.00000000E+00
  -0.18000000E+01           0.00000000E+00
  -0.17900000E+01           0.00000000E+00
  -0.17800000E+01           0.00000000E+00
  -0.17700000E+01           0.00000000E+00
  -0.17600000E+01           0.00000000E+00
  -0.17500000E+01           0.00000000E+00
  -0.17400000E+01           0.00000000E+00
  -0.17300000E+01           0.00000000E+00
  -0.17200000E+01           0.00000000E+00
  -0.17100000E+01           0.00000000E+00
  -0.17000000E+01           0.00000000E+00
  -0.16900000E+01           0.00000000E+00
  -0.16800000E+01           0.00000000E+00
  -0.16700000E+01           0.00000000E+00
  -0.16600000E+01           0.00000000E+00
  -0.16500000E+01           0.00000000E+00
  -0.16400000E+01           0.00000000E+00
  -0.16300000E+01           0.00000000E+00
  -0.16200000E+01           0.00000000E+00
  -0.16100000E+01           0.00000000E+00
  -0.16000000E+01           0.00000000E+00
  -0.15900000E+01           0.00000000E+00
  -0.15800000E+01           0.00000000E+00
  -0.15700000E+01           0.00000000E+00
  -0.15600000E+01           0.00000000E+00
  -0.15500000E+01           0.00000000E+00
  -0.15400000E+01           0.00000000E+00
  -0.15300000E+01           0.00000000E+00
  -0.15200000E+01           0.00000000E+00
  -0.15100000E+01           0.00000000E+00
  -0.15000000E+01           0.00000000E+00
  -0.14900000E+01           0.00000000E+00
  -0.14800000E+01           0.00000000E+00
  -0.14700000E+01           0.00000000E+00
  -0.14600000E+01           0.00000000E+00
  -0.14500000E+01           0.00000000E+00
  -0.14400000E+01           0.00000000E+00
  -0.14300000E+01           0.00000000E+00
  -0.14200000E+01           0.00000000E+00
  -0.14100000E+01           0.00000000E+00
  -0.14000000E+01           0.00000000E+00
  -0.13900000E+01           0.00000000E+00
  -0.13800000E+01           0.00000000E+00
  -0.13700000E+01           0.00000000E+00
  -0.13600000E+01           0.00000000E+00
  -0.13500000E+01           0.00000000E+00
  -0.13400000E+01           0.00000000E+00
  -0.13300000E+01           0.00000000E+00
  -0.13200000E+01           0.00000000E+00
  -0.13100000E+01           0.00000000E+00
  -0.13000000E+01           0.00000000E+00
  -0.12900000E+01           0.00000000E+00
  -0.12800000E+01           0.00000000E+00
  -0.12700000E+01           0.00000000E+00
  -0.12600000E+01           0.00000000E+00
  -0.12500000E+01           0.00000000E+00
  -0.12400000E+01           0.00000000E+00
  -0.12300000E+01           0.00000000E+00
  -0.12200000E+01           0.00000000E+00
  -0.12100000E+01           0.00000000E+00
  -0.12000000E+01           0.00000000E+00
  -0.11900000E+01           0.00000000E+00
  -0.11800000E+01           0.00000000E+00
  -0.11700000E+01           0.00000000E+00
  -0.11600000E+01           0.00000000E+00
  -0.11500000E+01           0.00000000E+00
  -0.11400000E+01           0.00000000E+00
  -0.11300000E+01           0.00000000E+00
  -0.11200000E+01           0.00000000E+00
  -0.11100000E+01           0.00000000E+00
  -0.11000000E+01           0.00000000E+00
  -0.10900000E+01           0.00000000E+00
  -0.10800000E+01           0.00000000E+00
  -0.10700000E+01           0.00000000E+00
  -0.10600000E+01           0.00000000E+00
  -0.10500000E+01           0.00000000E+00
  -0.10400000E+01           0.00000000E+00
  -0.10300000E+01           0.00000000E+00
  -0.10200000E+01           0.00000000E+00
  -0.10100000E+01           0.00000000E+00
  -0.10000000E+01           0.00000000E+00
  -0.99000000E+00           0.00000000E+00
  -0.98000000E+00           0.00000000E+00
  -0.97000000E+00           0.00000000E+00
  -0.96000000E+00           0.00000000E+00
  -0.95000000E+00           0.00000000E+00
  -0.94000000E+00           0.00000000E+00
  -0.93000000E+00           0.00000000E+00
  -0.92000000E+00           0.00000000E+00
  -0.91000000E+00           0.00000000E+00
  -0.90000000E+00           0.00000000E+00
  -0.89000000E+00           0.00000000E+00
  -0.88000000E+00           0.00000000E+00
  -0.87000000E+00           0.00000000E+00
  -0.86000000E+00           0.00000000E+00
  -0.85000000E+00           0.00000000E+00
  -0.84000000E+00           0.00000000E+00
  -0.83000000E+00           0.00000000E+00
  -0.82000000E+00           0.00000000E+00
  -0.81000000E+00           0.00000000E+00
  -0.80000000E+00           0.00000000E+00
  -0.79000000E+00           0.00000000E+00
  -0.78000000E+00           0.00000000E+00
  -0.77000000E+00           0.00000000E+00
  -0.76000000E+00           0.00000000E+00
  -0.75000000E+00           0.00000000E+00
  -0.74000000E+00           0.00000000E+00
  -0.73000000E+00           0.00000000E+00
  -0.72000000E+00           0.00000000E+00
  -0.71000000E+00           0.00000000E+00
  -0.70000000E+00           0.00000000E+00
  -0.69000000E+00           0.00000000E+00
  -0.68000000E+00           0.00000000E+00
  -0.67000000E+00           0.00000000E+00
  -0.66000000E+00           0.00000000E+00
  -0.65000000E+00           0.00000000E+00
  -0.64000000E+00           0.00000000E+00
  -0.63000000E+00           0.00000000E+00
  -0.62000000E+00           0.00000000E+00
  -0.61000000E+00           0.00000000E+00
  -0.60000000E+00           0.00000000E+00
  -0.59000000E+00           0.00000000E+00
  -0.58000000E+00           0.00000000E+00
  -0.57000000E+00           0.00000000E+00
  -0.56000000E+00           0.00000000E+00
  -0.55000000E+00           0.00000000E+00
  -0.54000000E+00           0.00000000E+00
  -0.53000000E+00           0.00000000E+00
  -0.52000000E+00           0.00000000E+00
  -0.51000000E+00           0.00000000E+00
  -0.50000000E+00           0.00000000E+00
  -0.49000000E+00           0.00000000E+00
  -0.48000000E+00           0.00000000E+00
  -0.47000000E+00           0.00000000E+00
  -0.46000000E+00           0.00000000E+00
  -0.45000000E+00           0.00000000E+00
  -0.44000000E+00           0.00000000E+00
  -0.43000000E+00           0.00000000E+00
  -0.42000000E+00           0.00000000E+00
  -0.41000000E+00           0.00000000E+00
  -0.40000000E+00           0.00000000E+00
  -0.39000000E+00           0.00000000E+00
  -0.38000000E+00           0.00000000E+00
  -0.37000000E+00           0.00000000E+00
  -0.36000000E+00           0.00000000E+00
  -0.35000000E+00           0.00000000E+00
  -0.34000000E+00           0.00000000E+00
  -0.33000000E+00           0.00000000E+00
  -0.32000000E+00           0.00000000E+00
  -0.31000000E+00           0.00000000E+00
  -0.30000000E+00           0.00000000E+00
  -0.29000000E+00           0.00000000E+00
  -0.28000000E+00           0.00000000E+00
  -0.27000000E+00           0.00000000E+00
  -0.26000000E+00           0.00000000E+00
  -0.25000000E+00           0.00000000E+00
  -0.24000000E+00           0.00000000E+00
  -0.23000000E+00           0.00000000E+00
  -0.22000000E+00           0.00000000E+00
  -0.21000000E+00           0.00000000E+00
  -0.20000000E+00           0.00000000E+00
  -0.19000000E+00           0.00000000E+00
  -0.18000000E+00           0.00000000E+00
  -0.17000000E+00           0.00000000E+00
  -0.16000000E+00           0.00000000E+00
  -0.15000000E+00           0.00000000E+00
  -0.14000000E+00           0.00000000E+00
  -0.13000000E+00           0.00000000E+00
  -0.12000000E+00           0.00000000E+00
  -0.11000000E+00           0.00000000E+00
  -0.10000000E+00           0.00000000E+00
  -0.90000000E-01           0.00000000E+00
  -0.80000000E-01           0.00000000E+00
  -0.70000000E-01           0.00000000E+00
  -0.60000000E-01           0.00000000E+00
  -0.50000000E-01           0.00000000E+00
  -0.40000000E-01           0.00000000E+00
  -0.30000000E-01           0.00000000E+00
  -0.20000000E-01           0.00000000E+00
  -0.10000000E-01           0.00000000E+00
   0.00000000E+00           0.53489440E-03
   0.10000000E-01           0.42237833E-02
   0.20000000E-01           0.84595960E-02
   0.30000000E-01           0.12733701E-01
   0.40000000E-01           0.17051331E-01
   0.50000000E-01           0.21115886E-01
   0.60000000E-01           0.25442792E-01
   0.70000000E-01           0.29646740E-01
   0.80000000E-01           0.33705051E-01
   0.90000000E-01           0.38084389E-01
   0.10000000E+00           0.42381267E-01
   0.11000000E+00           0.46640312E-01
   0.12000000E+00           0.50749311E-01
   0.13000000E+00           0.54938292E-01
   0.14000000E+00           0.59229385E-01
   0.15000000E+00           0.63319376E-01
   0.16000000E+00           0.67474747E-01
   0.17000000E+00           0.71675666E-01
   0.18000000E+00           0.75905693E-01
   0.19000000E+00           0.80219192E-01
   0.20000000E+00           0.84442608E-01
   0.21000000E+00           0.88363912E-01
   0.22000000E+00           0.92647475E-01
   0.23000000E+00           0.96704132E-01
   0.24000000E+00           0.10075859E+00
   0.25000000E+00           0.10499605E+00
   0.26000000E+00           0.10910156E+00
   0.27000000E+00           0.11335794E+00
   0.28000000E+00           0.11743058E+00
   0.29000000E+00           0.12159192E+00
   0.30000000E+00           0.12585546E+00
   0.31000000E+00           0.12977759E+00
   0.32000000E+00           0.13378586E+00
   0.33000000E+00           0.13779229E+00
   0.34000000E+00           0.14190680E+00
   0.35000000E+00           0.14609229E+00
   0.36000000E+00           0.15012984E+00
   0.37000000E+00           0.15415776E+00
   0.38000000E+00           0.15810138E+00
   0.39000000E+00           0.16225840E+00
   0.40000000E+00           0.16608108E+00
   0.41000000E+00           0.17007365E+00
   0.42000000E+00           0.17416850E+00
   0.43000000E+00           0.17829385E+00
   0.44000000E+00           0.18215629E+00
   0.45000000E+00           0.18593499E+00
   0.46000000E+00           0.19002287E+00
   0.47000000E+00           0.19399201E+00
   0.48000000E+00           0.19792645E+00
   0.49000000E+00           0.20166832E+00
   0.50000000E+00           0.20572599E+00
   0.51000000E+00           0.20995418E+00
   0.52000000E+00           0.21356217E+00
   0.53000000E+00           0.21759871E+00
   0.54000000E+00           0.22128421E+00
   0.55000000E+00           0.22534114E+00
   0.56000000E+00           0.22904986E+00
   0.57000000E+00           0.23279991E+00
   0.58000000E+00           0.23685519E+00
   0.59000000E+00           0.24071901E+00
   0.60000000E+00           0.24436152E+00
   0.61000000E+00           0.24840523E+00
   0.62000000E+00           0.25207916E+00
   0.63000000E+00           0.25582764E+00
   0.64000000E+00           0.25991837E+00
   0.65000000E+00           0.26398889E+00
   0.66000000E+00           0.26737713E+00
   0.67000000E+00           0.27154077E+00
   0.68000000E+00           0.27506639E+00
   0.69000000E+00           0.27904059E+00
   0.70000000E+00           0.28311589E+00
   0.71000000E+00           0.28671276E+00
   0.72000000E+00           0.29069522E+00
   0.73000000E+00           0.29393857E+00
   0.74000000E+00           0.29778907E+00
   0.75000000E+00           0.30190028E+00
   0.76000000E+00           0.30542700E+00
   0.77000000E+00           0.30930533E+00
   0.78000000E+00           0.31321488E+00
   0.79000000E+00           0.31701598E+00
   0.80000000E+00           0.32051074E+00
   0.81000000E+00           0.32458411E+00
   0.82000000E+00           0.32827227E+00
   0.83000000E+00           0.33204674E+00
   0.84000000E+00           0.33615078E+00
   0.85000000E+00           0.33992231E+00
   0.86000000E+00           0.34389651E+00
   0.87000000E+00           0.34759036E+00
   0.88000000E+00           0.35155372E+00
   0.89000000E+00           0.35546979E+00
   0.90000000E+00           0.35936143E+00
   0.91000000E+00           0.36301028E+00
   0.92000000E+00           0.36718972E+00
   0.93000000E+00           0.37101938E+00
   0.94000000E+00           0.37506189E+00
   0.95000000E+00           0.37894123E+00
   0.96000000E+00           0.38296070E+00
   0.97000000E+00           0.38726703E+00
   0.98000000E+00           0.39148953E+00
   0.99000000E+00           0.39533508E+00
   0.10000000E+01           0.39929394E+00
   0.10100000E+01           0.40402084E+00
   0.10200000E+01           0.40802938E+00
   0.10300000E+01           0.41244858E+00
   0.10400000E+01           0.41630533E+00
   0.10500000E+01           0.42061405E+00
   0.10600000E+01           0.42517860E+00
   0.10700000E+01           0.42922470E+00
   0.10800000E+01           0.43344904E+00
   0.10900000E+01           0.43799568E+00
   0.11000000E+01           0.44217438E+00
   0.11100000E+01           0.44700735E+00
   0.11200000E+01           0.45167144E+00
   0.11300000E+01           0.45625666E+00
   0.11400000E+01           0.46067447E+00
   0.11500000E+01           0.46586235E+00
   0.11600000E+01           0.47038999E+00
   0.11700000E+01           0.47558329E+00
   0.11800000E+01           0.48055978E+00
   0.11900000E+01           0.48538742E+00
   0.12000000E+01           0.49002691E+00
   0.12100000E+01           0.49559339E+00
   0.12200000E+01           0.50104224E+00
   0.12300000E+01           0.50575969E+00
   0.12400000E+01           0.51121276E+00
   0.12500000E+01           0.51684068E+00
   0.12600000E+01           0.52212424E+00
   0.12700000E+01           0.52792452E+00
   0.12800000E+01           0.53342167E+00
   0.12900000E+01           0.53931855E+00
   0.13000000E+01           0.54533242E+00
   0.13100000E+01           0.55121552E+00
   0.13200000E+01           0.55750643E+00
   0.13300000E+01           0.56391074E+00
   0.13400000E+01           0.57030533E+00
   0.13500000E+01           0.57658678E+00
   0.13600000E+01           0.58317906E+00
   0.13700000E+01           0.58975721E+00
   0.13800000E+01           0.59641717E+00
   0.13900000E+01           0.60402360E+00
   0.14000000E+01           0.61083315E+00
   0.14100000E+01           0.61818356E+00
   0.14200000E+01           0.62508577E+00
   0.14300000E+01           0.63325565E+00
   0.14400000E+01           0.64122948E+00
   0.14500000E+01           0.64879449E+00
   0.14600000E+01           0.65691350E+00
   0.14700000E+01           0.66526428E+00
   0.14800000E+01           0.67387530E+00
   0.14900000E+01           0.68312792E+00
   0.15000000E+01           0.69117126E+00
   0.15100000E+01           0.70058191E+00
   0.15200000E+01           0.70998724E+00
   0.15300000E+01           0.71906758E+00
   0.15400000E+01           0.72965510E+00
   0.15500000E+01           0.73907989E+00
   0.15600000E+01           0.74934922E+00
   0.15700000E+01           0.76054711E+00
   0.15800000E+01           0.77111717E+00
   0.15900000E+01           0.78208733E+00
   0.16000000E+01           0.79311506E+00
   0.16100000E+01           0.80591414E+00
   0.16200000E+01           0.81675491E+00
   0.16300000E+01           0.82941433E+00
   0.16400000E+01           0.84212525E+00
   0.16500000E+01           0.85555510E+00
   0.16600000E+01           0.86836786E+00
   0.16700000E+01           0.88271478E+00
   0.16800000E+01           0.89680303E+00
   0.16900000E+01           0.91133122E+00
   0.17000000E+01           0.92577080E+00
   0.17100000E+01           0.94203168E+00
   0.17200000E+01           0.95761001E+00
   0.17300000E+01           0.97393379E+00
   0.17400000E+01           0.99152883E+00
   0.17500000E+01           0.10090469E+01
   0.17600000E+01           0.10268077E+01
   0.17700000E+01           0.10449318E+01
   0.17800000E+01           0.10641678E+01
   0.17900000E+01           0.10841141E+01
   0.18000000E+01           0.11042330E+01
   0.18100000E+01           0.11250861E+01
   0.18200000E+01           0.11465154E+01
   0.18300000E+01           0.11695483E+01
   0.18400000E+01           0.11927246E+01
   0.18500000E+01           0.12166197E+01
   0.18600000E+01           0.12409466E+01
   0.18700000E+01           0.12670776E+01
   0.18800000E+01           0.12928094E+01
   0.18900000E+01           0.13208290E+01
   0.19000000E+01           0.13486355E+01
   0.19100000E+01           0.13771763E+01
   0.19200000E+01           0.14083080E+01
   0.19300000E+01           0.14387344E+01
   0.19400000E+01           0.14717158E+01
   0.19500000E+01           0.15056840E+01
   0.19600000E+01           0.15404297E+01
   0.19700000E+01           0.15761314E+01
   0.19800000E+01           0.16133859E+01
   0.19900000E+01           0.16528409E+01
   0.20000000E+01           0.84134977E+00
