 #written on 31Jul2024 at 20:06:06 
 #----------------------------------------------- MONTECARLO ---------------------------------------------------#
 # Temp      Magnetization     Energy_ave          C_M              Sus              U_E              U_M       #
 #--------------------------------------------------------------------------------------------------------------#
  21.0000   0.57849304E-02  -0.12453747E+03   0.10999796E+01   0.63755021E-03   0.66664752E+00   0.43393591E+00
  22.0000   0.59248298E-02  -0.12343370E+03   0.11099135E+01   0.63691363E-03   0.66664509E+00   0.43454315E+00
  23.0000   0.60757436E-02  -0.12232465E+03   0.11098954E+01   0.64101212E-03   0.66664265E+00   0.43453409E+00
  24.0000   0.62060487E-02  -0.12120472E+03   0.11196605E+01   0.64013419E-03   0.66663980E+00   0.43480934E+00
  25.0000   0.63474268E-02  -0.12008066E+03   0.11272059E+01   0.64185617E-03   0.66663676E+00   0.43584399E+00
  26.0000   0.64863075E-02  -0.11894635E+03   0.11404634E+01   0.64367843E-03   0.66663332E+00   0.43615462E+00
  27.0000   0.66140397E-02  -0.11779989E+03   0.11444967E+01   0.64391287E-03   0.66662987E+00   0.43659033E+00
  28.0000   0.67575261E-02  -0.11664383E+03   0.11571548E+01   0.64907593E-03   0.66662586E+00   0.43581586E+00
  29.0000   0.68857108E-02  -0.11547535E+03   0.11761553E+01   0.64791203E-03   0.66662127E+00   0.43675525E+00
  30.0000   0.70149407E-02  -0.11429396E+03   0.11899801E+01   0.65124618E-03   0.66661649E+00   0.43657183E+00
  31.0000   0.71456762E-02  -0.11309727E+03   0.12045366E+01   0.65250307E-03   0.66661129E+00   0.43742755E+00
  32.0000   0.72787103E-02  -0.11188085E+03   0.12277968E+01   0.65491810E-03   0.66660520E+00   0.43784531E+00
  33.0000   0.74120168E-02  -0.11064351E+03   0.12466561E+01   0.65922088E-03   0.66659881E+00   0.43701157E+00
  34.0000   0.75337641E-02  -0.10938232E+03   0.12727820E+01   0.66108419E-03   0.66659142E+00   0.43684092E+00
  35.0000   0.76578436E-02  -0.10809406E+03   0.13034796E+01   0.66443808E-03   0.66658305E+00   0.43661832E+00
  36.0000   0.77922488E-02  -0.10677658E+03   0.13380076E+01   0.66847593E-03   0.66657361E+00   0.43686816E+00
  37.0000   0.79258635E-02  -0.10541472E+03   0.13754499E+01   0.67197915E-03   0.66656300E+00   0.43765202E+00
  38.0000   0.80571679E-02  -0.10401699E+03   0.14149319E+01   0.67655190E-03   0.66655113E+00   0.43738107E+00
  39.0000   0.81922902E-02  -0.10257870E+03   0.14559884E+01   0.68070441E-03   0.66653791E+00   0.43817131E+00
  40.0000   0.83201372E-02  -0.10111149E+03   0.14907894E+01   0.68376168E-03   0.66652393E+00   0.43797974E+00
  41.0000   0.84573767E-02  -0.99597561E+02   0.15249344E+01   0.68953602E-03   0.66650858E+00   0.43805138E+00
  42.0000   0.85940309E-02  -0.98069240E+02   0.15442750E+01   0.69685079E-03   0.66649339E+00   0.43714712E+00
  43.0000   0.87385145E-02  -0.96515992E+02   0.15639342E+01   0.70080799E-03   0.66647677E+00   0.43867290E+00
  44.0000   0.88569736E-02  -0.94942368E+02   0.15724908E+01   0.70629919E-03   0.66646007E+00   0.43740090E+00
  45.0000   0.89956878E-02  -0.93358155E+02   0.15948567E+01   0.71103263E-03   0.66643997E+00   0.43798668E+00
  46.0000   0.91302670E-02  -0.91759143E+02   0.16035154E+01   0.71767189E-03   0.66642017E+00   0.43729518E+00
  47.0000   0.92584009E-02  -0.90156037E+02   0.16086366E+01   0.72085596E-03   0.66639926E+00   0.43794799E+00
  48.0000   0.93908091E-02  -0.88544481E+02   0.16210815E+01   0.72739739E-03   0.66637530E+00   0.43803879E+00
  49.0000   0.95205219E-02  -0.86910182E+02   0.16441635E+01   0.72980861E-03   0.66634706E+00   0.43874249E+00
  50.0000   0.96486076E-02  -0.85259297E+02   0.16604035E+01   0.73616529E-03   0.66631744E+00   0.43825920E+00
  51.0000   0.97732326E-02  -0.83582165E+02   0.16835009E+01   0.73839052E-03   0.66628340E+00   0.43887239E+00
  52.0000   0.99086428E-02  -0.81877795E+02   0.17073802E+01   0.74310003E-03   0.66624563E+00   0.43976894E+00
  53.0000   0.10045030E-01  -0.80158560E+02   0.17374968E+01   0.74893338E-03   0.66620237E+00   0.43935514E+00
  54.0000   0.10186293E-01  -0.78396309E+02   0.17714044E+01   0.75618004E-03   0.66615292E+00   0.43944857E+00
  55.0000   0.10311236E-01  -0.76615904E+02   0.17974712E+01   0.75902743E-03   0.66610053E+00   0.44028250E+00
  56.0000   0.10436015E-01  -0.74804812E+02   0.18328828E+01   0.76481554E-03   0.66603897E+00   0.43956813E+00
  57.0000   0.10575310E-01  -0.72957328E+02   0.18566595E+01   0.77096715E-03   0.66597408E+00   0.43986058E+00
  58.0000   0.10704322E-01  -0.71101994E+02   0.18737484E+01   0.77937504E-03   0.66590475E+00   0.43880601E+00
  59.0000   0.10843959E-01  -0.69215626E+02   0.18800157E+01   0.78236643E-03   0.66583187E+00   0.44046393E+00
  60.0000   0.10990490E-01  -0.67334490E+02   0.18835753E+01   0.79199407E-03   0.66575275E+00   0.43977986E+00
  61.0000   0.11119938E-01  -0.65451999E+02   0.18873770E+01   0.79551896E-03   0.66566501E+00   0.44046833E+00
  62.0000   0.11248758E-01  -0.63578817E+02   0.18718945E+01   0.80009149E-03   0.66557913E+00   0.44111780E+00
  63.0000   0.11378093E-01  -0.61715165E+02   0.18428595E+01   0.80577898E-03   0.66549322E+00   0.44096678E+00
  64.0000   0.11506595E-01  -0.59877418E+02   0.18247675E+01   0.81265986E-03   0.66539291E+00   0.44004207E+00
  65.0000   0.11643201E-01  -0.58063758E+02   0.18003299E+01   0.81786808E-03   0.66528805E+00   0.44070901E+00
  66.0000   0.11751910E-01  -0.56300650E+02   0.17567962E+01   0.82187815E-03   0.66519150E+00   0.44005589E+00
  67.0000   0.11877531E-01  -0.54551225E+02   0.17245825E+01   0.82830454E-03   0.66507742E+00   0.43992911E+00
  68.0000   0.11999092E-01  -0.52847642E+02   0.16765906E+01   0.83266836E-03   0.66497088E+00   0.43979853E+00
  69.0000   0.12117803E-01  -0.51189341E+02   0.16398422E+01   0.84036036E-03   0.66484650E+00   0.43878071E+00
  70.0000   0.12233829E-01  -0.49572156E+02   0.15951662E+01   0.83739208E-03   0.66472394E+00   0.44110792E+00
  71.0000   0.12346532E-01  -0.48004090E+02   0.15538336E+01   0.84508802E-03   0.66459050E+00   0.43989988E+00
  72.0000   0.12460939E-01  -0.46476476E+02   0.14985589E+01   0.84689766E-03   0.66447015E+00   0.44034403E+00
  73.0000   0.12559177E-01  -0.44992032E+02   0.14589940E+01   0.84848387E-03   0.66432091E+00   0.44068354E+00
  74.0000   0.12655993E-01  -0.43559171E+02   0.14220414E+01   0.85176197E-03   0.66416079E+00   0.44012928E+00
  75.0000   0.12764439E-01  -0.42157693E+02   0.13713590E+01   0.85384938E-03   0.66401763E+00   0.44010770E+00
  76.0000   0.12849186E-01  -0.40812628E+02   0.13313978E+01   0.85426677E-03   0.66384876E+00   0.43973977E+00
  77.0000   0.12955885E-01  -0.39505627E+02   0.12896666E+01   0.86170113E-03   0.66367682E+00   0.43877534E+00
  78.0000   0.13037932E-01  -0.38229097E+02   0.12484455E+01   0.85917700E-03   0.66349547E+00   0.43894810E+00
  79.0000   0.13140490E-01  -0.36998868E+02   0.12153970E+01   0.86179949E-03   0.66328564E+00   0.43892837E+00
  80.0000   0.13220661E-01  -0.35812068E+02   0.11767070E+01   0.85907497E-03   0.66308581E+00   0.43985525E+00
  81.0000   0.13311147E-01  -0.34645065E+02   0.11405158E+01   0.86057790E-03   0.66286553E+00   0.43986586E+00
  82.0000   0.13386356E-01  -0.33523246E+02   0.11047400E+01   0.86297719E-03   0.66263795E+00   0.43849034E+00
  83.0000   0.13475625E-01  -0.32428257E+02   0.10770697E+01   0.86005265E-03   0.66236582E+00   0.44002188E+00
  84.0000   0.13555742E-01  -0.31374613E+02   0.10489320E+01   0.86082657E-03   0.66208449E+00   0.43918569E+00
  85.0000   0.13622820E-01  -0.30347999E+02   0.10148475E+01   0.85988657E-03   0.66181799E+00   0.43944236E+00
  86.0000   0.13697350E-01  -0.29341091E+02   0.98609635E+00   0.85720119E-03   0.66150716E+00   0.44026689E+00
  87.0000   0.13774727E-01  -0.28369113E+02   0.95922422E+00   0.85879112E-03   0.66117548E+00   0.43955092E+00
  88.0000   0.13839289E-01  -0.27421384E+02   0.93410044E+00   0.85976929E-03   0.66081405E+00   0.43870849E+00
  89.0000   0.13913011E-01  -0.26499957E+02   0.90790565E+00   0.85517704E-03   0.66043560E+00   0.43995020E+00
  90.0000   0.13989080E-01  -0.25604611E+02   0.88594003E+00   0.85584379E-03   0.66001058E+00   0.43949910E+00
  91.0000   0.14060773E-01  -0.24730854E+02   0.86388985E+00   0.85441129E-03   0.65955771E+00   0.44036538E+00
  92.0000   0.14112159E-01  -0.23884835E+02   0.84024458E+00   0.85258169E-03   0.65909403E+00   0.43948591E+00
  93.0000   0.14185251E-01  -0.23053533E+02   0.81814471E+00   0.85004988E-03   0.65858312E+00   0.43994367E+00
  94.0000   0.14238386E-01  -0.22245861E+02   0.79821472E+00   0.85141439E-03   0.65802148E+00   0.43906519E+00
  95.0000   0.14298129E-01  -0.21460736E+02   0.77889125E+00   0.84833670E-03   0.65741336E+00   0.43950349E+00
  96.0000   0.14357915E-01  -0.20683644E+02   0.75956903E+00   0.84674603E-03   0.65675309E+00   0.43951606E+00
  97.0000   0.14423312E-01  -0.19937198E+02   0.74222170E+00   0.84382137E-03   0.65603347E+00   0.44008479E+00
  98.0000   0.14481158E-01  -0.19202254E+02   0.72321974E+00   0.84278815E-03   0.65527525E+00   0.43943493E+00
  99.0000   0.14534448E-01  -0.18488289E+02   0.70772655E+00   0.84140343E-03   0.65441027E+00   0.43897056E+00
 100.0000   0.14580678E-01  -0.17787156E+02   0.69166937E+00   0.83705239E-03   0.65346877E+00   0.43953042E+00
