 #written on 19Sep2024 at 07:57:46 
 #----------------- MONTECARLO -------------------#
 #        M                      P(M)             #
 #------------------------------------------------#
 #T=    50.0000
  -0.40000000E+01           0.00000000E+00
  -0.39900000E+01           0.00000000E+00
  -0.39800000E+01           0.00000000E+00
  -0.39700000E+01           0.00000000E+00
  -0.39600000E+01           0.00000000E+00
  -0.39500000E+01           0.00000000E+00
  -0.39400000E+01           0.00000000E+00
  -0.39300000E+01           0.00000000E+00
  -0.39200000E+01           0.00000000E+00
  -0.39100000E+01           0.00000000E+00
  -0.39000000E+01           0.00000000E+00
  -0.38900000E+01           0.00000000E+00
  -0.38800000E+01           0.00000000E+00
  -0.38700000E+01           0.00000000E+00
  -0.38600000E+01           0.00000000E+00
  -0.38500000E+01           0.00000000E+00
  -0.38400000E+01           0.00000000E+00
  -0.38300000E+01           0.00000000E+00
  -0.38200000E+01           0.00000000E+00
  -0.38100000E+01           0.00000000E+00
  -0.38000000E+01           0.00000000E+00
  -0.37900000E+01           0.00000000E+00
  -0.37800000E+01           0.00000000E+00
  -0.37700000E+01           0.00000000E+00
  -0.37600000E+01           0.00000000E+00
  -0.37500000E+01           0.00000000E+00
  -0.37400000E+01           0.00000000E+00
  -0.37300000E+01           0.00000000E+00
  -0.37200000E+01           0.00000000E+00
  -0.37100000E+01           0.00000000E+00
  -0.37000000E+01           0.00000000E+00
  -0.36900000E+01           0.00000000E+00
  -0.36800000E+01           0.00000000E+00
  -0.36700000E+01           0.00000000E+00
  -0.36600000E+01           0.00000000E+00
  -0.36500000E+01           0.00000000E+00
  -0.36400000E+01           0.00000000E+00
  -0.36300000E+01           0.00000000E+00
  -0.36200000E+01           0.00000000E+00
  -0.36100000E+01           0.00000000E+00
  -0.36000000E+01           0.00000000E+00
  -0.35900000E+01           0.00000000E+00
  -0.35800000E+01           0.00000000E+00
  -0.35700000E+01           0.00000000E+00
  -0.35600000E+01           0.00000000E+00
  -0.35500000E+01           0.00000000E+00
  -0.35400000E+01           0.00000000E+00
  -0.35300000E+01           0.00000000E+00
  -0.35200000E+01           0.00000000E+00
  -0.35100000E+01           0.00000000E+00
  -0.35000000E+01           0.00000000E+00
  -0.34900000E+01           0.00000000E+00
  -0.34800000E+01           0.00000000E+00
  -0.34700000E+01           0.00000000E+00
  -0.34600000E+01           0.00000000E+00
  -0.34500000E+01           0.00000000E+00
  -0.34400000E+01           0.00000000E+00
  -0.34300000E+01           0.00000000E+00
  -0.34200000E+01           0.00000000E+00
  -0.34100000E+01           0.00000000E+00
  -0.34000000E+01           0.00000000E+00
  -0.33900000E+01           0.00000000E+00
  -0.33800000E+01           0.00000000E+00
  -0.33700000E+01           0.00000000E+00
  -0.33600000E+01           0.00000000E+00
  -0.33500000E+01           0.00000000E+00
  -0.33400000E+01           0.00000000E+00
  -0.33300000E+01           0.00000000E+00
  -0.33200000E+01           0.00000000E+00
  -0.33100000E+01           0.00000000E+00
  -0.33000000E+01           0.00000000E+00
  -0.32900000E+01           0.00000000E+00
  -0.32800000E+01           0.00000000E+00
  -0.32700000E+01           0.00000000E+00
  -0.32600000E+01           0.00000000E+00
  -0.32500000E+01           0.00000000E+00
  -0.32400000E+01           0.00000000E+00
  -0.32300000E+01           0.00000000E+00
  -0.32200000E+01           0.00000000E+00
  -0.32100000E+01           0.00000000E+00
  -0.32000000E+01           0.00000000E+00
  -0.31900000E+01           0.00000000E+00
  -0.31800000E+01           0.00000000E+00
  -0.31700000E+01           0.00000000E+00
  -0.31600000E+01           0.00000000E+00
  -0.31500000E+01           0.00000000E+00
  -0.31400000E+01           0.00000000E+00
  -0.31300000E+01           0.00000000E+00
  -0.31200000E+01           0.00000000E+00
  -0.31100000E+01           0.00000000E+00
  -0.31000000E+01           0.00000000E+00
  -0.30900000E+01           0.00000000E+00
  -0.30800000E+01           0.00000000E+00
  -0.30700000E+01           0.00000000E+00
  -0.30600000E+01           0.00000000E+00
  -0.30500000E+01           0.00000000E+00
  -0.30400000E+01           0.00000000E+00
  -0.30300000E+01           0.00000000E+00
  -0.30200000E+01           0.00000000E+00
  -0.30100000E+01           0.00000000E+00
  -0.30000000E+01           0.00000000E+00
  -0.29900000E+01           0.00000000E+00
  -0.29800000E+01           0.00000000E+00
  -0.29700000E+01           0.00000000E+00
  -0.29600000E+01           0.00000000E+00
  -0.29500000E+01           0.00000000E+00
  -0.29400000E+01           0.00000000E+00
  -0.29300000E+01           0.00000000E+00
  -0.29200000E+01           0.00000000E+00
  -0.29100000E+01           0.00000000E+00
  -0.29000000E+01           0.00000000E+00
  -0.28900000E+01           0.00000000E+00
  -0.28800000E+01           0.00000000E+00
  -0.28700000E+01           0.00000000E+00
  -0.28600000E+01           0.00000000E+00
  -0.28500000E+01           0.00000000E+00
  -0.28400000E+01           0.00000000E+00
  -0.28300000E+01           0.00000000E+00
  -0.28200000E+01           0.00000000E+00
  -0.28100000E+01           0.00000000E+00
  -0.28000000E+01           0.00000000E+00
  -0.27900000E+01           0.00000000E+00
  -0.27800000E+01           0.00000000E+00
  -0.27700000E+01           0.00000000E+00
  -0.27600000E+01           0.00000000E+00
  -0.27500000E+01           0.00000000E+00
  -0.27400000E+01           0.00000000E+00
  -0.27300000E+01           0.00000000E+00
  -0.27200000E+01           0.00000000E+00
  -0.27100000E+01           0.00000000E+00
  -0.27000000E+01           0.00000000E+00
  -0.26900000E+01           0.00000000E+00
  -0.26800000E+01           0.00000000E+00
  -0.26700000E+01           0.00000000E+00
  -0.26600000E+01           0.00000000E+00
  -0.26500000E+01           0.00000000E+00
  -0.26400000E+01           0.00000000E+00
  -0.26300000E+01           0.00000000E+00
  -0.26200000E+01           0.00000000E+00
  -0.26100000E+01           0.00000000E+00
  -0.26000000E+01           0.00000000E+00
  -0.25900000E+01           0.00000000E+00
  -0.25800000E+01           0.00000000E+00
  -0.25700000E+01           0.00000000E+00
  -0.25600000E+01           0.00000000E+00
  -0.25500000E+01           0.00000000E+00
  -0.25400000E+01           0.00000000E+00
  -0.25300000E+01           0.00000000E+00
  -0.25200000E+01           0.00000000E+00
  -0.25100000E+01           0.00000000E+00
  -0.25000000E+01           0.00000000E+00
  -0.24900000E+01           0.00000000E+00
  -0.24800000E+01           0.00000000E+00
  -0.24700000E+01           0.00000000E+00
  -0.24600000E+01           0.00000000E+00
  -0.24500000E+01           0.00000000E+00
  -0.24400000E+01           0.00000000E+00
  -0.24300000E+01           0.00000000E+00
  -0.24200000E+01           0.00000000E+00
  -0.24100000E+01           0.00000000E+00
  -0.24000000E+01           0.00000000E+00
  -0.23900000E+01           0.00000000E+00
  -0.23800000E+01           0.00000000E+00
  -0.23700000E+01           0.00000000E+00
  -0.23600000E+01           0.00000000E+00
  -0.23500000E+01           0.00000000E+00
  -0.23400000E+01           0.00000000E+00
  -0.23300000E+01           0.00000000E+00
  -0.23200000E+01           0.00000000E+00
  -0.23100000E+01           0.00000000E+00
  -0.23000000E+01           0.00000000E+00
  -0.22900000E+01           0.00000000E+00
  -0.22800000E+01           0.00000000E+00
  -0.22700000E+01           0.00000000E+00
  -0.22600000E+01           0.00000000E+00
  -0.22500000E+01           0.00000000E+00
  -0.22400000E+01           0.00000000E+00
  -0.22300000E+01           0.00000000E+00
  -0.22200000E+01           0.00000000E+00
  -0.22100000E+01           0.00000000E+00
  -0.22000000E+01           0.00000000E+00
  -0.21900000E+01           0.00000000E+00
  -0.21800000E+01           0.00000000E+00
  -0.21700000E+01           0.00000000E+00
  -0.21600000E+01           0.00000000E+00
  -0.21500000E+01           0.00000000E+00
  -0.21400000E+01           0.00000000E+00
  -0.21300000E+01           0.00000000E+00
  -0.21200000E+01           0.00000000E+00
  -0.21100000E+01           0.00000000E+00
  -0.21000000E+01           0.00000000E+00
  -0.20900000E+01           0.00000000E+00
  -0.20800000E+01           0.00000000E+00
  -0.20700000E+01           0.00000000E+00
  -0.20600000E+01           0.00000000E+00
  -0.20500000E+01           0.00000000E+00
  -0.20400000E+01           0.00000000E+00
  -0.20300000E+01           0.00000000E+00
  -0.20200000E+01           0.00000000E+00
  -0.20100000E+01           0.00000000E+00
  -0.20000000E+01           0.00000000E+00
  -0.19900000E+01           0.00000000E+00
  -0.19800000E+01           0.00000000E+00
  -0.19700000E+01           0.00000000E+00
  -0.19600000E+01           0.00000000E+00
  -0.19500000E+01           0.00000000E+00
  -0.19400000E+01           0.00000000E+00
  -0.19300000E+01           0.00000000E+00
  -0.19200000E+01           0.00000000E+00
  -0.19100000E+01           0.00000000E+00
  -0.19000000E+01           0.00000000E+00
  -0.18900000E+01           0.00000000E+00
  -0.18800000E+01           0.00000000E+00
  -0.18700000E+01           0.00000000E+00
  -0.18600000E+01           0.00000000E+00
  -0.18500000E+01           0.00000000E+00
  -0.18400000E+01           0.00000000E+00
  -0.18300000E+01           0.00000000E+00
  -0.18200000E+01           0.00000000E+00
  -0.18100000E+01           0.00000000E+00
  -0.18000000E+01           0.00000000E+00
  -0.17900000E+01           0.00000000E+00
  -0.17800000E+01           0.00000000E+00
  -0.17700000E+01           0.00000000E+00
  -0.17600000E+01           0.00000000E+00
  -0.17500000E+01           0.00000000E+00
  -0.17400000E+01           0.00000000E+00
  -0.17300000E+01           0.00000000E+00
  -0.17200000E+01           0.00000000E+00
  -0.17100000E+01           0.00000000E+00
  -0.17000000E+01           0.00000000E+00
  -0.16900000E+01           0.00000000E+00
  -0.16800000E+01           0.00000000E+00
  -0.16700000E+01           0.00000000E+00
  -0.16600000E+01           0.00000000E+00
  -0.16500000E+01           0.00000000E+00
  -0.16400000E+01           0.00000000E+00
  -0.16300000E+01           0.00000000E+00
  -0.16200000E+01           0.00000000E+00
  -0.16100000E+01           0.00000000E+00
  -0.16000000E+01           0.00000000E+00
  -0.15900000E+01           0.00000000E+00
  -0.15800000E+01           0.00000000E+00
  -0.15700000E+01           0.00000000E+00
  -0.15600000E+01           0.00000000E+00
  -0.15500000E+01           0.00000000E+00
  -0.15400000E+01           0.00000000E+00
  -0.15300000E+01           0.00000000E+00
  -0.15200000E+01           0.00000000E+00
  -0.15100000E+01           0.00000000E+00
  -0.15000000E+01           0.00000000E+00
  -0.14900000E+01           0.00000000E+00
  -0.14800000E+01           0.00000000E+00
  -0.14700000E+01           0.00000000E+00
  -0.14600000E+01           0.00000000E+00
  -0.14500000E+01           0.00000000E+00
  -0.14400000E+01           0.00000000E+00
  -0.14300000E+01           0.00000000E+00
  -0.14200000E+01           0.00000000E+00
  -0.14100000E+01           0.00000000E+00
  -0.14000000E+01           0.00000000E+00
  -0.13900000E+01           0.00000000E+00
  -0.13800000E+01           0.00000000E+00
  -0.13700000E+01           0.00000000E+00
  -0.13600000E+01           0.00000000E+00
  -0.13500000E+01           0.00000000E+00
  -0.13400000E+01           0.00000000E+00
  -0.13300000E+01           0.00000000E+00
  -0.13200000E+01           0.00000000E+00
  -0.13100000E+01           0.00000000E+00
  -0.13000000E+01           0.00000000E+00
  -0.12900000E+01           0.00000000E+00
  -0.12800000E+01           0.00000000E+00
  -0.12700000E+01           0.00000000E+00
  -0.12600000E+01           0.00000000E+00
  -0.12500000E+01           0.00000000E+00
  -0.12400000E+01           0.00000000E+00
  -0.12300000E+01           0.00000000E+00
  -0.12200000E+01           0.00000000E+00
  -0.12100000E+01           0.00000000E+00
  -0.12000000E+01           0.00000000E+00
  -0.11900000E+01           0.00000000E+00
  -0.11800000E+01           0.00000000E+00
  -0.11700000E+01           0.00000000E+00
  -0.11600000E+01           0.00000000E+00
  -0.11500000E+01           0.00000000E+00
  -0.11400000E+01           0.00000000E+00
  -0.11300000E+01           0.00000000E+00
  -0.11200000E+01           0.00000000E+00
  -0.11100000E+01           0.00000000E+00
  -0.11000000E+01           0.00000000E+00
  -0.10900000E+01           0.00000000E+00
  -0.10800000E+01           0.00000000E+00
  -0.10700000E+01           0.00000000E+00
  -0.10600000E+01           0.00000000E+00
  -0.10500000E+01           0.00000000E+00
  -0.10400000E+01           0.00000000E+00
  -0.10300000E+01           0.00000000E+00
  -0.10200000E+01           0.00000000E+00
  -0.10100000E+01           0.00000000E+00
  -0.10000000E+01           0.00000000E+00
  -0.99000000E+00           0.00000000E+00
  -0.98000000E+00           0.00000000E+00
  -0.97000000E+00           0.00000000E+00
  -0.96000000E+00           0.00000000E+00
  -0.95000000E+00           0.00000000E+00
  -0.94000000E+00           0.00000000E+00
  -0.93000000E+00           0.00000000E+00
  -0.92000000E+00           0.00000000E+00
  -0.91000000E+00           0.00000000E+00
  -0.90000000E+00           0.00000000E+00
  -0.89000000E+00           0.00000000E+00
  -0.88000000E+00           0.00000000E+00
  -0.87000000E+00           0.00000000E+00
  -0.86000000E+00           0.00000000E+00
  -0.85000000E+00           0.00000000E+00
  -0.84000000E+00           0.00000000E+00
  -0.83000000E+00           0.00000000E+00
  -0.82000000E+00           0.00000000E+00
  -0.81000000E+00           0.00000000E+00
  -0.80000000E+00           0.00000000E+00
  -0.79000000E+00           0.00000000E+00
  -0.78000000E+00           0.00000000E+00
  -0.77000000E+00           0.00000000E+00
  -0.76000000E+00           0.00000000E+00
  -0.75000000E+00           0.00000000E+00
  -0.74000000E+00           0.00000000E+00
  -0.73000000E+00           0.00000000E+00
  -0.72000000E+00           0.00000000E+00
  -0.71000000E+00           0.00000000E+00
  -0.70000000E+00           0.00000000E+00
  -0.69000000E+00           0.00000000E+00
  -0.68000000E+00           0.00000000E+00
  -0.67000000E+00           0.00000000E+00
  -0.66000000E+00           0.00000000E+00
  -0.65000000E+00           0.00000000E+00
  -0.64000000E+00           0.00000000E+00
  -0.63000000E+00           0.00000000E+00
  -0.62000000E+00           0.00000000E+00
  -0.61000000E+00           0.00000000E+00
  -0.60000000E+00           0.00000000E+00
  -0.59000000E+00           0.00000000E+00
  -0.58000000E+00           0.00000000E+00
  -0.57000000E+00           0.00000000E+00
  -0.56000000E+00           0.00000000E+00
  -0.55000000E+00           0.00000000E+00
  -0.54000000E+00           0.00000000E+00
  -0.53000000E+00           0.00000000E+00
  -0.52000000E+00           0.00000000E+00
  -0.51000000E+00           0.00000000E+00
  -0.50000000E+00           0.00000000E+00
  -0.49000000E+00           0.00000000E+00
  -0.48000000E+00           0.00000000E+00
  -0.47000000E+00           0.00000000E+00
  -0.46000000E+00           0.00000000E+00
  -0.45000000E+00           0.00000000E+00
  -0.44000000E+00           0.00000000E+00
  -0.43000000E+00           0.00000000E+00
  -0.42000000E+00           0.00000000E+00
  -0.41000000E+00           0.00000000E+00
  -0.40000000E+00           0.00000000E+00
  -0.39000000E+00           0.00000000E+00
  -0.38000000E+00           0.00000000E+00
  -0.37000000E+00           0.00000000E+00
  -0.36000000E+00           0.00000000E+00
  -0.35000000E+00           0.00000000E+00
  -0.34000000E+00           0.00000000E+00
  -0.33000000E+00           0.00000000E+00
  -0.32000000E+00           0.00000000E+00
  -0.31000000E+00           0.00000000E+00
  -0.30000000E+00           0.00000000E+00
  -0.29000000E+00           0.00000000E+00
  -0.28000000E+00           0.00000000E+00
  -0.27000000E+00           0.00000000E+00
  -0.26000000E+00           0.00000000E+00
  -0.25000000E+00           0.00000000E+00
  -0.24000000E+00           0.00000000E+00
  -0.23000000E+00           0.00000000E+00
  -0.22000000E+00           0.00000000E+00
  -0.21000000E+00           0.00000000E+00
  -0.20000000E+00           0.00000000E+00
  -0.19000000E+00           0.00000000E+00
  -0.18000000E+00           0.00000000E+00
  -0.17000000E+00           0.00000000E+00
  -0.16000000E+00           0.00000000E+00
  -0.15000000E+00           0.00000000E+00
  -0.14000000E+00           0.00000000E+00
  -0.13000000E+00           0.00000000E+00
  -0.12000000E+00           0.00000000E+00
  -0.11000000E+00           0.00000000E+00
  -0.10000000E+00           0.00000000E+00
  -0.90000000E-01           0.00000000E+00
  -0.80000000E-01           0.00000000E+00
  -0.70000000E-01           0.00000000E+00
  -0.60000000E-01           0.00000000E+00
  -0.50000000E-01           0.00000000E+00
  -0.40000000E-01           0.00000000E+00
  -0.30000000E-01           0.00000000E+00
  -0.20000000E-01           0.00000000E+00
  -0.10000000E-01           0.00000000E+00
   0.00000000E+00           0.35007407E-03
   0.10000000E-01           0.87877037E-02
   0.20000000E-01           0.31081333E-01
   0.30000000E-01           0.65264444E-01
   0.40000000E-01           0.10866104E+00
   0.50000000E-01           0.16038163E+00
   0.60000000E-01           0.21653733E+00
   0.70000000E-01           0.27911437E+00
   0.80000000E-01           0.34459007E+00
   0.90000000E-01           0.41131170E+00
   0.10000000E+00           0.48196148E+00
   0.11000000E+00           0.55144652E+00
   0.12000000E+00           0.62217926E+00
   0.13000000E+00           0.69105259E+00
   0.14000000E+00           0.75867570E+00
   0.15000000E+00           0.82660741E+00
   0.16000000E+00           0.89092474E+00
   0.17000000E+00           0.95543422E+00
   0.18000000E+00           0.10166108E+01
   0.19000000E+00           0.10751452E+01
   0.20000000E+00           0.11321945E+01
   0.21000000E+00           0.11837313E+01
   0.22000000E+00           0.12361196E+01
   0.23000000E+00           0.12846613E+01
   0.24000000E+00           0.13269479E+01
   0.25000000E+00           0.13709785E+01
   0.26000000E+00           0.14088905E+01
   0.27000000E+00           0.14445542E+01
   0.28000000E+00           0.14773136E+01
   0.29000000E+00           0.15077037E+01
   0.30000000E+00           0.15354178E+01
   0.31000000E+00           0.15587836E+01
   0.32000000E+00           0.15789519E+01
   0.33000000E+00           0.15972130E+01
   0.34000000E+00           0.16129615E+01
   0.35000000E+00           0.16222111E+01
   0.36000000E+00           0.16332655E+01
   0.37000000E+00           0.16380333E+01
   0.38000000E+00           0.16454267E+01
   0.39000000E+00           0.16447157E+01
   0.40000000E+00           0.16453046E+01
   0.41000000E+00           0.16418396E+01
   0.42000000E+00           0.16354130E+01
   0.43000000E+00           0.16286382E+01
   0.44000000E+00           0.16191138E+01
   0.45000000E+00           0.16065441E+01
   0.46000000E+00           0.15916861E+01
   0.47000000E+00           0.15766532E+01
   0.48000000E+00           0.15606541E+01
   0.49000000E+00           0.15406527E+01
   0.50000000E+00           0.15198776E+01
   0.51000000E+00           0.14995538E+01
   0.52000000E+00           0.14756464E+01
   0.53000000E+00           0.14491923E+01
   0.54000000E+00           0.14237816E+01
   0.55000000E+00           0.13976079E+01
   0.56000000E+00           0.13693065E+01
   0.57000000E+00           0.13411016E+01
   0.58000000E+00           0.13123819E+01
   0.59000000E+00           0.12832523E+01
   0.60000000E+00           0.12526667E+01
   0.61000000E+00           0.12210844E+01
   0.62000000E+00           0.11893123E+01
   0.63000000E+00           0.11581043E+01
   0.64000000E+00           0.11266770E+01
   0.65000000E+00           0.10955896E+01
   0.66000000E+00           0.10617393E+01
   0.67000000E+00           0.10293098E+01
   0.68000000E+00           0.99961807E+00
   0.69000000E+00           0.96668504E+00
   0.70000000E+00           0.93431481E+00
   0.71000000E+00           0.90255541E+00
   0.72000000E+00           0.87132637E+00
   0.73000000E+00           0.83980400E+00
   0.74000000E+00           0.81022400E+00
   0.75000000E+00           0.77997348E+00
   0.76000000E+00           0.74959600E+00
   0.77000000E+00           0.72154474E+00
   0.78000000E+00           0.69337348E+00
   0.79000000E+00           0.66489926E+00
   0.80000000E+00           0.63702222E+00
   0.81000000E+00           0.60958770E+00
   0.82000000E+00           0.58410030E+00
   0.83000000E+00           0.55886119E+00
   0.84000000E+00           0.53343926E+00
   0.85000000E+00           0.51036681E+00
   0.86000000E+00           0.48566459E+00
   0.87000000E+00           0.46323333E+00
   0.88000000E+00           0.44093793E+00
   0.89000000E+00           0.41971230E+00
   0.90000000E+00           0.40000341E+00
   0.91000000E+00           0.37906089E+00
   0.92000000E+00           0.36048444E+00
   0.93000000E+00           0.34155793E+00
   0.94000000E+00           0.32387881E+00
   0.95000000E+00           0.30586059E+00
   0.96000000E+00           0.29010741E+00
   0.97000000E+00           0.27424133E+00
   0.98000000E+00           0.25897956E+00
   0.99000000E+00           0.24519748E+00
   0.10000000E+01           0.23051837E+00
   0.10100000E+01           0.21722652E+00
   0.10200000E+01           0.20440726E+00
   0.10300000E+01           0.19234267E+00
   0.10400000E+01           0.18075526E+00
   0.10500000E+01           0.16981481E+00
   0.10600000E+01           0.15977837E+00
   0.10700000E+01           0.14962089E+00
   0.10800000E+01           0.14030385E+00
   0.10900000E+01           0.13153200E+00
   0.11000000E+01           0.12284104E+00
   0.11100000E+01           0.11474919E+00
   0.11200000E+01           0.10764519E+00
   0.11300000E+01           0.10008785E+00
   0.11400000E+01           0.93201630E-01
   0.11500000E+01           0.87208296E-01
   0.11600000E+01           0.81442370E-01
   0.11700000E+01           0.75722519E-01
   0.11800000E+01           0.70263852E-01
   0.11900000E+01           0.65422815E-01
   0.12000000E+01           0.60526222E-01
   0.12100000E+01           0.56013630E-01
   0.12200000E+01           0.51986667E-01
   0.12300000E+01           0.48172889E-01
   0.12400000E+01           0.44741333E-01
   0.12500000E+01           0.41274667E-01
   0.12600000E+01           0.38340741E-01
   0.12700000E+01           0.35333333E-01
   0.12800000E+01           0.32721037E-01
   0.12900000E+01           0.30151704E-01
   0.13000000E+01           0.27774963E-01
   0.13100000E+01           0.25457037E-01
   0.13200000E+01           0.23293481E-01
   0.13300000E+01           0.21493481E-01
   0.13400000E+01           0.19701778E-01
   0.13500000E+01           0.18101185E-01
   0.13600000E+01           0.16678815E-01
   0.13700000E+01           0.15189630E-01
   0.13800000E+01           0.14048593E-01
   0.13900000E+01           0.12873333E-01
   0.14000000E+01           0.11711704E-01
   0.14100000E+01           0.10814815E-01
   0.14200000E+01           0.97106667E-02
   0.14300000E+01           0.89377778E-02
   0.14400000E+01           0.81505185E-02
   0.14500000E+01           0.74622222E-02
   0.14600000E+01           0.66057778E-02
   0.14700000E+01           0.61924444E-02
   0.14800000E+01           0.55416296E-02
   0.14900000E+01           0.50488889E-02
   0.15000000E+01           0.45143704E-02
   0.15100000E+01           0.41863704E-02
   0.15200000E+01           0.37640000E-02
   0.15300000E+01           0.34149630E-02
   0.15400000E+01           0.30423704E-02
   0.15500000E+01           0.27834074E-02
   0.15600000E+01           0.24592593E-02
   0.15700000E+01           0.23176296E-02
   0.15800000E+01           0.20497778E-02
   0.15900000E+01           0.18539259E-02
   0.16000000E+01           0.16451852E-02
   0.16100000E+01           0.14850370E-02
   0.16200000E+01           0.13625185E-02
   0.16300000E+01           0.11917037E-02
   0.16400000E+01           0.10829630E-02
   0.16500000E+01           0.93985185E-03
   0.16600000E+01           0.84533333E-03
   0.16700000E+01           0.79866667E-03
   0.16800000E+01           0.67511111E-03
   0.16900000E+01           0.62814815E-03
   0.17000000E+01           0.54059259E-03
   0.17100000E+01           0.49422222E-03
   0.17200000E+01           0.44400000E-03
   0.17300000E+01           0.41585185E-03
   0.17400000E+01           0.35377778E-03
   0.17500000E+01           0.32059259E-03
   0.17600000E+01           0.26918519E-03
   0.17700000E+01           0.24770370E-03
   0.17800000E+01           0.21525926E-03
   0.17900000E+01           0.19985185E-03
   0.18000000E+01           0.16355556E-03
   0.18100000E+01           0.15288889E-03
   0.18200000E+01           0.14370370E-03
   0.18300000E+01           0.12666667E-03
   0.18400000E+01           0.97777778E-04
   0.18500000E+01           0.86222222E-04
   0.18600000E+01           0.87851852E-04
   0.18700000E+01           0.75111111E-04
   0.18800000E+01           0.64592593E-04
   0.18900000E+01           0.54962963E-04
   0.19000000E+01           0.50074074E-04
   0.19100000E+01           0.43111111E-04
   0.19200000E+01           0.39851852E-04
   0.19300000E+01           0.31111111E-04
   0.19400000E+01           0.30666667E-04
   0.19500000E+01           0.26370370E-04
   0.19600000E+01           0.19851852E-04
   0.19700000E+01           0.16000000E-04
   0.19800000E+01           0.15259259E-04
   0.19900000E+01           0.10962963E-04
   0.20000000E+01           0.14222222E-04
   0.20100000E+01           0.10518519E-04
   0.20200000E+01           0.84444444E-05
   0.20300000E+01           0.77037037E-05
   0.20400000E+01           0.90370370E-05
   0.20500000E+01           0.59259259E-05
   0.20600000E+01           0.68148148E-05
   0.20700000E+01           0.48888889E-05
   0.20800000E+01           0.54814815E-05
   0.20900000E+01           0.32592593E-05
   0.21000000E+01           0.26666667E-05
   0.21100000E+01           0.23703704E-05
   0.21200000E+01           0.26666667E-05
   0.21300000E+01           0.25185185E-05
   0.21400000E+01           0.74074074E-06
   0.21500000E+01           0.88888889E-06
   0.21600000E+01           0.11851852E-05
   0.21700000E+01           0.10370370E-05
   0.21800000E+01           0.11851852E-05
   0.21900000E+01           0.13333333E-05
   0.22000000E+01           0.44444444E-06
   0.22100000E+01           0.44444444E-06
   0.22200000E+01           0.29629630E-06
   0.22300000E+01           0.29629630E-06
   0.22400000E+01           0.29629630E-06
   0.22500000E+01           0.14814815E-06
   0.22600000E+01           0.14814815E-06
   0.22700000E+01           0.14814815E-06
   0.22800000E+01           0.44444444E-06
   0.22900000E+01           0.00000000E+00
   0.23000000E+01           0.29629630E-06
   0.23100000E+01           0.29629630E-06
   0.23200000E+01           0.29629630E-06
   0.23300000E+01           0.00000000E+00
   0.23400000E+01           0.00000000E+00
   0.23500000E+01           0.00000000E+00
   0.23600000E+01           0.00000000E+00
   0.23700000E+01           0.00000000E+00
   0.23800000E+01           0.00000000E+00
   0.23900000E+01           0.00000000E+00
   0.24000000E+01           0.00000000E+00
   0.24100000E+01           0.00000000E+00
   0.24200000E+01           0.00000000E+00
   0.24300000E+01           0.00000000E+00
   0.24400000E+01           0.00000000E+00
   0.24500000E+01           0.00000000E+00
   0.24600000E+01           0.00000000E+00
   0.24700000E+01           0.00000000E+00
   0.24800000E+01           0.00000000E+00
   0.24900000E+01           0.00000000E+00
   0.25000000E+01           0.00000000E+00
   0.25100000E+01           0.00000000E+00
   0.25200000E+01           0.00000000E+00
   0.25300000E+01           0.00000000E+00
   0.25400000E+01           0.00000000E+00
   0.25500000E+01           0.00000000E+00
   0.25600000E+01           0.00000000E+00
   0.25700000E+01           0.00000000E+00
   0.25800000E+01           0.00000000E+00
   0.25900000E+01           0.00000000E+00
   0.26000000E+01           0.00000000E+00
   0.26100000E+01           0.00000000E+00
   0.26200000E+01           0.00000000E+00
   0.26300000E+01           0.00000000E+00
   0.26400000E+01           0.00000000E+00
   0.26500000E+01           0.00000000E+00
   0.26600000E+01           0.00000000E+00
   0.26700000E+01           0.00000000E+00
   0.26800000E+01           0.00000000E+00
   0.26900000E+01           0.00000000E+00
   0.27000000E+01           0.00000000E+00
   0.27100000E+01           0.00000000E+00
   0.27200000E+01           0.00000000E+00
   0.27300000E+01           0.00000000E+00
   0.27400000E+01           0.00000000E+00
   0.27500000E+01           0.00000000E+00
   0.27600000E+01           0.00000000E+00
   0.27700000E+01           0.00000000E+00
   0.27800000E+01           0.00000000E+00
   0.27900000E+01           0.00000000E+00
   0.28000000E+01           0.00000000E+00
   0.28100000E+01           0.00000000E+00
   0.28200000E+01           0.00000000E+00
   0.28300000E+01           0.00000000E+00
   0.28400000E+01           0.00000000E+00
   0.28500000E+01           0.00000000E+00
   0.28600000E+01           0.00000000E+00
   0.28700000E+01           0.00000000E+00
   0.28800000E+01           0.00000000E+00
   0.28900000E+01           0.00000000E+00
   0.29000000E+01           0.00000000E+00
   0.29100000E+01           0.00000000E+00
   0.29200000E+01           0.00000000E+00
   0.29300000E+01           0.00000000E+00
   0.29400000E+01           0.00000000E+00
   0.29500000E+01           0.00000000E+00
   0.29600000E+01           0.00000000E+00
   0.29700000E+01           0.00000000E+00
   0.29800000E+01           0.00000000E+00
   0.29900000E+01           0.00000000E+00
   0.30000000E+01           0.00000000E+00
   0.30100000E+01           0.00000000E+00
   0.30200000E+01           0.00000000E+00
   0.30300000E+01           0.00000000E+00
   0.30400000E+01           0.00000000E+00
   0.30500000E+01           0.00000000E+00
   0.30600000E+01           0.00000000E+00
   0.30700000E+01           0.00000000E+00
   0.30800000E+01           0.00000000E+00
   0.30900000E+01           0.00000000E+00
   0.31000000E+01           0.00000000E+00
   0.31100000E+01           0.00000000E+00
   0.31200000E+01           0.00000000E+00
   0.31300000E+01           0.00000000E+00
   0.31400000E+01           0.00000000E+00
   0.31500000E+01           0.00000000E+00
   0.31600000E+01           0.00000000E+00
   0.31700000E+01           0.00000000E+00
   0.31800000E+01           0.00000000E+00
   0.31900000E+01           0.00000000E+00
   0.32000000E+01           0.00000000E+00
   0.32100000E+01           0.00000000E+00
   0.32200000E+01           0.00000000E+00
   0.32300000E+01           0.00000000E+00
   0.32400000E+01           0.00000000E+00
   0.32500000E+01           0.00000000E+00
   0.32600000E+01           0.00000000E+00
   0.32700000E+01           0.00000000E+00
   0.32800000E+01           0.00000000E+00
   0.32900000E+01           0.00000000E+00
   0.33000000E+01           0.00000000E+00
   0.33100000E+01           0.00000000E+00
   0.33200000E+01           0.00000000E+00
   0.33300000E+01           0.00000000E+00
   0.33400000E+01           0.00000000E+00
   0.33500000E+01           0.00000000E+00
   0.33600000E+01           0.00000000E+00
   0.33700000E+01           0.00000000E+00
   0.33800000E+01           0.00000000E+00
   0.33900000E+01           0.00000000E+00
   0.34000000E+01           0.00000000E+00
   0.34100000E+01           0.00000000E+00
   0.34200000E+01           0.00000000E+00
   0.34300000E+01           0.00000000E+00
   0.34400000E+01           0.00000000E+00
   0.34500000E+01           0.00000000E+00
   0.34600000E+01           0.00000000E+00
   0.34700000E+01           0.00000000E+00
   0.34800000E+01           0.00000000E+00
   0.34900000E+01           0.00000000E+00
   0.35000000E+01           0.00000000E+00
   0.35100000E+01           0.00000000E+00
   0.35200000E+01           0.00000000E+00
   0.35300000E+01           0.00000000E+00
   0.35400000E+01           0.00000000E+00
   0.35500000E+01           0.00000000E+00
   0.35600000E+01           0.00000000E+00
   0.35700000E+01           0.00000000E+00
   0.35800000E+01           0.00000000E+00
   0.35900000E+01           0.00000000E+00
   0.36000000E+01           0.00000000E+00
   0.36100000E+01           0.00000000E+00
   0.36200000E+01           0.00000000E+00
   0.36300000E+01           0.00000000E+00
   0.36400000E+01           0.00000000E+00
   0.36500000E+01           0.00000000E+00
   0.36600000E+01           0.00000000E+00
   0.36700000E+01           0.00000000E+00
   0.36800000E+01           0.00000000E+00
   0.36900000E+01           0.00000000E+00
   0.37000000E+01           0.00000000E+00
   0.37100000E+01           0.00000000E+00
   0.37200000E+01           0.00000000E+00
   0.37300000E+01           0.00000000E+00
   0.37400000E+01           0.00000000E+00
   0.37500000E+01           0.00000000E+00
   0.37600000E+01           0.00000000E+00
   0.37700000E+01           0.00000000E+00
   0.37800000E+01           0.00000000E+00
   0.37900000E+01           0.00000000E+00
   0.38000000E+01           0.00000000E+00
   0.38100000E+01           0.00000000E+00
   0.38200000E+01           0.00000000E+00
   0.38300000E+01           0.00000000E+00
   0.38400000E+01           0.00000000E+00
   0.38500000E+01           0.00000000E+00
   0.38600000E+01           0.00000000E+00
   0.38700000E+01           0.00000000E+00
   0.38800000E+01           0.00000000E+00
   0.38900000E+01           0.00000000E+00
   0.39000000E+01           0.00000000E+00
   0.39100000E+01           0.00000000E+00
   0.39200000E+01           0.00000000E+00
   0.39300000E+01           0.00000000E+00
   0.39400000E+01           0.00000000E+00
   0.39500000E+01           0.00000000E+00
   0.39600000E+01           0.00000000E+00
   0.39700000E+01           0.00000000E+00
   0.39800000E+01           0.00000000E+00
   0.39900000E+01           0.00000000E+00
   0.40000000E+01           0.00000000E+00
 #T=    52.6000
  -0.40000000E+01           0.00000000E+00
  -0.39900000E+01           0.00000000E+00
  -0.39800000E+01           0.00000000E+00
  -0.39700000E+01           0.00000000E+00
  -0.39600000E+01           0.00000000E+00
  -0.39500000E+01           0.00000000E+00
  -0.39400000E+01           0.00000000E+00
  -0.39300000E+01           0.00000000E+00
  -0.39200000E+01           0.00000000E+00
  -0.39100000E+01           0.00000000E+00
  -0.39000000E+01           0.00000000E+00
  -0.38900000E+01           0.00000000E+00
  -0.38800000E+01           0.00000000E+00
  -0.38700000E+01           0.00000000E+00
  -0.38600000E+01           0.00000000E+00
  -0.38500000E+01           0.00000000E+00
  -0.38400000E+01           0.00000000E+00
  -0.38300000E+01           0.00000000E+00
  -0.38200000E+01           0.00000000E+00
  -0.38100000E+01           0.00000000E+00
  -0.38000000E+01           0.00000000E+00
  -0.37900000E+01           0.00000000E+00
  -0.37800000E+01           0.00000000E+00
  -0.37700000E+01           0.00000000E+00
  -0.37600000E+01           0.00000000E+00
  -0.37500000E+01           0.00000000E+00
  -0.37400000E+01           0.00000000E+00
  -0.37300000E+01           0.00000000E+00
  -0.37200000E+01           0.00000000E+00
  -0.37100000E+01           0.00000000E+00
  -0.37000000E+01           0.00000000E+00
  -0.36900000E+01           0.00000000E+00
  -0.36800000E+01           0.00000000E+00
  -0.36700000E+01           0.00000000E+00
  -0.36600000E+01           0.00000000E+00
  -0.36500000E+01           0.00000000E+00
  -0.36400000E+01           0.00000000E+00
  -0.36300000E+01           0.00000000E+00
  -0.36200000E+01           0.00000000E+00
  -0.36100000E+01           0.00000000E+00
  -0.36000000E+01           0.00000000E+00
  -0.35900000E+01           0.00000000E+00
  -0.35800000E+01           0.00000000E+00
  -0.35700000E+01           0.00000000E+00
  -0.35600000E+01           0.00000000E+00
  -0.35500000E+01           0.00000000E+00
  -0.35400000E+01           0.00000000E+00
  -0.35300000E+01           0.00000000E+00
  -0.35200000E+01           0.00000000E+00
  -0.35100000E+01           0.00000000E+00
  -0.35000000E+01           0.00000000E+00
  -0.34900000E+01           0.00000000E+00
  -0.34800000E+01           0.00000000E+00
  -0.34700000E+01           0.00000000E+00
  -0.34600000E+01           0.00000000E+00
  -0.34500000E+01           0.00000000E+00
  -0.34400000E+01           0.00000000E+00
  -0.34300000E+01           0.00000000E+00
  -0.34200000E+01           0.00000000E+00
  -0.34100000E+01           0.00000000E+00
  -0.34000000E+01           0.00000000E+00
  -0.33900000E+01           0.00000000E+00
  -0.33800000E+01           0.00000000E+00
  -0.33700000E+01           0.00000000E+00
  -0.33600000E+01           0.00000000E+00
  -0.33500000E+01           0.00000000E+00
  -0.33400000E+01           0.00000000E+00
  -0.33300000E+01           0.00000000E+00
  -0.33200000E+01           0.00000000E+00
  -0.33100000E+01           0.00000000E+00
  -0.33000000E+01           0.00000000E+00
  -0.32900000E+01           0.00000000E+00
  -0.32800000E+01           0.00000000E+00
  -0.32700000E+01           0.00000000E+00
  -0.32600000E+01           0.00000000E+00
  -0.32500000E+01           0.00000000E+00
  -0.32400000E+01           0.00000000E+00
  -0.32300000E+01           0.00000000E+00
  -0.32200000E+01           0.00000000E+00
  -0.32100000E+01           0.00000000E+00
  -0.32000000E+01           0.00000000E+00
  -0.31900000E+01           0.00000000E+00
  -0.31800000E+01           0.00000000E+00
  -0.31700000E+01           0.00000000E+00
  -0.31600000E+01           0.00000000E+00
  -0.31500000E+01           0.00000000E+00
  -0.31400000E+01           0.00000000E+00
  -0.31300000E+01           0.00000000E+00
  -0.31200000E+01           0.00000000E+00
  -0.31100000E+01           0.00000000E+00
  -0.31000000E+01           0.00000000E+00
  -0.30900000E+01           0.00000000E+00
  -0.30800000E+01           0.00000000E+00
  -0.30700000E+01           0.00000000E+00
  -0.30600000E+01           0.00000000E+00
  -0.30500000E+01           0.00000000E+00
  -0.30400000E+01           0.00000000E+00
  -0.30300000E+01           0.00000000E+00
  -0.30200000E+01           0.00000000E+00
  -0.30100000E+01           0.00000000E+00
  -0.30000000E+01           0.00000000E+00
  -0.29900000E+01           0.00000000E+00
  -0.29800000E+01           0.00000000E+00
  -0.29700000E+01           0.00000000E+00
  -0.29600000E+01           0.00000000E+00
  -0.29500000E+01           0.00000000E+00
  -0.29400000E+01           0.00000000E+00
  -0.29300000E+01           0.00000000E+00
  -0.29200000E+01           0.00000000E+00
  -0.29100000E+01           0.00000000E+00
  -0.29000000E+01           0.00000000E+00
  -0.28900000E+01           0.00000000E+00
  -0.28800000E+01           0.00000000E+00
  -0.28700000E+01           0.00000000E+00
  -0.28600000E+01           0.00000000E+00
  -0.28500000E+01           0.00000000E+00
  -0.28400000E+01           0.00000000E+00
  -0.28300000E+01           0.00000000E+00
  -0.28200000E+01           0.00000000E+00
  -0.28100000E+01           0.00000000E+00
  -0.28000000E+01           0.00000000E+00
  -0.27900000E+01           0.00000000E+00
  -0.27800000E+01           0.00000000E+00
  -0.27700000E+01           0.00000000E+00
  -0.27600000E+01           0.00000000E+00
  -0.27500000E+01           0.00000000E+00
  -0.27400000E+01           0.00000000E+00
  -0.27300000E+01           0.00000000E+00
  -0.27200000E+01           0.00000000E+00
  -0.27100000E+01           0.00000000E+00
  -0.27000000E+01           0.00000000E+00
  -0.26900000E+01           0.00000000E+00
  -0.26800000E+01           0.00000000E+00
  -0.26700000E+01           0.00000000E+00
  -0.26600000E+01           0.00000000E+00
  -0.26500000E+01           0.00000000E+00
  -0.26400000E+01           0.00000000E+00
  -0.26300000E+01           0.00000000E+00
  -0.26200000E+01           0.00000000E+00
  -0.26100000E+01           0.00000000E+00
  -0.26000000E+01           0.00000000E+00
  -0.25900000E+01           0.00000000E+00
  -0.25800000E+01           0.00000000E+00
  -0.25700000E+01           0.00000000E+00
  -0.25600000E+01           0.00000000E+00
  -0.25500000E+01           0.00000000E+00
  -0.25400000E+01           0.00000000E+00
  -0.25300000E+01           0.00000000E+00
  -0.25200000E+01           0.00000000E+00
  -0.25100000E+01           0.00000000E+00
  -0.25000000E+01           0.00000000E+00
  -0.24900000E+01           0.00000000E+00
  -0.24800000E+01           0.00000000E+00
  -0.24700000E+01           0.00000000E+00
  -0.24600000E+01           0.00000000E+00
  -0.24500000E+01           0.00000000E+00
  -0.24400000E+01           0.00000000E+00
  -0.24300000E+01           0.00000000E+00
  -0.24200000E+01           0.00000000E+00
  -0.24100000E+01           0.00000000E+00
  -0.24000000E+01           0.00000000E+00
  -0.23900000E+01           0.00000000E+00
  -0.23800000E+01           0.00000000E+00
  -0.23700000E+01           0.00000000E+00
  -0.23600000E+01           0.00000000E+00
  -0.23500000E+01           0.00000000E+00
  -0.23400000E+01           0.00000000E+00
  -0.23300000E+01           0.00000000E+00
  -0.23200000E+01           0.00000000E+00
  -0.23100000E+01           0.00000000E+00
  -0.23000000E+01           0.00000000E+00
  -0.22900000E+01           0.00000000E+00
  -0.22800000E+01           0.00000000E+00
  -0.22700000E+01           0.00000000E+00
  -0.22600000E+01           0.00000000E+00
  -0.22500000E+01           0.00000000E+00
  -0.22400000E+01           0.00000000E+00
  -0.22300000E+01           0.00000000E+00
  -0.22200000E+01           0.00000000E+00
  -0.22100000E+01           0.00000000E+00
  -0.22000000E+01           0.00000000E+00
  -0.21900000E+01           0.00000000E+00
  -0.21800000E+01           0.00000000E+00
  -0.21700000E+01           0.00000000E+00
  -0.21600000E+01           0.00000000E+00
  -0.21500000E+01           0.00000000E+00
  -0.21400000E+01           0.00000000E+00
  -0.21300000E+01           0.00000000E+00
  -0.21200000E+01           0.00000000E+00
  -0.21100000E+01           0.00000000E+00
  -0.21000000E+01           0.00000000E+00
  -0.20900000E+01           0.00000000E+00
  -0.20800000E+01           0.00000000E+00
  -0.20700000E+01           0.00000000E+00
  -0.20600000E+01           0.00000000E+00
  -0.20500000E+01           0.00000000E+00
  -0.20400000E+01           0.00000000E+00
  -0.20300000E+01           0.00000000E+00
  -0.20200000E+01           0.00000000E+00
  -0.20100000E+01           0.00000000E+00
  -0.20000000E+01           0.00000000E+00
  -0.19900000E+01           0.00000000E+00
  -0.19800000E+01           0.00000000E+00
  -0.19700000E+01           0.00000000E+00
  -0.19600000E+01           0.00000000E+00
  -0.19500000E+01           0.00000000E+00
  -0.19400000E+01           0.00000000E+00
  -0.19300000E+01           0.00000000E+00
  -0.19200000E+01           0.00000000E+00
  -0.19100000E+01           0.00000000E+00
  -0.19000000E+01           0.00000000E+00
  -0.18900000E+01           0.00000000E+00
  -0.18800000E+01           0.00000000E+00
  -0.18700000E+01           0.00000000E+00
  -0.18600000E+01           0.00000000E+00
  -0.18500000E+01           0.00000000E+00
  -0.18400000E+01           0.00000000E+00
  -0.18300000E+01           0.00000000E+00
  -0.18200000E+01           0.00000000E+00
  -0.18100000E+01           0.00000000E+00
  -0.18000000E+01           0.00000000E+00
  -0.17900000E+01           0.00000000E+00
  -0.17800000E+01           0.00000000E+00
  -0.17700000E+01           0.00000000E+00
  -0.17600000E+01           0.00000000E+00
  -0.17500000E+01           0.00000000E+00
  -0.17400000E+01           0.00000000E+00
  -0.17300000E+01           0.00000000E+00
  -0.17200000E+01           0.00000000E+00
  -0.17100000E+01           0.00000000E+00
  -0.17000000E+01           0.00000000E+00
  -0.16900000E+01           0.00000000E+00
  -0.16800000E+01           0.00000000E+00
  -0.16700000E+01           0.00000000E+00
  -0.16600000E+01           0.00000000E+00
  -0.16500000E+01           0.00000000E+00
  -0.16400000E+01           0.00000000E+00
  -0.16300000E+01           0.00000000E+00
  -0.16200000E+01           0.00000000E+00
  -0.16100000E+01           0.00000000E+00
  -0.16000000E+01           0.00000000E+00
  -0.15900000E+01           0.00000000E+00
  -0.15800000E+01           0.00000000E+00
  -0.15700000E+01           0.00000000E+00
  -0.15600000E+01           0.00000000E+00
  -0.15500000E+01           0.00000000E+00
  -0.15400000E+01           0.00000000E+00
  -0.15300000E+01           0.00000000E+00
  -0.15200000E+01           0.00000000E+00
  -0.15100000E+01           0.00000000E+00
  -0.15000000E+01           0.00000000E+00
  -0.14900000E+01           0.00000000E+00
  -0.14800000E+01           0.00000000E+00
  -0.14700000E+01           0.00000000E+00
  -0.14600000E+01           0.00000000E+00
  -0.14500000E+01           0.00000000E+00
  -0.14400000E+01           0.00000000E+00
  -0.14300000E+01           0.00000000E+00
  -0.14200000E+01           0.00000000E+00
  -0.14100000E+01           0.00000000E+00
  -0.14000000E+01           0.00000000E+00
  -0.13900000E+01           0.00000000E+00
  -0.13800000E+01           0.00000000E+00
  -0.13700000E+01           0.00000000E+00
  -0.13600000E+01           0.00000000E+00
  -0.13500000E+01           0.00000000E+00
  -0.13400000E+01           0.00000000E+00
  -0.13300000E+01           0.00000000E+00
  -0.13200000E+01           0.00000000E+00
  -0.13100000E+01           0.00000000E+00
  -0.13000000E+01           0.00000000E+00
  -0.12900000E+01           0.00000000E+00
  -0.12800000E+01           0.00000000E+00
  -0.12700000E+01           0.00000000E+00
  -0.12600000E+01           0.00000000E+00
  -0.12500000E+01           0.00000000E+00
  -0.12400000E+01           0.00000000E+00
  -0.12300000E+01           0.00000000E+00
  -0.12200000E+01           0.00000000E+00
  -0.12100000E+01           0.00000000E+00
  -0.12000000E+01           0.00000000E+00
  -0.11900000E+01           0.00000000E+00
  -0.11800000E+01           0.00000000E+00
  -0.11700000E+01           0.00000000E+00
  -0.11600000E+01           0.00000000E+00
  -0.11500000E+01           0.00000000E+00
  -0.11400000E+01           0.00000000E+00
  -0.11300000E+01           0.00000000E+00
  -0.11200000E+01           0.00000000E+00
  -0.11100000E+01           0.00000000E+00
  -0.11000000E+01           0.00000000E+00
  -0.10900000E+01           0.00000000E+00
  -0.10800000E+01           0.00000000E+00
  -0.10700000E+01           0.00000000E+00
  -0.10600000E+01           0.00000000E+00
  -0.10500000E+01           0.00000000E+00
  -0.10400000E+01           0.00000000E+00
  -0.10300000E+01           0.00000000E+00
  -0.10200000E+01           0.00000000E+00
  -0.10100000E+01           0.00000000E+00
  -0.10000000E+01           0.00000000E+00
  -0.99000000E+00           0.00000000E+00
  -0.98000000E+00           0.00000000E+00
  -0.97000000E+00           0.00000000E+00
  -0.96000000E+00           0.00000000E+00
  -0.95000000E+00           0.00000000E+00
  -0.94000000E+00           0.00000000E+00
  -0.93000000E+00           0.00000000E+00
  -0.92000000E+00           0.00000000E+00
  -0.91000000E+00           0.00000000E+00
  -0.90000000E+00           0.00000000E+00
  -0.89000000E+00           0.00000000E+00
  -0.88000000E+00           0.00000000E+00
  -0.87000000E+00           0.00000000E+00
  -0.86000000E+00           0.00000000E+00
  -0.85000000E+00           0.00000000E+00
  -0.84000000E+00           0.00000000E+00
  -0.83000000E+00           0.00000000E+00
  -0.82000000E+00           0.00000000E+00
  -0.81000000E+00           0.00000000E+00
  -0.80000000E+00           0.00000000E+00
  -0.79000000E+00           0.00000000E+00
  -0.78000000E+00           0.00000000E+00
  -0.77000000E+00           0.00000000E+00
  -0.76000000E+00           0.00000000E+00
  -0.75000000E+00           0.00000000E+00
  -0.74000000E+00           0.00000000E+00
  -0.73000000E+00           0.00000000E+00
  -0.72000000E+00           0.00000000E+00
  -0.71000000E+00           0.00000000E+00
  -0.70000000E+00           0.00000000E+00
  -0.69000000E+00           0.00000000E+00
  -0.68000000E+00           0.00000000E+00
  -0.67000000E+00           0.00000000E+00
  -0.66000000E+00           0.00000000E+00
  -0.65000000E+00           0.00000000E+00
  -0.64000000E+00           0.00000000E+00
  -0.63000000E+00           0.00000000E+00
  -0.62000000E+00           0.00000000E+00
  -0.61000000E+00           0.00000000E+00
  -0.60000000E+00           0.00000000E+00
  -0.59000000E+00           0.00000000E+00
  -0.58000000E+00           0.00000000E+00
  -0.57000000E+00           0.00000000E+00
  -0.56000000E+00           0.00000000E+00
  -0.55000000E+00           0.00000000E+00
  -0.54000000E+00           0.00000000E+00
  -0.53000000E+00           0.00000000E+00
  -0.52000000E+00           0.00000000E+00
  -0.51000000E+00           0.00000000E+00
  -0.50000000E+00           0.00000000E+00
  -0.49000000E+00           0.00000000E+00
  -0.48000000E+00           0.00000000E+00
  -0.47000000E+00           0.00000000E+00
  -0.46000000E+00           0.00000000E+00
  -0.45000000E+00           0.00000000E+00
  -0.44000000E+00           0.00000000E+00
  -0.43000000E+00           0.00000000E+00
  -0.42000000E+00           0.00000000E+00
  -0.41000000E+00           0.00000000E+00
  -0.40000000E+00           0.00000000E+00
  -0.39000000E+00           0.00000000E+00
  -0.38000000E+00           0.00000000E+00
  -0.37000000E+00           0.00000000E+00
  -0.36000000E+00           0.00000000E+00
  -0.35000000E+00           0.00000000E+00
  -0.34000000E+00           0.00000000E+00
  -0.33000000E+00           0.00000000E+00
  -0.32000000E+00           0.00000000E+00
  -0.31000000E+00           0.00000000E+00
  -0.30000000E+00           0.00000000E+00
  -0.29000000E+00           0.00000000E+00
  -0.28000000E+00           0.00000000E+00
  -0.27000000E+00           0.00000000E+00
  -0.26000000E+00           0.00000000E+00
  -0.25000000E+00           0.00000000E+00
  -0.24000000E+00           0.00000000E+00
  -0.23000000E+00           0.00000000E+00
  -0.22000000E+00           0.00000000E+00
  -0.21000000E+00           0.00000000E+00
  -0.20000000E+00           0.00000000E+00
  -0.19000000E+00           0.00000000E+00
  -0.18000000E+00           0.00000000E+00
  -0.17000000E+00           0.00000000E+00
  -0.16000000E+00           0.00000000E+00
  -0.15000000E+00           0.00000000E+00
  -0.14000000E+00           0.00000000E+00
  -0.13000000E+00           0.00000000E+00
  -0.12000000E+00           0.00000000E+00
  -0.11000000E+00           0.00000000E+00
  -0.10000000E+00           0.00000000E+00
  -0.90000000E-01           0.00000000E+00
  -0.80000000E-01           0.00000000E+00
  -0.70000000E-01           0.00000000E+00
  -0.60000000E-01           0.00000000E+00
  -0.50000000E-01           0.00000000E+00
  -0.40000000E-01           0.00000000E+00
  -0.30000000E-01           0.00000000E+00
  -0.20000000E-01           0.00000000E+00
  -0.10000000E-01           0.00000000E+00
   0.00000000E+00           0.30518519E-03
   0.10000000E-01           0.78522963E-02
   0.20000000E-01           0.28079111E-01
   0.30000000E-01           0.59062815E-01
   0.40000000E-01           0.99097630E-01
   0.50000000E-01           0.14662311E+00
   0.60000000E-01           0.19972874E+00
   0.70000000E-01           0.25716059E+00
   0.80000000E-01           0.31743170E+00
   0.90000000E-01           0.38091052E+00
   0.10000000E+00           0.44689022E+00
   0.11000000E+00           0.51211126E+00
   0.12000000E+00           0.57915437E+00
   0.13000000E+00           0.64513289E+00
   0.14000000E+00           0.71075511E+00
   0.15000000E+00           0.77608178E+00
   0.16000000E+00           0.83818252E+00
   0.17000000E+00           0.90020148E+00
   0.18000000E+00           0.95920311E+00
   0.19000000E+00           0.10160145E+01
   0.20000000E+00           0.10714410E+01
   0.21000000E+00           0.11239773E+01
   0.22000000E+00           0.11721615E+01
   0.23000000E+00           0.12222470E+01
   0.24000000E+00           0.12671582E+01
   0.25000000E+00           0.13088987E+01
   0.26000000E+00           0.13488984E+01
   0.27000000E+00           0.13845298E+01
   0.28000000E+00           0.14181181E+01
   0.29000000E+00           0.14483890E+01
   0.30000000E+00           0.14770339E+01
   0.31000000E+00           0.15007739E+01
   0.32000000E+00           0.15259881E+01
   0.33000000E+00           0.15438496E+01
   0.34000000E+00           0.15603710E+01
   0.35000000E+00           0.15753087E+01
   0.36000000E+00           0.15860166E+01
   0.37000000E+00           0.15967997E+01
   0.38000000E+00           0.16009455E+01
   0.39000000E+00           0.16047132E+01
   0.40000000E+00           0.16061273E+01
   0.41000000E+00           0.16065754E+01
   0.42000000E+00           0.16032877E+01
   0.43000000E+00           0.15996519E+01
   0.44000000E+00           0.15912760E+01
   0.45000000E+00           0.15823748E+01
   0.46000000E+00           0.15728935E+01
   0.47000000E+00           0.15583465E+01
   0.48000000E+00           0.15439289E+01
   0.49000000E+00           0.15268690E+01
   0.50000000E+00           0.15104969E+01
   0.51000000E+00           0.14900000E+01
   0.52000000E+00           0.14707539E+01
   0.53000000E+00           0.14500736E+01
   0.54000000E+00           0.14266207E+01
   0.55000000E+00           0.14018116E+01
   0.56000000E+00           0.13750382E+01
   0.57000000E+00           0.13509535E+01
   0.58000000E+00           0.13242582E+01
   0.59000000E+00           0.12964095E+01
   0.60000000E+00           0.12678338E+01
   0.61000000E+00           0.12389021E+01
   0.62000000E+00           0.12100130E+01
   0.63000000E+00           0.11803844E+01
   0.64000000E+00           0.11509025E+01
   0.65000000E+00           0.11200870E+01
   0.66000000E+00           0.10885093E+01
   0.67000000E+00           0.10586890E+01
   0.68000000E+00           0.10284597E+01
   0.69000000E+00           0.99779378E+00
   0.70000000E+00           0.96764622E+00
   0.71000000E+00           0.93582785E+00
   0.72000000E+00           0.90653244E+00
   0.73000000E+00           0.87617778E+00
   0.74000000E+00           0.84626415E+00
   0.75000000E+00           0.81699896E+00
   0.76000000E+00           0.78756696E+00
   0.77000000E+00           0.76012785E+00
   0.78000000E+00           0.73148326E+00
   0.79000000E+00           0.70253733E+00
   0.80000000E+00           0.67648741E+00
   0.81000000E+00           0.64961467E+00
   0.82000000E+00           0.62432193E+00
   0.83000000E+00           0.59708548E+00
   0.84000000E+00           0.57296859E+00
   0.85000000E+00           0.54744267E+00
   0.86000000E+00           0.52460756E+00
   0.87000000E+00           0.50056800E+00
   0.88000000E+00           0.47846948E+00
   0.89000000E+00           0.45732089E+00
   0.90000000E+00           0.43543126E+00
   0.91000000E+00           0.41543496E+00
   0.92000000E+00           0.39578341E+00
   0.93000000E+00           0.37501393E+00
   0.94000000E+00           0.35788785E+00
   0.95000000E+00           0.33986652E+00
   0.96000000E+00           0.32261230E+00
   0.97000000E+00           0.30548741E+00
   0.98000000E+00           0.28948756E+00
   0.99000000E+00           0.27458874E+00
   0.10000000E+01           0.25885600E+00
   0.10100000E+01           0.24502474E+00
   0.10200000E+01           0.23234785E+00
   0.10300000E+01           0.21852933E+00
   0.10400000E+01           0.20696800E+00
   0.10500000E+01           0.19503585E+00
   0.10600000E+01           0.18343481E+00
   0.10700000E+01           0.17257393E+00
   0.10800000E+01           0.16212015E+00
   0.10900000E+01           0.15262148E+00
   0.11000000E+01           0.14351452E+00
   0.11100000E+01           0.13460281E+00
   0.11200000E+01           0.12604459E+00
   0.11300000E+01           0.11858267E+00
   0.11400000E+01           0.11080519E+00
   0.11500000E+01           0.10346281E+00
   0.11600000E+01           0.97029037E-01
   0.11700000E+01           0.90482222E-01
   0.11800000E+01           0.84835407E-01
   0.11900000E+01           0.78704444E-01
   0.12000000E+01           0.73598667E-01
   0.12100000E+01           0.68489037E-01
   0.12200000E+01           0.63643407E-01
   0.12300000E+01           0.59334667E-01
   0.12400000E+01           0.54912741E-01
   0.12500000E+01           0.51265333E-01
   0.12600000E+01           0.47390074E-01
   0.12700000E+01           0.44170815E-01
   0.12800000E+01           0.40752000E-01
   0.12900000E+01           0.37706222E-01
   0.13000000E+01           0.35003259E-01
   0.13100000E+01           0.32190370E-01
   0.13200000E+01           0.29807704E-01
   0.13300000E+01           0.27540148E-01
   0.13400000E+01           0.25361630E-01
   0.13500000E+01           0.23489185E-01
   0.13600000E+01           0.21636593E-01
   0.13700000E+01           0.20001481E-01
   0.13800000E+01           0.18280148E-01
   0.13900000E+01           0.16896593E-01
   0.14000000E+01           0.15382222E-01
   0.14100000E+01           0.14138963E-01
   0.14200000E+01           0.13035407E-01
   0.14300000E+01           0.11946815E-01
   0.14400000E+01           0.10929926E-01
   0.14500000E+01           0.99146667E-02
   0.14600000E+01           0.90847407E-02
   0.14700000E+01           0.83411852E-02
   0.14800000E+01           0.76773333E-02
   0.14900000E+01           0.69770370E-02
   0.15000000E+01           0.62721481E-02
   0.15100000E+01           0.58111111E-02
   0.15200000E+01           0.52225185E-02
   0.15300000E+01           0.47465185E-02
   0.15400000E+01           0.43291852E-02
   0.15500000E+01           0.40041481E-02
   0.15600000E+01           0.36032593E-02
   0.15700000E+01           0.32743704E-02
   0.15800000E+01           0.29336296E-02
   0.15900000E+01           0.26291852E-02
   0.16000000E+01           0.24518519E-02
   0.16100000E+01           0.22540741E-02
   0.16200000E+01           0.19909630E-02
   0.16300000E+01           0.18183704E-02
   0.16400000E+01           0.16340741E-02
   0.16500000E+01           0.14437037E-02
   0.16600000E+01           0.13499259E-02
   0.16700000E+01           0.11514074E-02
   0.16800000E+01           0.10690370E-02
   0.16900000E+01           0.10001481E-02
   0.17000000E+01           0.86992593E-03
   0.17100000E+01           0.76725926E-03
   0.17200000E+01           0.68251852E-03
   0.17300000E+01           0.59896296E-03
   0.17400000E+01           0.52918519E-03
   0.17500000E+01           0.48118519E-03
   0.17600000E+01           0.43155556E-03
   0.17700000E+01           0.41066667E-03
   0.17800000E+01           0.35229630E-03
   0.17900000E+01           0.32488889E-03
   0.18000000E+01           0.28488889E-03
   0.18100000E+01           0.25525926E-03
   0.18200000E+01           0.23111111E-03
   0.18300000E+01           0.20814815E-03
   0.18400000E+01           0.18918519E-03
   0.18500000E+01           0.15777778E-03
   0.18600000E+01           0.14296296E-03
   0.18700000E+01           0.12622222E-03
   0.18800000E+01           0.11288889E-03
   0.18900000E+01           0.95259259E-04
   0.19000000E+01           0.79407407E-04
   0.19100000E+01           0.76888889E-04
   0.19200000E+01           0.70074074E-04
   0.19300000E+01           0.65037037E-04
   0.19400000E+01           0.50962963E-04
   0.19500000E+01           0.41037037E-04
   0.19600000E+01           0.41185185E-04
   0.19700000E+01           0.36444444E-04
   0.19800000E+01           0.29629630E-04
   0.19900000E+01           0.29925926E-04
   0.20000000E+01           0.23555556E-04
   0.20100000E+01           0.26518519E-04
   0.20200000E+01           0.21629630E-04
   0.20300000E+01           0.18370370E-04
   0.20400000E+01           0.16740741E-04
   0.20500000E+01           0.13185185E-04
   0.20600000E+01           0.88888889E-05
   0.20700000E+01           0.13925926E-04
   0.20800000E+01           0.66666667E-05
   0.20900000E+01           0.75555556E-05
   0.21000000E+01           0.63703704E-05
   0.21100000E+01           0.50370370E-05
   0.21200000E+01           0.41481481E-05
   0.21300000E+01           0.32592593E-05
   0.21400000E+01           0.28148148E-05
   0.21500000E+01           0.26666667E-05
   0.21600000E+01           0.32592593E-05
   0.21700000E+01           0.41481481E-05
   0.21800000E+01           0.88888889E-06
   0.21900000E+01           0.59259259E-06
   0.22000000E+01           0.44444444E-06
   0.22100000E+01           0.17777778E-05
   0.22200000E+01           0.13333333E-05
   0.22300000E+01           0.59259259E-06
   0.22400000E+01           0.88888889E-06
   0.22500000E+01           0.74074074E-06
   0.22600000E+01           0.88888889E-06
   0.22700000E+01           0.29629630E-06
   0.22800000E+01           0.59259259E-06
   0.22900000E+01           0.29629630E-06
   0.23000000E+01           0.74074074E-06
   0.23100000E+01           0.14814815E-06
   0.23200000E+01           0.14814815E-06
   0.23300000E+01           0.00000000E+00
   0.23400000E+01           0.00000000E+00
   0.23500000E+01           0.00000000E+00
   0.23600000E+01           0.00000000E+00
   0.23700000E+01           0.14814815E-06
   0.23800000E+01           0.14814815E-06
   0.23900000E+01           0.00000000E+00
   0.24000000E+01           0.00000000E+00
   0.24100000E+01           0.00000000E+00
   0.24200000E+01           0.00000000E+00
   0.24300000E+01           0.14814815E-06
   0.24400000E+01           0.00000000E+00
   0.24500000E+01           0.29629630E-06
   0.24600000E+01           0.00000000E+00
   0.24700000E+01           0.00000000E+00
   0.24800000E+01           0.00000000E+00
   0.24900000E+01           0.00000000E+00
   0.25000000E+01           0.00000000E+00
   0.25100000E+01           0.14814815E-06
   0.25200000E+01           0.00000000E+00
   0.25300000E+01           0.00000000E+00
   0.25400000E+01           0.00000000E+00
   0.25500000E+01           0.00000000E+00
   0.25600000E+01           0.00000000E+00
   0.25700000E+01           0.00000000E+00
   0.25800000E+01           0.00000000E+00
   0.25900000E+01           0.00000000E+00
   0.26000000E+01           0.00000000E+00
   0.26100000E+01           0.00000000E+00
   0.26200000E+01           0.00000000E+00
   0.26300000E+01           0.00000000E+00
   0.26400000E+01           0.00000000E+00
   0.26500000E+01           0.00000000E+00
   0.26600000E+01           0.00000000E+00
   0.26700000E+01           0.00000000E+00
   0.26800000E+01           0.00000000E+00
   0.26900000E+01           0.00000000E+00
   0.27000000E+01           0.00000000E+00
   0.27100000E+01           0.00000000E+00
   0.27200000E+01           0.00000000E+00
   0.27300000E+01           0.00000000E+00
   0.27400000E+01           0.00000000E+00
   0.27500000E+01           0.00000000E+00
   0.27600000E+01           0.00000000E+00
   0.27700000E+01           0.00000000E+00
   0.27800000E+01           0.00000000E+00
   0.27900000E+01           0.00000000E+00
   0.28000000E+01           0.00000000E+00
   0.28100000E+01           0.00000000E+00
   0.28200000E+01           0.00000000E+00
   0.28300000E+01           0.00000000E+00
   0.28400000E+01           0.00000000E+00
   0.28500000E+01           0.00000000E+00
   0.28600000E+01           0.00000000E+00
   0.28700000E+01           0.00000000E+00
   0.28800000E+01           0.00000000E+00
   0.28900000E+01           0.00000000E+00
   0.29000000E+01           0.00000000E+00
   0.29100000E+01           0.00000000E+00
   0.29200000E+01           0.00000000E+00
   0.29300000E+01           0.00000000E+00
   0.29400000E+01           0.00000000E+00
   0.29500000E+01           0.00000000E+00
   0.29600000E+01           0.00000000E+00
   0.29700000E+01           0.00000000E+00
   0.29800000E+01           0.00000000E+00
   0.29900000E+01           0.00000000E+00
   0.30000000E+01           0.00000000E+00
   0.30100000E+01           0.00000000E+00
   0.30200000E+01           0.00000000E+00
   0.30300000E+01           0.00000000E+00
   0.30400000E+01           0.00000000E+00
   0.30500000E+01           0.00000000E+00
   0.30600000E+01           0.00000000E+00
   0.30700000E+01           0.00000000E+00
   0.30800000E+01           0.00000000E+00
   0.30900000E+01           0.00000000E+00
   0.31000000E+01           0.00000000E+00
   0.31100000E+01           0.00000000E+00
   0.31200000E+01           0.00000000E+00
   0.31300000E+01           0.00000000E+00
   0.31400000E+01           0.00000000E+00
   0.31500000E+01           0.00000000E+00
   0.31600000E+01           0.00000000E+00
   0.31700000E+01           0.00000000E+00
   0.31800000E+01           0.00000000E+00
   0.31900000E+01           0.00000000E+00
   0.32000000E+01           0.00000000E+00
   0.32100000E+01           0.00000000E+00
   0.32200000E+01           0.00000000E+00
   0.32300000E+01           0.00000000E+00
   0.32400000E+01           0.00000000E+00
   0.32500000E+01           0.00000000E+00
   0.32600000E+01           0.00000000E+00
   0.32700000E+01           0.00000000E+00
   0.32800000E+01           0.00000000E+00
   0.32900000E+01           0.00000000E+00
   0.33000000E+01           0.00000000E+00
   0.33100000E+01           0.00000000E+00
   0.33200000E+01           0.00000000E+00
   0.33300000E+01           0.00000000E+00
   0.33400000E+01           0.00000000E+00
   0.33500000E+01           0.00000000E+00
   0.33600000E+01           0.00000000E+00
   0.33700000E+01           0.00000000E+00
   0.33800000E+01           0.00000000E+00
   0.33900000E+01           0.00000000E+00
   0.34000000E+01           0.00000000E+00
   0.34100000E+01           0.00000000E+00
   0.34200000E+01           0.00000000E+00
   0.34300000E+01           0.00000000E+00
   0.34400000E+01           0.00000000E+00
   0.34500000E+01           0.00000000E+00
   0.34600000E+01           0.00000000E+00
   0.34700000E+01           0.00000000E+00
   0.34800000E+01           0.00000000E+00
   0.34900000E+01           0.00000000E+00
   0.35000000E+01           0.00000000E+00
   0.35100000E+01           0.00000000E+00
   0.35200000E+01           0.00000000E+00
   0.35300000E+01           0.00000000E+00
   0.35400000E+01           0.00000000E+00
   0.35500000E+01           0.00000000E+00
   0.35600000E+01           0.00000000E+00
   0.35700000E+01           0.00000000E+00
   0.35800000E+01           0.00000000E+00
   0.35900000E+01           0.00000000E+00
   0.36000000E+01           0.00000000E+00
   0.36100000E+01           0.00000000E+00
   0.36200000E+01           0.00000000E+00
   0.36300000E+01           0.00000000E+00
   0.36400000E+01           0.00000000E+00
   0.36500000E+01           0.00000000E+00
   0.36600000E+01           0.00000000E+00
   0.36700000E+01           0.00000000E+00
   0.36800000E+01           0.00000000E+00
   0.36900000E+01           0.00000000E+00
   0.37000000E+01           0.00000000E+00
   0.37100000E+01           0.00000000E+00
   0.37200000E+01           0.00000000E+00
   0.37300000E+01           0.00000000E+00
   0.37400000E+01           0.00000000E+00
   0.37500000E+01           0.00000000E+00
   0.37600000E+01           0.00000000E+00
   0.37700000E+01           0.00000000E+00
   0.37800000E+01           0.00000000E+00
   0.37900000E+01           0.00000000E+00
   0.38000000E+01           0.00000000E+00
   0.38100000E+01           0.00000000E+00
   0.38200000E+01           0.00000000E+00
   0.38300000E+01           0.00000000E+00
   0.38400000E+01           0.00000000E+00
   0.38500000E+01           0.00000000E+00
   0.38600000E+01           0.00000000E+00
   0.38700000E+01           0.00000000E+00
   0.38800000E+01           0.00000000E+00
   0.38900000E+01           0.00000000E+00
   0.39000000E+01           0.00000000E+00
   0.39100000E+01           0.00000000E+00
   0.39200000E+01           0.00000000E+00
   0.39300000E+01           0.00000000E+00
   0.39400000E+01           0.00000000E+00
   0.39500000E+01           0.00000000E+00
   0.39600000E+01           0.00000000E+00
   0.39700000E+01           0.00000000E+00
   0.39800000E+01           0.00000000E+00
   0.39900000E+01           0.00000000E+00
   0.40000000E+01           0.00000000E+00
 #T=    55.4000
  -0.40000000E+01           0.00000000E+00
  -0.39900000E+01           0.00000000E+00
  -0.39800000E+01           0.00000000E+00
  -0.39700000E+01           0.00000000E+00
  -0.39600000E+01           0.00000000E+00
  -0.39500000E+01           0.00000000E+00
  -0.39400000E+01           0.00000000E+00
  -0.39300000E+01           0.00000000E+00
  -0.39200000E+01           0.00000000E+00
  -0.39100000E+01           0.00000000E+00
  -0.39000000E+01           0.00000000E+00
  -0.38900000E+01           0.00000000E+00
  -0.38800000E+01           0.00000000E+00
  -0.38700000E+01           0.00000000E+00
  -0.38600000E+01           0.00000000E+00
  -0.38500000E+01           0.00000000E+00
  -0.38400000E+01           0.00000000E+00
  -0.38300000E+01           0.00000000E+00
  -0.38200000E+01           0.00000000E+00
  -0.38100000E+01           0.00000000E+00
  -0.38000000E+01           0.00000000E+00
  -0.37900000E+01           0.00000000E+00
  -0.37800000E+01           0.00000000E+00
  -0.37700000E+01           0.00000000E+00
  -0.37600000E+01           0.00000000E+00
  -0.37500000E+01           0.00000000E+00
  -0.37400000E+01           0.00000000E+00
  -0.37300000E+01           0.00000000E+00
  -0.37200000E+01           0.00000000E+00
  -0.37100000E+01           0.00000000E+00
  -0.37000000E+01           0.00000000E+00
  -0.36900000E+01           0.00000000E+00
  -0.36800000E+01           0.00000000E+00
  -0.36700000E+01           0.00000000E+00
  -0.36600000E+01           0.00000000E+00
  -0.36500000E+01           0.00000000E+00
  -0.36400000E+01           0.00000000E+00
  -0.36300000E+01           0.00000000E+00
  -0.36200000E+01           0.00000000E+00
  -0.36100000E+01           0.00000000E+00
  -0.36000000E+01           0.00000000E+00
  -0.35900000E+01           0.00000000E+00
  -0.35800000E+01           0.00000000E+00
  -0.35700000E+01           0.00000000E+00
  -0.35600000E+01           0.00000000E+00
  -0.35500000E+01           0.00000000E+00
  -0.35400000E+01           0.00000000E+00
  -0.35300000E+01           0.00000000E+00
  -0.35200000E+01           0.00000000E+00
  -0.35100000E+01           0.00000000E+00
  -0.35000000E+01           0.00000000E+00
  -0.34900000E+01           0.00000000E+00
  -0.34800000E+01           0.00000000E+00
  -0.34700000E+01           0.00000000E+00
  -0.34600000E+01           0.00000000E+00
  -0.34500000E+01           0.00000000E+00
  -0.34400000E+01           0.00000000E+00
  -0.34300000E+01           0.00000000E+00
  -0.34200000E+01           0.00000000E+00
  -0.34100000E+01           0.00000000E+00
  -0.34000000E+01           0.00000000E+00
  -0.33900000E+01           0.00000000E+00
  -0.33800000E+01           0.00000000E+00
  -0.33700000E+01           0.00000000E+00
  -0.33600000E+01           0.00000000E+00
  -0.33500000E+01           0.00000000E+00
  -0.33400000E+01           0.00000000E+00
  -0.33300000E+01           0.00000000E+00
  -0.33200000E+01           0.00000000E+00
  -0.33100000E+01           0.00000000E+00
  -0.33000000E+01           0.00000000E+00
  -0.32900000E+01           0.00000000E+00
  -0.32800000E+01           0.00000000E+00
  -0.32700000E+01           0.00000000E+00
  -0.32600000E+01           0.00000000E+00
  -0.32500000E+01           0.00000000E+00
  -0.32400000E+01           0.00000000E+00
  -0.32300000E+01           0.00000000E+00
  -0.32200000E+01           0.00000000E+00
  -0.32100000E+01           0.00000000E+00
  -0.32000000E+01           0.00000000E+00
  -0.31900000E+01           0.00000000E+00
  -0.31800000E+01           0.00000000E+00
  -0.31700000E+01           0.00000000E+00
  -0.31600000E+01           0.00000000E+00
  -0.31500000E+01           0.00000000E+00
  -0.31400000E+01           0.00000000E+00
  -0.31300000E+01           0.00000000E+00
  -0.31200000E+01           0.00000000E+00
  -0.31100000E+01           0.00000000E+00
  -0.31000000E+01           0.00000000E+00
  -0.30900000E+01           0.00000000E+00
  -0.30800000E+01           0.00000000E+00
  -0.30700000E+01           0.00000000E+00
  -0.30600000E+01           0.00000000E+00
  -0.30500000E+01           0.00000000E+00
  -0.30400000E+01           0.00000000E+00
  -0.30300000E+01           0.00000000E+00
  -0.30200000E+01           0.00000000E+00
  -0.30100000E+01           0.00000000E+00
  -0.30000000E+01           0.00000000E+00
  -0.29900000E+01           0.00000000E+00
  -0.29800000E+01           0.00000000E+00
  -0.29700000E+01           0.00000000E+00
  -0.29600000E+01           0.00000000E+00
  -0.29500000E+01           0.00000000E+00
  -0.29400000E+01           0.00000000E+00
  -0.29300000E+01           0.00000000E+00
  -0.29200000E+01           0.00000000E+00
  -0.29100000E+01           0.00000000E+00
  -0.29000000E+01           0.00000000E+00
  -0.28900000E+01           0.00000000E+00
  -0.28800000E+01           0.00000000E+00
  -0.28700000E+01           0.00000000E+00
  -0.28600000E+01           0.00000000E+00
  -0.28500000E+01           0.00000000E+00
  -0.28400000E+01           0.00000000E+00
  -0.28300000E+01           0.00000000E+00
  -0.28200000E+01           0.00000000E+00
  -0.28100000E+01           0.00000000E+00
  -0.28000000E+01           0.00000000E+00
  -0.27900000E+01           0.00000000E+00
  -0.27800000E+01           0.00000000E+00
  -0.27700000E+01           0.00000000E+00
  -0.27600000E+01           0.00000000E+00
  -0.27500000E+01           0.00000000E+00
  -0.27400000E+01           0.00000000E+00
  -0.27300000E+01           0.00000000E+00
  -0.27200000E+01           0.00000000E+00
  -0.27100000E+01           0.00000000E+00
  -0.27000000E+01           0.00000000E+00
  -0.26900000E+01           0.00000000E+00
  -0.26800000E+01           0.00000000E+00
  -0.26700000E+01           0.00000000E+00
  -0.26600000E+01           0.00000000E+00
  -0.26500000E+01           0.00000000E+00
  -0.26400000E+01           0.00000000E+00
  -0.26300000E+01           0.00000000E+00
  -0.26200000E+01           0.00000000E+00
  -0.26100000E+01           0.00000000E+00
  -0.26000000E+01           0.00000000E+00
  -0.25900000E+01           0.00000000E+00
  -0.25800000E+01           0.00000000E+00
  -0.25700000E+01           0.00000000E+00
  -0.25600000E+01           0.00000000E+00
  -0.25500000E+01           0.00000000E+00
  -0.25400000E+01           0.00000000E+00
  -0.25300000E+01           0.00000000E+00
  -0.25200000E+01           0.00000000E+00
  -0.25100000E+01           0.00000000E+00
  -0.25000000E+01           0.00000000E+00
  -0.24900000E+01           0.00000000E+00
  -0.24800000E+01           0.00000000E+00
  -0.24700000E+01           0.00000000E+00
  -0.24600000E+01           0.00000000E+00
  -0.24500000E+01           0.00000000E+00
  -0.24400000E+01           0.00000000E+00
  -0.24300000E+01           0.00000000E+00
  -0.24200000E+01           0.00000000E+00
  -0.24100000E+01           0.00000000E+00
  -0.24000000E+01           0.00000000E+00
  -0.23900000E+01           0.00000000E+00
  -0.23800000E+01           0.00000000E+00
  -0.23700000E+01           0.00000000E+00
  -0.23600000E+01           0.00000000E+00
  -0.23500000E+01           0.00000000E+00
  -0.23400000E+01           0.00000000E+00
  -0.23300000E+01           0.00000000E+00
  -0.23200000E+01           0.00000000E+00
  -0.23100000E+01           0.00000000E+00
  -0.23000000E+01           0.00000000E+00
  -0.22900000E+01           0.00000000E+00
  -0.22800000E+01           0.00000000E+00
  -0.22700000E+01           0.00000000E+00
  -0.22600000E+01           0.00000000E+00
  -0.22500000E+01           0.00000000E+00
  -0.22400000E+01           0.00000000E+00
  -0.22300000E+01           0.00000000E+00
  -0.22200000E+01           0.00000000E+00
  -0.22100000E+01           0.00000000E+00
  -0.22000000E+01           0.00000000E+00
  -0.21900000E+01           0.00000000E+00
  -0.21800000E+01           0.00000000E+00
  -0.21700000E+01           0.00000000E+00
  -0.21600000E+01           0.00000000E+00
  -0.21500000E+01           0.00000000E+00
  -0.21400000E+01           0.00000000E+00
  -0.21300000E+01           0.00000000E+00
  -0.21200000E+01           0.00000000E+00
  -0.21100000E+01           0.00000000E+00
  -0.21000000E+01           0.00000000E+00
  -0.20900000E+01           0.00000000E+00
  -0.20800000E+01           0.00000000E+00
  -0.20700000E+01           0.00000000E+00
  -0.20600000E+01           0.00000000E+00
  -0.20500000E+01           0.00000000E+00
  -0.20400000E+01           0.00000000E+00
  -0.20300000E+01           0.00000000E+00
  -0.20200000E+01           0.00000000E+00
  -0.20100000E+01           0.00000000E+00
  -0.20000000E+01           0.00000000E+00
  -0.19900000E+01           0.00000000E+00
  -0.19800000E+01           0.00000000E+00
  -0.19700000E+01           0.00000000E+00
  -0.19600000E+01           0.00000000E+00
  -0.19500000E+01           0.00000000E+00
  -0.19400000E+01           0.00000000E+00
  -0.19300000E+01           0.00000000E+00
  -0.19200000E+01           0.00000000E+00
  -0.19100000E+01           0.00000000E+00
  -0.19000000E+01           0.00000000E+00
  -0.18900000E+01           0.00000000E+00
  -0.18800000E+01           0.00000000E+00
  -0.18700000E+01           0.00000000E+00
  -0.18600000E+01           0.00000000E+00
  -0.18500000E+01           0.00000000E+00
  -0.18400000E+01           0.00000000E+00
  -0.18300000E+01           0.00000000E+00
  -0.18200000E+01           0.00000000E+00
  -0.18100000E+01           0.00000000E+00
  -0.18000000E+01           0.00000000E+00
  -0.17900000E+01           0.00000000E+00
  -0.17800000E+01           0.00000000E+00
  -0.17700000E+01           0.00000000E+00
  -0.17600000E+01           0.00000000E+00
  -0.17500000E+01           0.00000000E+00
  -0.17400000E+01           0.00000000E+00
  -0.17300000E+01           0.00000000E+00
  -0.17200000E+01           0.00000000E+00
  -0.17100000E+01           0.00000000E+00
  -0.17000000E+01           0.00000000E+00
  -0.16900000E+01           0.00000000E+00
  -0.16800000E+01           0.00000000E+00
  -0.16700000E+01           0.00000000E+00
  -0.16600000E+01           0.00000000E+00
  -0.16500000E+01           0.00000000E+00
  -0.16400000E+01           0.00000000E+00
  -0.16300000E+01           0.00000000E+00
  -0.16200000E+01           0.00000000E+00
  -0.16100000E+01           0.00000000E+00
  -0.16000000E+01           0.00000000E+00
  -0.15900000E+01           0.00000000E+00
  -0.15800000E+01           0.00000000E+00
  -0.15700000E+01           0.00000000E+00
  -0.15600000E+01           0.00000000E+00
  -0.15500000E+01           0.00000000E+00
  -0.15400000E+01           0.00000000E+00
  -0.15300000E+01           0.00000000E+00
  -0.15200000E+01           0.00000000E+00
  -0.15100000E+01           0.00000000E+00
  -0.15000000E+01           0.00000000E+00
  -0.14900000E+01           0.00000000E+00
[...]
  -0.64000000E+00           0.00000000E+00
  -0.63000000E+00           0.00000000E+00
  -0.62000000E+00           0.00000000E+00
  -0.61000000E+00           0.00000000E+00
  -0.60000000E+00           0.00000000E+00
  -0.59000000E+00           0.00000000E+00
  -0.58000000E+00           0.00000000E+00
  -0.57000000E+00           0.00000000E+00
  -0.56000000E+00           0.00000000E+00
  -0.55000000E+00           0.00000000E+00
  -0.54000000E+00           0.00000000E+00
  -0.53000000E+00           0.00000000E+00
  -0.52000000E+00           0.00000000E+00
  -0.51000000E+00           0.00000000E+00
  -0.50000000E+00           0.00000000E+00
  -0.49000000E+00           0.00000000E+00
  -0.48000000E+00           0.00000000E+00
  -0.47000000E+00           0.00000000E+00
  -0.46000000E+00           0.00000000E+00
  -0.45000000E+00           0.00000000E+00
  -0.44000000E+00           0.00000000E+00
  -0.43000000E+00           0.00000000E+00
  -0.42000000E+00           0.00000000E+00
  -0.41000000E+00           0.00000000E+00
  -0.40000000E+00           0.00000000E+00
  -0.39000000E+00           0.00000000E+00
  -0.38000000E+00           0.00000000E+00
  -0.37000000E+00           0.00000000E+00
  -0.36000000E+00           0.00000000E+00
  -0.35000000E+00           0.00000000E+00
  -0.34000000E+00           0.00000000E+00
  -0.33000000E+00           0.00000000E+00
  -0.32000000E+00           0.00000000E+00
  -0.31000000E+00           0.00000000E+00
  -0.30000000E+00           0.00000000E+00
  -0.29000000E+00           0.00000000E+00
  -0.28000000E+00           0.00000000E+00
  -0.27000000E+00           0.00000000E+00
  -0.26000000E+00           0.00000000E+00
  -0.25000000E+00           0.00000000E+00
  -0.24000000E+00           0.00000000E+00
  -0.23000000E+00           0.00000000E+00
  -0.22000000E+00           0.00000000E+00
  -0.21000000E+00           0.00000000E+00
  -0.20000000E+00           0.00000000E+00
  -0.19000000E+00           0.00000000E+00
  -0.18000000E+00           0.00000000E+00
  -0.17000000E+00           0.00000000E+00
  -0.16000000E+00           0.00000000E+00
  -0.15000000E+00           0.00000000E+00
  -0.14000000E+00           0.00000000E+00
  -0.13000000E+00           0.00000000E+00
  -0.12000000E+00           0.00000000E+00
  -0.11000000E+00           0.00000000E+00
  -0.10000000E+00           0.00000000E+00
  -0.90000000E-01           0.00000000E+00
  -0.80000000E-01           0.00000000E+00
  -0.70000000E-01           0.00000000E+00
  -0.60000000E-01           0.00000000E+00
  -0.50000000E-01           0.00000000E+00
  -0.40000000E-01           0.00000000E+00
  -0.30000000E-01           0.00000000E+00
  -0.20000000E-01           0.00000000E+00
  -0.10000000E-01           0.00000000E+00
   0.00000000E+00           0.66666667E-05
   0.10000000E-01           0.17733333E-03
   0.20000000E-01           0.65659259E-03
   0.30000000E-01           0.14472593E-02
   0.40000000E-01           0.25062222E-02
   0.50000000E-01           0.38945185E-02
   0.60000000E-01           0.55802963E-02
   0.70000000E-01           0.75725926E-02
   0.80000000E-01           0.98737778E-02
   0.90000000E-01           0.12271556E-01
   0.10000000E+00           0.15042222E-01
   0.11000000E+00           0.18231556E-01
   0.12000000E+00           0.21478370E-01
   0.13000000E+00           0.24975111E-01
   0.14000000E+00           0.28710074E-01
   0.15000000E+00           0.32921481E-01
   0.16000000E+00           0.36953481E-01
   0.17000000E+00           0.41405037E-01
   0.18000000E+00           0.46096741E-01
   0.19000000E+00           0.50878519E-01
   0.20000000E+00           0.55876741E-01
   0.21000000E+00           0.61142815E-01
   0.22000000E+00           0.66587259E-01
   0.23000000E+00           0.72355259E-01
   0.24000000E+00           0.77827407E-01
   0.25000000E+00           0.83881481E-01
   0.26000000E+00           0.90125185E-01
   0.27000000E+00           0.96193778E-01
   0.28000000E+00           0.10251704E+00
   0.29000000E+00           0.10909348E+00
   0.30000000E+00           0.11600133E+00
   0.31000000E+00           0.12273763E+00
   0.32000000E+00           0.12962370E+00
   0.33000000E+00           0.13659615E+00
   0.34000000E+00           0.14379378E+00
   0.35000000E+00           0.15102030E+00
   0.36000000E+00           0.15788978E+00
   0.37000000E+00           0.16556963E+00
   0.38000000E+00           0.17287452E+00
   0.39000000E+00           0.18050637E+00
   0.40000000E+00           0.18777719E+00
   0.41000000E+00           0.19567111E+00
   0.42000000E+00           0.20336622E+00
   0.43000000E+00           0.21081067E+00
   0.44000000E+00           0.21906963E+00
   0.45000000E+00           0.22665422E+00
   0.46000000E+00           0.23491185E+00
   0.47000000E+00           0.24283156E+00
   0.48000000E+00           0.25103363E+00
   0.49000000E+00           0.25850978E+00
   0.50000000E+00           0.26648593E+00
   0.51000000E+00           0.27435452E+00
   0.52000000E+00           0.28225763E+00
   0.53000000E+00           0.28982874E+00
   0.54000000E+00           0.29798948E+00
   0.55000000E+00           0.30619600E+00
   0.56000000E+00           0.31407081E+00
   0.57000000E+00           0.32212785E+00
   0.58000000E+00           0.33000756E+00
   0.59000000E+00           0.33791600E+00
   0.60000000E+00           0.34552252E+00
   0.61000000E+00           0.35311037E+00
   0.62000000E+00           0.36046963E+00
   0.63000000E+00           0.36857970E+00
   0.64000000E+00           0.37592430E+00
   0.65000000E+00           0.38350533E+00
   0.66000000E+00           0.39108133E+00
   0.67000000E+00           0.39822311E+00
   0.68000000E+00           0.40609867E+00
   0.69000000E+00           0.41298785E+00
   0.70000000E+00           0.42029644E+00
   0.71000000E+00           0.42684504E+00
   0.72000000E+00           0.43407096E+00
   0.73000000E+00           0.44122148E+00
   0.74000000E+00           0.44774756E+00
   0.75000000E+00           0.45474696E+00
   0.76000000E+00           0.46140504E+00
   0.77000000E+00           0.46817022E+00
   0.78000000E+00           0.47458430E+00
   0.79000000E+00           0.48091526E+00
   0.80000000E+00           0.48728015E+00
   0.81000000E+00           0.49278711E+00
   0.82000000E+00           0.49902815E+00
   0.83000000E+00           0.50481289E+00
   0.84000000E+00           0.51069970E+00
   0.85000000E+00           0.51602563E+00
   0.86000000E+00           0.52184222E+00
   0.87000000E+00           0.52749244E+00
   0.88000000E+00           0.53270830E+00
   0.89000000E+00           0.53744563E+00
   0.90000000E+00           0.54277807E+00
   0.91000000E+00           0.54791985E+00
   0.92000000E+00           0.55221304E+00
   0.93000000E+00           0.55719674E+00
   0.94000000E+00           0.56161911E+00
   0.95000000E+00           0.56582356E+00
   0.96000000E+00           0.56990948E+00
   0.97000000E+00           0.57463185E+00
   0.98000000E+00           0.57761422E+00
   0.99000000E+00           0.58211985E+00
   0.10000000E+01           0.58545348E+00
   0.10100000E+01           0.58956844E+00
   0.10200000E+01           0.59278400E+00
   0.10300000E+01           0.59595941E+00
   0.10400000E+01           0.59890267E+00
   0.10500000E+01           0.60199881E+00
   0.10600000E+01           0.60537333E+00
   0.10700000E+01           0.60731644E+00
   0.10800000E+01           0.60980578E+00
   0.10900000E+01           0.61221022E+00
   0.11000000E+01           0.61494119E+00
   0.11100000E+01           0.61702119E+00
   0.11200000E+01           0.61876874E+00
   0.11300000E+01           0.62025363E+00
   0.11400000E+01           0.62166844E+00
   0.11500000E+01           0.62331630E+00
   0.11600000E+01           0.62514667E+00
   0.11700000E+01           0.62614163E+00
   0.11800000E+01           0.62792119E+00
   0.11900000E+01           0.62814430E+00
   0.12000000E+01           0.62916267E+00
   0.12100000E+01           0.62992356E+00
   0.12200000E+01           0.63066844E+00
   0.12300000E+01           0.63076148E+00
   0.12400000E+01           0.63130000E+00
   0.12500000E+01           0.63105452E+00
   0.12600000E+01           0.63136474E+00
   0.12700000E+01           0.63062667E+00
   0.12800000E+01           0.63099541E+00
   0.12900000E+01           0.63011867E+00
   0.13000000E+01           0.63046281E+00
   0.13100000E+01           0.62950578E+00
   0.13200000E+01           0.62898000E+00
   0.13300000E+01           0.62756104E+00
   0.13400000E+01           0.62685156E+00
   0.13500000E+01           0.62552326E+00
   0.13600000E+01           0.62512593E+00
   0.13700000E+01           0.62268074E+00
   0.13800000E+01           0.62165037E+00
   0.13900000E+01           0.61984637E+00
   0.14000000E+01           0.61791452E+00
   0.14100000E+01           0.61683407E+00
   0.14200000E+01           0.61415156E+00
   0.14300000E+01           0.61269970E+00
   0.14400000E+01           0.61025481E+00
   0.14500000E+01           0.60797348E+00
   0.14600000E+01           0.60573022E+00
   0.14700000E+01           0.60336993E+00
   0.14800000E+01           0.60029304E+00
   0.14900000E+01           0.59745556E+00
   0.15000000E+01           0.59431778E+00
   0.15100000E+01           0.59179496E+00
   0.15200000E+01           0.58893333E+00
   0.15300000E+01           0.58537496E+00
   0.15400000E+01           0.58242430E+00
   0.15500000E+01           0.57916296E+00
   0.15600000E+01           0.57627585E+00
   0.15700000E+01           0.57179141E+00
   0.15800000E+01           0.56878919E+00
   0.15900000E+01           0.56536519E+00
   0.16000000E+01           0.56160504E+00
   0.16100000E+01           0.55725304E+00
   0.16200000E+01           0.55379393E+00
   0.16300000E+01           0.54967067E+00
   0.16400000E+01           0.54618874E+00
   0.16500000E+01           0.54146474E+00
   0.16600000E+01           0.53704726E+00
   0.16700000E+01           0.53296000E+00
   0.16800000E+01           0.52892296E+00
   0.16900000E+01           0.52467244E+00
   0.17000000E+01           0.52029585E+00
   0.17100000E+01           0.51532311E+00
   0.17200000E+01           0.51079719E+00
   0.17300000E+01           0.50647630E+00
   0.17400000E+01           0.50156341E+00
   0.17500000E+01           0.49716978E+00
   0.17600000E+01           0.49189704E+00
   0.17700000E+01           0.48772741E+00
   0.17800000E+01           0.48301022E+00
   0.17900000E+01           0.47766533E+00
   0.18000000E+01           0.47256311E+00
   0.18100000E+01           0.46779881E+00
   0.18200000E+01           0.46186119E+00
   0.18300000E+01           0.45738904E+00
   0.18400000E+01           0.45240978E+00
   0.18500000E+01           0.44683822E+00
   0.18600000E+01           0.44170874E+00
   0.18700000E+01           0.43667052E+00
   0.18800000E+01           0.43117259E+00
   0.18900000E+01           0.42531689E+00
   0.19000000E+01           0.42055615E+00
   0.19100000E+01           0.41494548E+00
   0.19200000E+01           0.40982607E+00
   0.19300000E+01           0.40392844E+00
   0.19400000E+01           0.39851141E+00
   0.19500000E+01           0.39335141E+00
   0.19600000E+01           0.38794296E+00
   0.19700000E+01           0.38168415E+00
   0.19800000E+01           0.37649793E+00
   0.19900000E+01           0.37074593E+00
   0.20000000E+01           0.36518400E+00
   0.20100000E+01           0.35986844E+00
   0.20200000E+01           0.35448252E+00
   0.20300000E+01           0.34841215E+00
   0.20400000E+01           0.34292904E+00
   0.20500000E+01           0.33754104E+00
   0.20600000E+01           0.33230237E+00
   0.20700000E+01           0.32668519E+00
   0.20800000E+01           0.32188993E+00
   0.20900000E+01           0.31629674E+00
   0.21000000E+01           0.31107807E+00
   0.21100000E+01           0.30583541E+00
   0.21200000E+01           0.30094296E+00
   0.21300000E+01           0.29622000E+00
   0.21400000E+01           0.29091970E+00
   0.21500000E+01           0.28584163E+00
   0.21600000E+01           0.28115778E+00
   0.21700000E+01           0.27607022E+00
   0.21800000E+01           0.27143615E+00
   0.21900000E+01           0.26653022E+00
   0.22000000E+01           0.26189941E+00
   0.22100000E+01           0.25686385E+00
   0.22200000E+01           0.25265570E+00
   0.22300000E+01           0.24816370E+00
   0.22400000E+01           0.24389156E+00
   0.22500000E+01           0.23875956E+00
   0.22600000E+01           0.23466267E+00
   0.22700000E+01           0.23031807E+00
   0.22800000E+01           0.22601067E+00
   0.22900000E+01           0.22183674E+00
   0.23000000E+01           0.21741393E+00
   0.23100000E+01           0.21330281E+00
   0.23200000E+01           0.20930459E+00
   0.23300000E+01           0.20528415E+00
   0.23400000E+01           0.20113244E+00
   0.23500000E+01           0.19735170E+00
   0.23600000E+01           0.19326652E+00
   0.23700000E+01           0.18949659E+00
   0.23800000E+01           0.18542711E+00
   0.23900000E+01           0.18180430E+00
   0.24000000E+01           0.17803244E+00
   0.24100000E+01           0.17435393E+00
   0.24200000E+01           0.17111200E+00
   0.24300000E+01           0.16739496E+00
   0.24400000E+01           0.16388385E+00
   0.24500000E+01           0.16022163E+00
   0.24600000E+01           0.15693437E+00
   0.24700000E+01           0.15363407E+00
   0.24800000E+01           0.15030015E+00
   0.24900000E+01           0.14711778E+00
   0.25000000E+01           0.14395052E+00
   0.25100000E+01           0.14074993E+00
   0.25200000E+01           0.13765141E+00
   0.25300000E+01           0.13433659E+00
   0.25400000E+01           0.13146341E+00
   0.25500000E+01           0.12833170E+00
   0.25600000E+01           0.12537659E+00
   0.25700000E+01           0.12272889E+00
   0.25800000E+01           0.11981081E+00
   0.25900000E+01           0.11665570E+00
   0.26000000E+01           0.11432133E+00
   0.26100000E+01           0.11124904E+00
   0.26200000E+01           0.10893733E+00
   0.26300000E+01           0.10646859E+00
   0.26400000E+01           0.10373704E+00
   0.26500000E+01           0.10117452E+00
   0.26600000E+01           0.98721185E-01
   0.26700000E+01           0.96195407E-01
   0.26800000E+01           0.93804593E-01
   0.26900000E+01           0.91861630E-01
   0.27000000E+01           0.89290074E-01
   0.27100000E+01           0.87153778E-01
   0.27200000E+01           0.84886370E-01
   0.27300000E+01           0.82650963E-01
   0.27400000E+01           0.80362667E-01
   0.27500000E+01           0.78552148E-01
   0.27600000E+01           0.76439704E-01
   0.27700000E+01           0.74302667E-01
   0.27800000E+01           0.72437778E-01
   0.27900000E+01           0.70483111E-01
   0.28000000E+01           0.68478074E-01
   0.28100000E+01           0.66807704E-01
   0.28200000E+01           0.64953333E-01
   0.28300000E+01           0.63199259E-01
   0.28400000E+01           0.61348148E-01
   0.28500000E+01           0.59483704E-01
   0.28600000E+01           0.57986222E-01
   0.28700000E+01           0.56205630E-01
   0.28800000E+01           0.54677481E-01
   0.28900000E+01           0.53079852E-01
   0.29000000E+01           0.51571852E-01
   0.29100000E+01           0.50060889E-01
   0.29200000E+01           0.48566815E-01
   0.29300000E+01           0.47197037E-01
   0.29400000E+01           0.45820000E-01
   0.29500000E+01           0.44400593E-01
   0.29600000E+01           0.43233185E-01
   0.29700000E+01           0.41769333E-01
   0.29800000E+01           0.40477333E-01
   0.29900000E+01           0.39094667E-01
   0.30000000E+01           0.38025778E-01
   0.30100000E+01           0.36664889E-01
   0.30200000E+01           0.35594222E-01
   0.30300000E+01           0.34511852E-01
   0.30400000E+01           0.33401185E-01
   0.30500000E+01           0.32237481E-01
   0.30600000E+01           0.31250815E-01
   0.30700000E+01           0.30327407E-01
   0.30800000E+01           0.29145333E-01
   0.30900000E+01           0.28141926E-01
   0.31000000E+01           0.27182667E-01
   0.31100000E+01           0.26467556E-01
   0.31200000E+01           0.25432741E-01
   0.31300000E+01           0.24557037E-01
   0.31400000E+01           0.23612889E-01
   0.31500000E+01           0.22979407E-01
   0.31600000E+01           0.22005333E-01
   0.31700000E+01           0.21238667E-01
   0.31800000E+01           0.20494222E-01
   0.31900000E+01           0.19759852E-01
   0.32000000E+01           0.18979852E-01
   0.32100000E+01           0.18328741E-01
   0.32200000E+01           0.17507259E-01
   0.32300000E+01           0.16919556E-01
   0.32400000E+01           0.16224296E-01
   0.32500000E+01           0.15718519E-01
   0.32600000E+01           0.14998963E-01
   0.32700000E+01           0.14445037E-01
   0.32800000E+01           0.13759556E-01
   0.32900000E+01           0.13214667E-01
   0.33000000E+01           0.12737185E-01
   0.33100000E+01           0.12194963E-01
   0.33200000E+01           0.11721926E-01
   0.33300000E+01           0.11256741E-01
   0.33400000E+01           0.10753037E-01
   0.33500000E+01           0.10263259E-01
   0.33600000E+01           0.98847407E-02
   0.33700000E+01           0.94202963E-02
   0.33800000E+01           0.89328889E-02
   0.33900000E+01           0.85681481E-02
   0.34000000E+01           0.82103704E-02
   0.34100000E+01           0.77845926E-02
   0.34200000E+01           0.74222222E-02
   0.34300000E+01           0.70216296E-02
   0.34400000E+01           0.67389630E-02
   0.34500000E+01           0.64120000E-02
   0.34600000E+01           0.60967407E-02
   0.34700000E+01           0.57943704E-02
   0.34800000E+01           0.54810370E-02
   0.34900000E+01           0.52038519E-02
   0.35000000E+01           0.49508148E-02
   0.35100000E+01           0.46825185E-02
   0.35200000E+01           0.43816296E-02
   0.35300000E+01           0.42211852E-02
   0.35400000E+01           0.39343704E-02
   0.35500000E+01           0.37154074E-02
   0.35600000E+01           0.34887407E-02
   0.35700000E+01           0.32900741E-02
   0.35800000E+01           0.31085926E-02
   0.35900000E+01           0.28997037E-02
   0.36000000E+01           0.27065185E-02
   0.36100000E+01           0.25440000E-02
   0.36200000E+01           0.23979259E-02
   0.36300000E+01           0.22653333E-02
   0.36400000E+01           0.21117037E-02
   0.36500000E+01           0.19835556E-02
   0.36600000E+01           0.18142222E-02
   0.36700000E+01           0.16891852E-02
   0.36800000E+01           0.15774815E-02
   0.36900000E+01           0.14484444E-02
   0.37000000E+01           0.13355556E-02
   0.37100000E+01           0.12220741E-02
   0.37200000E+01           0.11395556E-02
   0.37300000E+01           0.10355556E-02
   0.37400000E+01           0.94340741E-03
   0.37500000E+01           0.86755556E-03
   0.37600000E+01           0.77037037E-03
   0.37700000E+01           0.68577778E-03
   0.37800000E+01           0.63866667E-03
   0.37900000E+01           0.55718519E-03
   0.38000000E+01           0.51096296E-03
   0.38100000E+01           0.45837037E-03
   0.38200000E+01           0.40177778E-03
   0.38300000E+01           0.35585185E-03
   0.38400000E+01           0.29777778E-03
   0.38500000E+01           0.26014815E-03
   0.38600000E+01           0.22474074E-03
   0.38700000E+01           0.19125926E-03
   0.38800000E+01           0.15555556E-03
   0.38900000E+01           0.13466667E-03
   0.39000000E+01           0.11200000E-03
   0.39100000E+01           0.87111111E-04
   0.39200000E+01           0.73333333E-04
   0.39300000E+01           0.54370370E-04
   0.39400000E+01           0.34518519E-04
   0.39500000E+01           0.25925926E-04
   0.39600000E+01           0.18074074E-04
   0.39700000E+01           0.74074074E-05
   0.39800000E+01           0.28148148E-05
   0.39900000E+01           0.59259259E-06
   0.40000000E+01           0.14814815E-06
