 #written on 19Sep2024 at 07:57:46 
 #----------------------------------------------- MONTECARLO ---------------------------------------------------#
 # Temp      Magnetization     Energy_ave          C_M              Sus              U_E              U_M       #
 #--------------------------------------------------------------------------------------------------------------#
  50.0000   0.25034655E-02  -0.81491666E+03   0.10270809E+01   0.70842421E-04   0.66666476E+00   0.39583935E+00
  52.6000   0.25754844E-02  -0.81222652E+03   0.10381716E+01   0.71097564E-04   0.66666452E+00   0.39610387E+00
  55.4000   0.26514143E-02  -0.80932235E+03   0.10357502E+01   0.70843257E-04   0.66666427E+00   0.39911922E+00
  58.3000   0.27237193E-02  -0.80631508E+03   0.10387761E+01   0.70409641E-04   0.66666399E+00   0.40176844E+00
  61.3000   0.27977200E-02  -0.80319093E+03   0.10451768E+01   0.70163134E-04   0.66666366E+00   0.40399604E+00
  64.5000   0.28759133E-02  -0.79986038E+03   0.10462298E+01   0.69749666E-04   0.66666331E+00   0.40644952E+00
  67.9000   0.29649089E-02  -0.79629635E+03   0.10486789E+01   0.69895427E-04   0.66666290E+00   0.40842834E+00
  71.4000   0.30460622E-02  -0.79263453E+03   0.10513853E+01   0.69886810E-04   0.66666245E+00   0.40954542E+00
  75.2000   0.31343691E-02  -0.78862671E+03   0.10539333E+01   0.69539127E-04   0.66666193E+00   0.41291225E+00
  79.1000   0.32214302E-02  -0.78450241E+03   0.10572206E+01   0.69352591E-04   0.66666136E+00   0.41491256E+00
  83.3000   0.33196224E-02  -0.78002583E+03   0.10631109E+01   0.69431660E-04   0.66666068E+00   0.41699074E+00
  87.6000   0.34107879E-02  -0.77544214E+03   0.10657985E+01   0.69176362E-04   0.66665995E+00   0.41957395E+00
  92.2000   0.35094918E-02  -0.77052300E+03   0.10726573E+01   0.69104206E-04   0.66665908E+00   0.42137884E+00
  97.0000   0.36136973E-02  -0.76534741E+03   0.10815799E+01   0.68909968E-04   0.66665809E+00   0.42452387E+00
 102.1000   0.37179951E-02  -0.75978911E+03   0.10893362E+01   0.68904551E-04   0.66665695E+00   0.42659059E+00
 107.4000   0.38249963E-02  -0.75398696E+03   0.10952664E+01   0.69042380E-04   0.66665569E+00   0.42747827E+00
 113.1000   0.39422675E-02  -0.74769650E+03   0.11052420E+01   0.69059772E-04   0.66665418E+00   0.43025178E+00
 119.0000   0.40557134E-02  -0.74113136E+03   0.11164072E+01   0.69221747E-04   0.66665246E+00   0.43162484E+00
 125.2000   0.41746075E-02  -0.73414444E+03   0.11409524E+01   0.69217465E-04   0.66665028E+00   0.43356015E+00
 131.7000   0.43003708E-02  -0.72671897E+03   0.11481606E+01   0.69368921E-04   0.66664805E+00   0.43588724E+00
 138.6000   0.44302614E-02  -0.71873081E+03   0.11725447E+01   0.69631212E-04   0.66664514E+00   0.43719309E+00
 145.9000   0.45667805E-02  -0.71008945E+03   0.11901120E+01   0.70014138E-04   0.66664186E+00   0.43865049E+00
 153.5000   0.47001553E-02  -0.70085873E+03   0.12371027E+01   0.70338972E-04   0.66663737E+00   0.43956872E+00
 161.5000   0.48435517E-02  -0.69081148E+03   0.12830118E+01   0.70553886E-04   0.66663205E+00   0.44095934E+00
 170.0000   0.49996790E-02  -0.67951096E+03   0.13771898E+01   0.71171922E-04   0.66662412E+00   0.44199036E+00
 171.0000   0.50193720E-02  -0.67811318E+03   0.13822764E+01   0.71233539E-04   0.66662328E+00   0.44201394E+00
 172.0000   0.50375565E-02  -0.67672759E+03   0.14003518E+01   0.71430747E-04   0.66662201E+00   0.44244389E+00
 173.0000   0.50550069E-02  -0.67533215E+03   0.14097345E+01   0.71497088E-04   0.66662100E+00   0.44253131E+00
 174.0000   0.50669744E-02  -0.67391503E+03   0.14303835E+01   0.71307435E-04   0.66661960E+00   0.44265521E+00
 175.0000   0.50811408E-02  -0.67246489E+03   0.14479566E+01   0.71260931E-04   0.66661826E+00   0.44318392E+00
 176.0000   0.51050863E-02  -0.67101065E+03   0.14533487E+01   0.71414894E-04   0.66661731E+00   0.44310501E+00
 177.0000   0.51272624E-02  -0.66957317E+03   0.14667989E+01   0.71576350E-04   0.66661607E+00   0.44383363E+00
 178.0000   0.51444463E-02  -0.66811308E+03   0.14843712E+01   0.71602049E-04   0.66661466E+00   0.44345504E+00
 179.0000   0.51604374E-02  -0.66659847E+03   0.14954634E+01   0.71872194E-04   0.66661344E+00   0.44320078E+00
 180.0000   0.51803565E-02  -0.66509992E+03   0.15149537E+01   0.72019690E-04   0.66661190E+00   0.44312057E+00
 181.0000   0.51981944E-02  -0.66359399E+03   0.15187668E+01   0.71809619E-04   0.66661089E+00   0.44424717E+00
 182.0000   0.52177665E-02  -0.66206324E+03   0.15232520E+01   0.72060177E-04   0.66660984E+00   0.44390302E+00
 183.0000   0.52338616E-02  -0.66055206E+03   0.15327194E+01   0.72340352E-04   0.66660860E+00   0.44261776E+00
 184.0000   0.52530138E-02  -0.65901367E+03   0.15507284E+01   0.72126335E-04   0.66660699E+00   0.44416344E+00
 185.0000   0.52730001E-02  -0.65745232E+03   0.15540776E+01   0.72379247E-04   0.66660592E+00   0.44424885E+00
 186.0000   0.52880132E-02  -0.65590175E+03   0.15620091E+01   0.72505998E-04   0.66660466E+00   0.44334219E+00
 187.0000   0.53069251E-02  -0.65433948E+03   0.15714673E+01   0.72589492E-04   0.66660331E+00   0.44353534E+00
 188.0000   0.53204892E-02  -0.65276923E+03   0.15717626E+01   0.72487848E-04   0.66660231E+00   0.44410659E+00
 189.0000   0.53403353E-02  -0.65119769E+03   0.15776337E+01   0.72696212E-04   0.66660106E+00   0.44387456E+00
 190.0000   0.53610162E-02  -0.64963556E+03   0.15736289E+01   0.72708669E-04   0.66660021E+00   0.44443365E+00
 191.0000   0.53757991E-02  -0.64804225E+03   0.15762183E+01   0.72976202E-04   0.66659907E+00   0.44381595E+00
 192.0000   0.53970600E-02  -0.64647424E+03   0.15751090E+01   0.73014390E-04   0.66659808E+00   0.44368983E+00
 193.0000   0.54127866E-02  -0.64488855E+03   0.15727005E+01   0.73075120E-04   0.66659713E+00   0.44405694E+00
 194.0000   0.54316978E-02  -0.64330700E+03   0.15652610E+01   0.73111420E-04   0.66659639E+00   0.44449565E+00
 195.0000   0.54456227E-02  -0.64175422E+03   0.15710903E+01   0.73287633E-04   0.66659505E+00   0.44381236E+00
 196.0000   0.54683053E-02  -0.64018329E+03   0.15726790E+01   0.73345657E-04   0.66659389E+00   0.44441290E+00
 197.0000   0.54812545E-02  -0.63861172E+03   0.15651086E+01   0.73532815E-04   0.66659314E+00   0.44402631E+00
 198.0000   0.55017399E-02  -0.63705686E+03   0.15644483E+01   0.73622494E-04   0.66659206E+00   0.44381528E+00
 199.0000   0.55200722E-02  -0.63549102E+03   0.15676780E+01   0.73677161E-04   0.66659077E+00   0.44371122E+00
 200.0000   0.55360933E-02  -0.63390288E+03   0.15519061E+01   0.73756237E-04   0.66659040E+00   0.44400485E+00
 201.0000   0.55532828E-02  -0.63233931E+03   0.15530235E+01   0.73893238E-04   0.66658920E+00   0.44393901E+00
 202.0000   0.55699179E-02  -0.63079148E+03   0.15557918E+01   0.73677025E-04   0.66658790E+00   0.44479566E+00
 203.0000   0.55882530E-02  -0.62921283E+03   0.15533207E+01   0.74097664E-04   0.66658685E+00   0.44385831E+00
 204.0000   0.56059853E-02  -0.62768366E+03   0.15497054E+01   0.74338542E-04   0.66658585E+00   0.44351973E+00
 205.0000   0.56214871E-02  -0.62616460E+03   0.15450068E+01   0.74226290E-04   0.66658491E+00   0.44370829E+00
 206.0000   0.56399258E-02  -0.62460134E+03   0.15357853E+01   0.74056264E-04   0.66658419E+00   0.44549723E+00
 207.0000   0.56583106E-02  -0.62307226E+03   0.15387402E+01   0.74351874E-04   0.66658282E+00   0.44435938E+00
 208.0000   0.56685821E-02  -0.62152030E+03   0.15316696E+01   0.74328162E-04   0.66658197E+00   0.44434983E+00
 209.0000   0.56881996E-02  -0.62001177E+03   0.15229729E+01   0.74493014E-04   0.66658123E+00   0.44427832E+00
 210.0000   0.57086804E-02  -0.61850032E+03   0.15140006E+01   0.74592059E-04   0.66658050E+00   0.44493006E+00
 211.0000   0.57284175E-02  -0.61701188E+03   0.15090286E+01   0.74582834E-04   0.66657954E+00   0.44516961E+00
 212.0000   0.57449092E-02  -0.61550573E+03   0.15022012E+01   0.74826560E-04   0.66657868E+00   0.44468863E+00
 213.0000   0.57547040E-02  -0.61399880E+03   0.14885129E+01   0.75161193E-04   0.66657823E+00   0.44314158E+00
 214.0000   0.57760766E-02  -0.61251476E+03   0.14868444E+01   0.74920522E-04   0.66657706E+00   0.44436068E+00
 215.0000   0.57951694E-02  -0.61103290E+03   0.14855717E+01   0.75227606E-04   0.66657586E+00   0.44412695E+00
 216.0000   0.58051051E-02  -0.60957688E+03   0.14790288E+01   0.75301323E-04   0.66657499E+00   0.44351588E+00
 217.0000   0.58273341E-02  -0.60810031E+03   0.14784365E+01   0.75260143E-04   0.66657371E+00   0.44410558E+00
 218.0000   0.58488071E-02  -0.60660917E+03   0.14719934E+01   0.75575172E-04   0.66657281E+00   0.44372164E+00
 219.0000   0.58605362E-02  -0.60515540E+03   0.14639836E+01   0.75474021E-04   0.66657201E+00   0.44429648E+00
 220.0000   0.58732860E-02  -0.60369674E+03   0.14569485E+01   0.75378453E-04   0.66657114E+00   0.44474578E+00
 224.3000   0.59421227E-02  -0.59748903E+03   0.14334437E+01   0.75539098E-04   0.66656693E+00   0.44478657E+00
 228.7000   0.60168776E-02  -0.59123553E+03   0.14066178E+01   0.76126948E-04   0.66656275E+00   0.44436858E+00
 233.1000   0.60886861E-02  -0.58516832E+03   0.13799290E+01   0.76510675E-04   0.66655856E+00   0.44439843E+00
 237.7000   0.61622554E-02  -0.57886638E+03   0.13496431E+01   0.76825807E-04   0.66655432E+00   0.44411045E+00
 242.3000   0.62286580E-02  -0.57272106E+03   0.13181281E+01   0.77136017E-04   0.66655019E+00   0.44418781E+00
 247.1000   0.63005534E-02  -0.56641947E+03   0.12918988E+01   0.77319555E-04   0.66654528E+00   0.44469650E+00
 251.9000   0.63763900E-02  -0.56027516E+03   0.12740883E+01   0.77582209E-04   0.66653953E+00   0.44467827E+00
 256.8000   0.64477560E-02  -0.55410653E+03   0.12434356E+01   0.77790234E-04   0.66653482E+00   0.44466619E+00
 261.8000   0.65203061E-02  -0.54798930E+03   0.12128567E+01   0.78122512E-04   0.66653000E+00   0.44416696E+00
 267.0000   0.65904608E-02  -0.54175844E+03   0.11832113E+01   0.78236208E-04   0.66652479E+00   0.44447462E+00
 272.2000   0.66661643E-02  -0.53566359E+03   0.11543670E+01   0.78507261E-04   0.66651951E+00   0.44445458E+00
 277.5000   0.67369932E-02  -0.52961051E+03   0.11261237E+01   0.78800800E-04   0.66651405E+00   0.44401538E+00
 282.9000   0.68135791E-02  -0.52359927E+03   0.10964880E+01   0.78956373E-04   0.66650865E+00   0.44447749E+00
 288.4000   0.68881020E-02  -0.51761462E+03   0.10728535E+01   0.78961087E-04   0.66650225E+00   0.44483664E+00
 294.1000   0.69571711E-02  -0.51159087E+03   0.10448105E+01   0.79170667E-04   0.66649621E+00   0.44472737E+00
 299.8000   0.70377036E-02  -0.50571802E+03   0.10170680E+01   0.79382523E-04   0.66649021E+00   0.44489289E+00
 305.7000   0.71053034E-02  -0.49982375E+03   0.98758752E+00   0.79273067E-04   0.66648429E+00   0.44466113E+00
 311.6000   0.71814332E-02  -0.49406612E+03   0.96118689E+00   0.79524284E-04   0.66647792E+00   0.44447439E+00
 317.7000   0.72593244E-02  -0.48828548E+03   0.93442805E+00   0.79565013E-04   0.66647139E+00   0.44484511E+00
 323.9000   0.73299912E-02  -0.48255706E+03   0.90794005E+00   0.79661073E-04   0.66646473E+00   0.44460538E+00
 330.3000   0.74008381E-02  -0.47683342E+03   0.88257558E+00   0.79722119E-04   0.66645762E+00   0.44467888E+00
 336.7000   0.74856134E-02  -0.47125825E+03   0.85969341E+00   0.80090290E-04   0.66645003E+00   0.44395901E+00
 343.3000   0.75541059E-02  -0.46567710E+03   0.83337673E+00   0.79972254E-04   0.66644308E+00   0.44439952E+00
 350.0000   0.76290223E-02  -0.46016724E+03   0.80931809E+00   0.79799472E-04   0.66643556E+00   0.44487047E+00
 356.8000   0.77018557E-02  -0.45475080E+03   0.78597883E+00   0.80011006E-04   0.66642782E+00   0.44427294E+00
