 #written on 11Sep2024 at 23:16:24 
 #----------------- MONTECARLO -------------------#
 #        M                      P(M)             #
 #------------------------------------------------#
 #T=   450.0000
  -0.40000000E+01           0.00000000E+00
  -0.39900000E+01           0.00000000E+00
  -0.39800000E+01           0.00000000E+00
  -0.39700000E+01           0.00000000E+00
  -0.39600000E+01           0.00000000E+00
  -0.39500000E+01           0.00000000E+00
  -0.39400000E+01           0.00000000E+00
  -0.39300000E+01           0.00000000E+00
  -0.39200000E+01           0.00000000E+00
  -0.39100000E+01           0.00000000E+00
  -0.39000000E+01           0.00000000E+00
  -0.38900000E+01           0.00000000E+00
  -0.38800000E+01           0.00000000E+00
  -0.38700000E+01           0.00000000E+00
  -0.38600000E+01           0.00000000E+00
  -0.38500000E+01           0.00000000E+00
  -0.38400000E+01           0.00000000E+00
  -0.38300000E+01           0.00000000E+00
  -0.38200000E+01           0.00000000E+00
  -0.38100000E+01           0.00000000E+00
  -0.38000000E+01           0.00000000E+00
  -0.37900000E+01           0.00000000E+00
  -0.37800000E+01           0.00000000E+00
  -0.37700000E+01           0.00000000E+00
  -0.37600000E+01           0.00000000E+00
  -0.37500000E+01           0.00000000E+00
  -0.37400000E+01           0.00000000E+00
  -0.37300000E+01           0.00000000E+00
  -0.37200000E+01           0.00000000E+00
  -0.37100000E+01           0.00000000E+00
  -0.37000000E+01           0.00000000E+00
  -0.36900000E+01           0.00000000E+00
  -0.36800000E+01           0.00000000E+00
  -0.36700000E+01           0.00000000E+00
  -0.36600000E+01           0.00000000E+00
  -0.36500000E+01           0.00000000E+00
  -0.36400000E+01           0.00000000E+00
  -0.36300000E+01           0.00000000E+00
  -0.36200000E+01           0.00000000E+00
  -0.36100000E+01           0.00000000E+00
  -0.36000000E+01           0.00000000E+00
  -0.35900000E+01           0.00000000E+00
  -0.35800000E+01           0.00000000E+00
  -0.35700000E+01           0.00000000E+00
  -0.35600000E+01           0.00000000E+00
  -0.35500000E+01           0.00000000E+00
  -0.35400000E+01           0.00000000E+00
  -0.35300000E+01           0.00000000E+00
  -0.35200000E+01           0.00000000E+00
  -0.35100000E+01           0.00000000E+00
  -0.35000000E+01           0.00000000E+00
  -0.34900000E+01           0.00000000E+00
  -0.34800000E+01           0.00000000E+00
  -0.34700000E+01           0.00000000E+00
  -0.34600000E+01           0.00000000E+00
  -0.34500000E+01           0.00000000E+00
  -0.34400000E+01           0.00000000E+00
  -0.34300000E+01           0.00000000E+00
  -0.34200000E+01           0.00000000E+00
  -0.34100000E+01           0.00000000E+00
  -0.34000000E+01           0.00000000E+00
  -0.33900000E+01           0.00000000E+00
  -0.33800000E+01           0.00000000E+00
  -0.33700000E+01           0.00000000E+00
  -0.33600000E+01           0.00000000E+00
  -0.33500000E+01           0.00000000E+00
  -0.33400000E+01           0.00000000E+00
  -0.33300000E+01           0.00000000E+00
  -0.33200000E+01           0.00000000E+00
  -0.33100000E+01           0.00000000E+00
  -0.33000000E+01           0.00000000E+00
  -0.32900000E+01           0.00000000E+00
  -0.32800000E+01           0.00000000E+00
  -0.32700000E+01           0.00000000E+00
  -0.32600000E+01           0.00000000E+00
  -0.32500000E+01           0.00000000E+00
  -0.32400000E+01           0.00000000E+00
  -0.32300000E+01           0.00000000E+00
  -0.32200000E+01           0.00000000E+00
  -0.32100000E+01           0.00000000E+00
  -0.32000000E+01           0.00000000E+00
  -0.31900000E+01           0.00000000E+00
  -0.31800000E+01           0.00000000E+00
  -0.31700000E+01           0.00000000E+00
  -0.31600000E+01           0.00000000E+00
  -0.31500000E+01           0.00000000E+00
  -0.31400000E+01           0.00000000E+00
  -0.31300000E+01           0.00000000E+00
  -0.31200000E+01           0.00000000E+00
  -0.31100000E+01           0.00000000E+00
  -0.31000000E+01           0.00000000E+00
  -0.30900000E+01           0.00000000E+00
  -0.30800000E+01           0.00000000E+00
  -0.30700000E+01           0.00000000E+00
  -0.30600000E+01           0.00000000E+00
  -0.30500000E+01           0.00000000E+00
  -0.30400000E+01           0.00000000E+00
  -0.30300000E+01           0.00000000E+00
  -0.30200000E+01           0.00000000E+00
  -0.30100000E+01           0.00000000E+00
  -0.30000000E+01           0.00000000E+00
  -0.29900000E+01           0.00000000E+00
  -0.29800000E+01           0.00000000E+00
  -0.29700000E+01           0.00000000E+00
  -0.29600000E+01           0.00000000E+00
  -0.29500000E+01           0.00000000E+00
  -0.29400000E+01           0.00000000E+00
  -0.29300000E+01           0.00000000E+00
  -0.29200000E+01           0.00000000E+00
  -0.29100000E+01           0.00000000E+00
  -0.29000000E+01           0.00000000E+00
  -0.28900000E+01           0.00000000E+00
  -0.28800000E+01           0.00000000E+00
  -0.28700000E+01           0.00000000E+00
  -0.28600000E+01           0.00000000E+00
  -0.28500000E+01           0.00000000E+00
  -0.28400000E+01           0.00000000E+00
  -0.28300000E+01           0.00000000E+00
  -0.28200000E+01           0.00000000E+00
  -0.28100000E+01           0.00000000E+00
  -0.28000000E+01           0.00000000E+00
  -0.27900000E+01           0.00000000E+00
  -0.27800000E+01           0.00000000E+00
  -0.27700000E+01           0.00000000E+00
  -0.27600000E+01           0.00000000E+00
  -0.27500000E+01           0.00000000E+00
  -0.27400000E+01           0.00000000E+00
  -0.27300000E+01           0.00000000E+00
  -0.27200000E+01           0.00000000E+00
  -0.27100000E+01           0.00000000E+00
  -0.27000000E+01           0.00000000E+00
  -0.26900000E+01           0.00000000E+00
  -0.26800000E+01           0.00000000E+00
  -0.26700000E+01           0.00000000E+00
  -0.26600000E+01           0.00000000E+00
  -0.26500000E+01           0.00000000E+00
  -0.26400000E+01           0.00000000E+00
  -0.26300000E+01           0.00000000E+00
  -0.26200000E+01           0.00000000E+00
  -0.26100000E+01           0.00000000E+00
  -0.26000000E+01           0.00000000E+00
  -0.25900000E+01           0.00000000E+00
  -0.25800000E+01           0.00000000E+00
  -0.25700000E+01           0.00000000E+00
  -0.25600000E+01           0.00000000E+00
  -0.25500000E+01           0.00000000E+00
  -0.25400000E+01           0.00000000E+00
  -0.25300000E+01           0.00000000E+00
  -0.25200000E+01           0.00000000E+00
  -0.25100000E+01           0.00000000E+00
  -0.25000000E+01           0.00000000E+00
  -0.24900000E+01           0.00000000E+00
  -0.24800000E+01           0.00000000E+00
  -0.24700000E+01           0.00000000E+00
  -0.24600000E+01           0.00000000E+00
  -0.24500000E+01           0.00000000E+00
  -0.24400000E+01           0.00000000E+00
  -0.24300000E+01           0.00000000E+00
  -0.24200000E+01           0.00000000E+00
  -0.24100000E+01           0.00000000E+00
  -0.24000000E+01           0.00000000E+00
  -0.23900000E+01           0.00000000E+00
  -0.23800000E+01           0.00000000E+00
  -0.23700000E+01           0.00000000E+00
  -0.23600000E+01           0.00000000E+00
  -0.23500000E+01           0.00000000E+00
  -0.23400000E+01           0.00000000E+00
  -0.23300000E+01           0.00000000E+00
  -0.23200000E+01           0.00000000E+00
  -0.23100000E+01           0.00000000E+00
  -0.23000000E+01           0.00000000E+00
  -0.22900000E+01           0.00000000E+00
  -0.22800000E+01           0.00000000E+00
  -0.22700000E+01           0.00000000E+00
  -0.22600000E+01           0.00000000E+00
  -0.22500000E+01           0.00000000E+00
  -0.22400000E+01           0.00000000E+00
  -0.22300000E+01           0.00000000E+00
  -0.22200000E+01           0.00000000E+00
  -0.22100000E+01           0.00000000E+00
  -0.22000000E+01           0.00000000E+00
  -0.21900000E+01           0.00000000E+00
  -0.21800000E+01           0.00000000E+00
  -0.21700000E+01           0.00000000E+00
  -0.21600000E+01           0.00000000E+00
  -0.21500000E+01           0.00000000E+00
  -0.21400000E+01           0.00000000E+00
  -0.21300000E+01           0.00000000E+00
  -0.21200000E+01           0.00000000E+00
  -0.21100000E+01           0.00000000E+00
  -0.21000000E+01           0.00000000E+00
  -0.20900000E+01           0.00000000E+00
  -0.20800000E+01           0.00000000E+00
  -0.20700000E+01           0.00000000E+00
  -0.20600000E+01           0.00000000E+00
  -0.20500000E+01           0.00000000E+00
  -0.20400000E+01           0.00000000E+00
  -0.20300000E+01           0.00000000E+00
  -0.20200000E+01           0.00000000E+00
  -0.20100000E+01           0.00000000E+00
  -0.20000000E+01           0.00000000E+00
  -0.19900000E+01           0.00000000E+00
  -0.19800000E+01           0.00000000E+00
  -0.19700000E+01           0.00000000E+00
  -0.19600000E+01           0.00000000E+00
  -0.19500000E+01           0.00000000E+00
  -0.19400000E+01           0.00000000E+00
  -0.19300000E+01           0.00000000E+00
  -0.19200000E+01           0.00000000E+00
  -0.19100000E+01           0.00000000E+00
  -0.19000000E+01           0.00000000E+00
  -0.18900000E+01           0.00000000E+00
  -0.18800000E+01           0.00000000E+00
  -0.18700000E+01           0.00000000E+00
  -0.18600000E+01           0.00000000E+00
  -0.18500000E+01           0.00000000E+00
  -0.18400000E+01           0.00000000E+00
  -0.18300000E+01           0.00000000E+00
  -0.18200000E+01           0.00000000E+00
  -0.18100000E+01           0.00000000E+00
  -0.18000000E+01           0.00000000E+00
  -0.17900000E+01           0.00000000E+00
  -0.17800000E+01           0.00000000E+00
  -0.17700000E+01           0.00000000E+00
  -0.17600000E+01           0.00000000E+00
  -0.17500000E+01           0.00000000E+00
  -0.17400000E+01           0.00000000E+00
  -0.17300000E+01           0.00000000E+00
  -0.17200000E+01           0.00000000E+00
  -0.17100000E+01           0.00000000E+00
  -0.17000000E+01           0.00000000E+00
  -0.16900000E+01           0.00000000E+00
  -0.16800000E+01           0.00000000E+00
  -0.16700000E+01           0.00000000E+00
  -0.16600000E+01           0.00000000E+00
  -0.16500000E+01           0.00000000E+00
  -0.16400000E+01           0.00000000E+00
  -0.16300000E+01           0.00000000E+00
  -0.16200000E+01           0.00000000E+00
  -0.16100000E+01           0.00000000E+00
  -0.16000000E+01           0.00000000E+00
  -0.15900000E+01           0.00000000E+00
  -0.15800000E+01           0.00000000E+00
  -0.15700000E+01           0.00000000E+00
  -0.15600000E+01           0.00000000E+00
  -0.15500000E+01           0.00000000E+00
  -0.15400000E+01           0.00000000E+00
  -0.15300000E+01           0.00000000E+00
  -0.15200000E+01           0.00000000E+00
  -0.15100000E+01           0.00000000E+00
  -0.15000000E+01           0.00000000E+00
  -0.14900000E+01           0.00000000E+00
  -0.14800000E+01           0.00000000E+00
  -0.14700000E+01           0.00000000E+00
  -0.14600000E+01           0.00000000E+00
  -0.14500000E+01           0.00000000E+00
  -0.14400000E+01           0.00000000E+00
  -0.14300000E+01           0.00000000E+00
  -0.14200000E+01           0.00000000E+00
  -0.14100000E+01           0.00000000E+00
  -0.14000000E+01           0.00000000E+00
  -0.13900000E+01           0.00000000E+00
  -0.13800000E+01           0.00000000E+00
  -0.13700000E+01           0.00000000E+00
  -0.13600000E+01           0.00000000E+00
  -0.13500000E+01           0.00000000E+00
  -0.13400000E+01           0.00000000E+00
  -0.13300000E+01           0.00000000E+00
  -0.13200000E+01           0.00000000E+00
  -0.13100000E+01           0.00000000E+00
  -0.13000000E+01           0.00000000E+00
  -0.12900000E+01           0.00000000E+00
  -0.12800000E+01           0.00000000E+00
  -0.12700000E+01           0.00000000E+00
  -0.12600000E+01           0.00000000E+00
  -0.12500000E+01           0.00000000E+00
  -0.12400000E+01           0.00000000E+00
  -0.12300000E+01           0.00000000E+00
  -0.12200000E+01           0.00000000E+00
  -0.12100000E+01           0.00000000E+00
  -0.12000000E+01           0.00000000E+00
  -0.11900000E+01           0.00000000E+00
  -0.11800000E+01           0.00000000E+00
  -0.11700000E+01           0.00000000E+00
  -0.11600000E+01           0.00000000E+00
  -0.11500000E+01           0.00000000E+00
  -0.11400000E+01           0.00000000E+00
  -0.11300000E+01           0.00000000E+00
  -0.11200000E+01           0.00000000E+00
  -0.11100000E+01           0.00000000E+00
  -0.11000000E+01           0.00000000E+00
  -0.10900000E+01           0.00000000E+00
  -0.10800000E+01           0.00000000E+00
  -0.10700000E+01           0.00000000E+00
  -0.10600000E+01           0.00000000E+00
  -0.10500000E+01           0.00000000E+00
  -0.10400000E+01           0.00000000E+00
  -0.10300000E+01           0.00000000E+00
  -0.10200000E+01           0.00000000E+00
  -0.10100000E+01           0.00000000E+00
  -0.10000000E+01           0.00000000E+00
  -0.99000000E+00           0.00000000E+00
  -0.98000000E+00           0.00000000E+00
  -0.97000000E+00           0.00000000E+00
  -0.96000000E+00           0.00000000E+00
  -0.95000000E+00           0.00000000E+00
  -0.94000000E+00           0.00000000E+00
  -0.93000000E+00           0.00000000E+00
  -0.92000000E+00           0.00000000E+00
  -0.91000000E+00           0.00000000E+00
  -0.90000000E+00           0.00000000E+00
  -0.89000000E+00           0.00000000E+00
  -0.88000000E+00           0.00000000E+00
  -0.87000000E+00           0.00000000E+00
  -0.86000000E+00           0.00000000E+00
  -0.85000000E+00           0.00000000E+00
  -0.84000000E+00           0.00000000E+00
  -0.83000000E+00           0.00000000E+00
  -0.82000000E+00           0.00000000E+00
  -0.81000000E+00           0.00000000E+00
  -0.80000000E+00           0.00000000E+00
  -0.79000000E+00           0.00000000E+00
  -0.78000000E+00           0.00000000E+00
  -0.77000000E+00           0.00000000E+00
  -0.76000000E+00           0.00000000E+00
  -0.75000000E+00           0.00000000E+00
  -0.74000000E+00           0.00000000E+00
  -0.73000000E+00           0.00000000E+00
  -0.72000000E+00           0.00000000E+00
  -0.71000000E+00           0.00000000E+00
  -0.70000000E+00           0.00000000E+00
  -0.69000000E+00           0.00000000E+00
  -0.68000000E+00           0.00000000E+00
  -0.67000000E+00           0.00000000E+00
  -0.66000000E+00           0.00000000E+00
  -0.65000000E+00           0.00000000E+00
  -0.64000000E+00           0.00000000E+00
  -0.63000000E+00           0.00000000E+00
  -0.62000000E+00           0.00000000E+00
  -0.61000000E+00           0.00000000E+00
  -0.60000000E+00           0.00000000E+00
  -0.59000000E+00           0.00000000E+00
  -0.58000000E+00           0.00000000E+00
  -0.57000000E+00           0.00000000E+00
  -0.56000000E+00           0.00000000E+00
  -0.55000000E+00           0.00000000E+00
  -0.54000000E+00           0.00000000E+00
  -0.53000000E+00           0.00000000E+00
  -0.52000000E+00           0.00000000E+00
  -0.51000000E+00           0.00000000E+00
  -0.50000000E+00           0.00000000E+00
  -0.49000000E+00           0.00000000E+00
  -0.48000000E+00           0.00000000E+00
  -0.47000000E+00           0.00000000E+00
  -0.46000000E+00           0.00000000E+00
  -0.45000000E+00           0.00000000E+00
  -0.44000000E+00           0.00000000E+00
  -0.43000000E+00           0.00000000E+00
  -0.42000000E+00           0.00000000E+00
  -0.41000000E+00           0.00000000E+00
  -0.40000000E+00           0.00000000E+00
  -0.39000000E+00           0.00000000E+00
  -0.38000000E+00           0.00000000E+00
  -0.37000000E+00           0.00000000E+00
  -0.36000000E+00           0.00000000E+00
  -0.35000000E+00           0.00000000E+00
  -0.34000000E+00           0.00000000E+00
  -0.33000000E+00           0.00000000E+00
  -0.32000000E+00           0.00000000E+00
  -0.31000000E+00           0.00000000E+00
  -0.30000000E+00           0.00000000E+00
  -0.29000000E+00           0.00000000E+00
  -0.28000000E+00           0.00000000E+00
  -0.27000000E+00           0.00000000E+00
  -0.26000000E+00           0.00000000E+00
  -0.25000000E+00           0.00000000E+00
  -0.24000000E+00           0.00000000E+00
  -0.23000000E+00           0.00000000E+00
  -0.22000000E+00           0.00000000E+00
  -0.21000000E+00           0.00000000E+00
  -0.20000000E+00           0.00000000E+00
  -0.19000000E+00           0.00000000E+00
  -0.18000000E+00           0.00000000E+00
  -0.17000000E+00           0.00000000E+00
  -0.16000000E+00           0.00000000E+00
  -0.15000000E+00           0.00000000E+00
  -0.14000000E+00           0.00000000E+00
  -0.13000000E+00           0.00000000E+00
  -0.12000000E+00           0.00000000E+00
  -0.11000000E+00           0.00000000E+00
  -0.10000000E+00           0.00000000E+00
  -0.90000000E-01           0.00000000E+00
  -0.80000000E-01           0.00000000E+00
  -0.70000000E-01           0.00000000E+00
  -0.60000000E-01           0.00000000E+00
  -0.50000000E-01           0.00000000E+00
  -0.40000000E-01           0.00000000E+00
  -0.30000000E-01           0.00000000E+00
  -0.20000000E-01           0.00000000E+00
  -0.10000000E-01           0.00000000E+00
   0.00000000E+00           0.13227513E-04
   0.10000000E-01           0.35061728E-03
   0.20000000E-01           0.12906526E-02
   0.30000000E-01           0.28703704E-02
   0.40000000E-01           0.49749559E-02
   0.50000000E-01           0.76296296E-02
   0.60000000E-01           0.10900529E-01
   0.70000000E-01           0.14522928E-01
   0.80000000E-01           0.18727337E-01
   0.90000000E-01           0.23344444E-01
   0.10000000E+00           0.28589594E-01
   0.11000000E+00           0.33983245E-01
   0.12000000E+00           0.40072663E-01
   0.13000000E+00           0.46424691E-01
   0.14000000E+00           0.53034744E-01
   0.15000000E+00           0.60062787E-01
   0.16000000E+00           0.67423104E-01
   0.17000000E+00           0.75067901E-01
   0.18000000E+00           0.82997531E-01
   0.19000000E+00           0.91261376E-01
   0.20000000E+00           0.10007989E+00
   0.21000000E+00           0.10858501E+00
   0.22000000E+00           0.11794250E+00
   0.23000000E+00           0.12709295E+00
   0.24000000E+00           0.13644850E+00
   0.25000000E+00           0.14593316E+00
   0.26000000E+00           0.15582575E+00
   0.27000000E+00           0.16558166E+00
   0.28000000E+00           0.17570106E+00
   0.29000000E+00           0.18586420E+00
   0.30000000E+00           0.19637425E+00
   0.31000000E+00           0.20663527E+00
   0.32000000E+00           0.21724250E+00
   0.33000000E+00           0.22781993E+00
   0.34000000E+00           0.23875626E+00
   0.35000000E+00           0.24920776E+00
   0.36000000E+00           0.26002205E+00
   0.37000000E+00           0.27090811E+00
   0.38000000E+00           0.28132875E+00
   0.39000000E+00           0.29264832E+00
   0.40000000E+00           0.30350265E+00
   0.41000000E+00           0.31392028E+00
   0.42000000E+00           0.32482169E+00
   0.43000000E+00           0.33551605E+00
   0.44000000E+00           0.34653192E+00
   0.45000000E+00           0.35706437E+00
   0.46000000E+00           0.36780176E+00
   0.47000000E+00           0.37831252E+00
   0.48000000E+00           0.38937478E+00
   0.49000000E+00           0.39949259E+00
   0.50000000E+00           0.40949771E+00
   0.51000000E+00           0.41993915E+00
   0.52000000E+00           0.43014709E+00
   0.53000000E+00           0.43973898E+00
   0.54000000E+00           0.44999277E+00
   0.55000000E+00           0.46010141E+00
   0.56000000E+00           0.46952328E+00
   0.57000000E+00           0.47890229E+00
   0.58000000E+00           0.48838448E+00
   0.59000000E+00           0.49767249E+00
   0.60000000E+00           0.50698871E+00
   0.61000000E+00           0.51503404E+00
   0.62000000E+00           0.52429665E+00
   0.63000000E+00           0.53297654E+00
   0.64000000E+00           0.54147460E+00
   0.65000000E+00           0.55007496E+00
   0.66000000E+00           0.55781252E+00
   0.67000000E+00           0.56640476E+00
   0.68000000E+00           0.57429083E+00
   0.69000000E+00           0.58165397E+00
   0.70000000E+00           0.58910053E+00
   0.71000000E+00           0.59597725E+00
   0.72000000E+00           0.60310970E+00
   0.73000000E+00           0.60906825E+00
   0.74000000E+00           0.61618642E+00
   0.75000000E+00           0.62279965E+00
   0.76000000E+00           0.62819083E+00
   0.77000000E+00           0.63443439E+00
   0.78000000E+00           0.64012504E+00
   0.79000000E+00           0.64547354E+00
   0.80000000E+00           0.65086473E+00
   0.81000000E+00           0.65642646E+00
   0.82000000E+00           0.66062222E+00
   0.83000000E+00           0.66583245E+00
   0.84000000E+00           0.66978025E+00
   0.85000000E+00           0.67428571E+00
   0.86000000E+00           0.67792593E+00
   0.87000000E+00           0.68240388E+00
   0.88000000E+00           0.68504462E+00
   0.89000000E+00           0.68878360E+00
   0.90000000E+00           0.69267937E+00
   0.91000000E+00           0.69516279E+00
   0.92000000E+00           0.69827266E+00
   0.93000000E+00           0.70032857E+00
   0.94000000E+00           0.70213933E+00
   0.95000000E+00           0.70496578E+00
   0.96000000E+00           0.70670653E+00
   0.97000000E+00           0.70813263E+00
   0.98000000E+00           0.70996455E+00
   0.99000000E+00           0.71063069E+00
   0.10000000E+01           0.71177937E+00
   0.10100000E+01           0.71273616E+00
   0.10200000E+01           0.71352787E+00
   0.10300000E+01           0.71365485E+00
   0.10400000E+01           0.71446120E+00
   0.10500000E+01           0.71393086E+00
   0.10600000E+01           0.71338995E+00
   0.10700000E+01           0.71353122E+00
   0.10800000E+01           0.71218836E+00
   0.10900000E+01           0.71185150E+00
   0.11000000E+01           0.71074586E+00
   0.11100000E+01           0.70995009E+00
   0.11200000E+01           0.70844586E+00
   0.11300000E+01           0.70715732E+00
   0.11400000E+01           0.70608219E+00
   0.11500000E+01           0.70345873E+00
   0.11600000E+01           0.70113827E+00
   0.11700000E+01           0.69912575E+00
   0.11800000E+01           0.69650723E+00
   0.11900000E+01           0.69397566E+00
   0.12000000E+01           0.69162046E+00
   0.12100000E+01           0.68798854E+00
   0.12200000E+01           0.68537795E+00
   0.12300000E+01           0.68225203E+00
   0.12400000E+01           0.67874974E+00
   0.12500000E+01           0.67522857E+00
   0.12600000E+01           0.67210317E+00
   0.12700000E+01           0.66737249E+00
   0.12800000E+01           0.66461340E+00
   0.12900000E+01           0.66047778E+00
   0.13000000E+01           0.65686808E+00
   0.13100000E+01           0.65246614E+00
   0.13200000E+01           0.64742575E+00
   0.13300000E+01           0.64296049E+00
   0.13400000E+01           0.63898025E+00
   0.13500000E+01           0.63333034E+00
   0.13600000E+01           0.62994780E+00
   0.13700000E+01           0.62459577E+00
   0.13800000E+01           0.61965679E+00
   0.13900000E+01           0.61367231E+00
   0.14000000E+01           0.60902169E+00
   0.14100000E+01           0.60402152E+00
   0.14200000E+01           0.59836543E+00
   0.14300000E+01           0.59259506E+00
   0.14400000E+01           0.58739277E+00
   0.14500000E+01           0.58190776E+00
   0.14600000E+01           0.57547549E+00
   0.14700000E+01           0.57048748E+00
   0.14800000E+01           0.56432822E+00
   0.14900000E+01           0.55873739E+00
   0.15000000E+01           0.55276138E+00
   0.15100000E+01           0.54713069E+00
   0.15200000E+01           0.54054780E+00
   0.15300000E+01           0.53402116E+00
   0.15400000E+01           0.52786067E+00
   0.15500000E+01           0.52222293E+00
   0.15600000E+01           0.51556949E+00
   0.15700000E+01           0.50968254E+00
   0.15800000E+01           0.50347249E+00
   0.15900000E+01           0.49806032E+00
   0.16000000E+01           0.49135273E+00
   0.16100000E+01           0.48422628E+00
   0.16200000E+01           0.47837743E+00
   0.16300000E+01           0.47149753E+00
   0.16400000E+01           0.46538113E+00
   0.16500000E+01           0.45910247E+00
   0.16600000E+01           0.45211605E+00
   0.16700000E+01           0.44677513E+00
   0.16800000E+01           0.43931446E+00
   0.16900000E+01           0.43310970E+00
   0.17000000E+01           0.42723510E+00
   0.17100000E+01           0.42040441E+00
   0.17200000E+01           0.41434515E+00
   0.17300000E+01           0.40780952E+00
   0.17400000E+01           0.40113034E+00
   0.17500000E+01           0.39525203E+00
   0.17600000E+01           0.38848289E+00
   0.17700000E+01           0.38222099E+00
   0.17800000E+01           0.37583104E+00
   0.17900000E+01           0.36994427E+00
   0.18000000E+01           0.36274021E+00
   0.18100000E+01           0.35712787E+00
   0.18200000E+01           0.35103757E+00
   0.18300000E+01           0.34506490E+00
   0.18400000E+01           0.33827989E+00
   0.18500000E+01           0.33247266E+00
   0.18600000E+01           0.32618448E+00
   0.18700000E+01           0.32013263E+00
   0.18800000E+01           0.31431270E+00
   0.18900000E+01           0.30813616E+00
   0.19000000E+01           0.30239418E+00
   0.19100000E+01           0.29593104E+00
   0.19200000E+01           0.28994215E+00
   0.19300000E+01           0.28429171E+00
   0.19400000E+01           0.27857143E+00
   0.19500000E+01           0.27349647E+00
   0.19600000E+01           0.26769065E+00
   0.19700000E+01           0.26198042E+00
   0.19800000E+01           0.25660864E+00
   0.19900000E+01           0.25087566E+00
   0.20000000E+01           0.24542381E+00
   0.20100000E+01           0.23974250E+00
   0.20200000E+01           0.23500564E+00
   0.20300000E+01           0.22930741E+00
   0.20400000E+01           0.22425344E+00
   0.20500000E+01           0.21939048E+00
   0.20600000E+01           0.21398995E+00
   0.20700000E+01           0.20925891E+00
   0.20800000E+01           0.20401446E+00
   0.20900000E+01           0.19942998E+00
   0.21000000E+01           0.19520741E+00
   0.21100000E+01           0.19029189E+00
   0.21200000E+01           0.18592081E+00
   0.21300000E+01           0.18155961E+00
   0.21400000E+01           0.17651111E+00
   0.21500000E+01           0.17279153E+00
   0.21600000E+01           0.16827231E+00
   0.21700000E+01           0.16440670E+00
   0.21800000E+01           0.16011746E+00
   0.21900000E+01           0.15625591E+00
   0.22000000E+01           0.15184832E+00
   0.22100000E+01           0.14833704E+00
   0.22200000E+01           0.14454427E+00
   0.22300000E+01           0.14081076E+00
   0.22400000E+01           0.13735855E+00
   0.22500000E+01           0.13360529E+00
   0.22600000E+01           0.12987460E+00
   0.22700000E+01           0.12688695E+00
   0.22800000E+01           0.12335979E+00
   0.22900000E+01           0.12011905E+00
   0.23000000E+01           0.11702787E+00
   0.23100000E+01           0.11374515E+00
   0.23200000E+01           0.11052293E+00
   0.23300000E+01           0.10775062E+00
   0.23400000E+01           0.10440794E+00
   0.23500000E+01           0.10158183E+00
   0.23600000E+01           0.98673016E-01
   0.23700000E+01           0.96019929E-01
   0.23800000E+01           0.93268254E-01
   0.23900000E+01           0.90458554E-01
   0.24000000E+01           0.87788713E-01
   0.24100000E+01           0.85542328E-01
   0.24200000E+01           0.82954674E-01
   0.24300000E+01           0.80358201E-01
   0.24400000E+01           0.78028748E-01
   0.24500000E+01           0.75833686E-01
   0.24600000E+01           0.73376896E-01
   0.24700000E+01           0.71346737E-01
   0.24800000E+01           0.69180600E-01
   0.24900000E+01           0.67121164E-01
   0.25000000E+01           0.64946208E-01
   0.25100000E+01           0.62916226E-01
   0.25200000E+01           0.61175132E-01
   0.25300000E+01           0.59218166E-01
   0.25400000E+01           0.57241799E-01
   0.25500000E+01           0.55547443E-01
   0.25600000E+01           0.53696473E-01
   0.25700000E+01           0.52038624E-01
   0.25800000E+01           0.50460141E-01
   0.25900000E+01           0.48766667E-01
   0.26000000E+01           0.47136684E-01
   0.26100000E+01           0.45495944E-01
   0.26200000E+01           0.44115697E-01
   0.26300000E+01           0.42649206E-01
   0.26400000E+01           0.41229453E-01
   0.26500000E+01           0.39755379E-01
   0.26600000E+01           0.38520106E-01
   0.26700000E+01           0.37103704E-01
   0.26800000E+01           0.36109877E-01
   0.26900000E+01           0.34716755E-01
   0.27000000E+01           0.33525397E-01
   0.27100000E+01           0.32397884E-01
   0.27200000E+01           0.31082363E-01
   0.27300000E+01           0.30055203E-01
   0.27400000E+01           0.28869665E-01
   0.27500000E+01           0.27943210E-01
   0.27600000E+01           0.26976190E-01
   0.27700000E+01           0.25902293E-01
   0.27800000E+01           0.24973192E-01
   0.27900000E+01           0.24156966E-01
   0.28000000E+01           0.23249206E-01
   0.28100000E+01           0.22290300E-01
   0.28200000E+01           0.21494709E-01
   0.28300000E+01           0.20671429E-01
   0.28400000E+01           0.20054321E-01
   0.28500000E+01           0.19139683E-01
   0.28600000E+01           0.18401940E-01
   0.28700000E+01           0.17705820E-01
   0.28800000E+01           0.17106349E-01
   0.28900000E+01           0.16407937E-01
   0.29000000E+01           0.15794180E-01
   0.29100000E+01           0.15193651E-01
   0.29200000E+01           0.14473016E-01
   0.29300000E+01           0.13903527E-01
   0.29400000E+01           0.13385891E-01
   0.29500000E+01           0.12841270E-01
   0.29600000E+01           0.12234039E-01
   0.29700000E+01           0.11774427E-01
   0.29800000E+01           0.11252734E-01
   0.29900000E+01           0.10778836E-01
   0.30000000E+01           0.10278483E-01
   0.30100000E+01           0.99705467E-02
   0.30200000E+01           0.95479718E-02
   0.30300000E+01           0.90664903E-02
   0.30400000E+01           0.86305115E-02
   0.30500000E+01           0.83255732E-02
   0.30600000E+01           0.79955908E-02
   0.30700000E+01           0.76823633E-02
   0.30800000E+01           0.72862434E-02
   0.30900000E+01           0.69758377E-02
   0.31000000E+01           0.66837743E-02
   0.31100000E+01           0.63021164E-02
   0.31200000E+01           0.60176367E-02
   0.31300000E+01           0.57626102E-02
   0.31400000E+01           0.55317460E-02
   0.31500000E+01           0.53130511E-02
   0.31600000E+01           0.50462081E-02
   0.31700000E+01           0.47514991E-02
   0.31800000E+01           0.45375661E-02
   0.31900000E+01           0.42982363E-02
   0.32000000E+01           0.40721340E-02
   0.32100000E+01           0.38716049E-02
   0.32200000E+01           0.37276896E-02
   0.32300000E+01           0.35481481E-02
   0.32400000E+01           0.33430335E-02
   0.32500000E+01           0.31257496E-02
   0.32600000E+01           0.30474427E-02
   0.32700000E+01           0.28804233E-02
   0.32800000E+01           0.27112875E-02
   0.32900000E+01           0.25804233E-02
   0.33000000E+01           0.24236332E-02
   0.33100000E+01           0.22835979E-02
   0.33200000E+01           0.21753086E-02
   0.33300000E+01           0.20557319E-02
   0.33400000E+01           0.19624339E-02
   0.33500000E+01           0.18895944E-02
   0.33600000E+01           0.16994709E-02
   0.33700000E+01           0.16597884E-02
   0.33800000E+01           0.15560847E-02
   0.33900000E+01           0.14719577E-02
   0.34000000E+01           0.13825397E-02
   0.34100000E+01           0.13365079E-02
   0.34200000E+01           0.12070547E-02
   0.34300000E+01           0.11599647E-02
   0.34400000E+01           0.10534392E-02
   0.34500000E+01           0.10116402E-02
   0.34600000E+01           0.93774250E-03
   0.34700000E+01           0.89576720E-03
   0.34800000E+01           0.83315697E-03
   0.34900000E+01           0.78342152E-03
   0.35000000E+01           0.73738977E-03
   0.35100000E+01           0.67178131E-03
   0.35200000E+01           0.62768959E-03
   0.35300000E+01           0.59823633E-03
   0.35400000E+01           0.54885362E-03
   0.35500000E+01           0.50917108E-03
   0.35600000E+01           0.47425044E-03
   0.35700000E+01           0.45132275E-03
   0.35800000E+01           0.41216931E-03
   0.35900000E+01           0.38236332E-03
   0.36000000E+01           0.34497354E-03
   0.36100000E+01           0.31287478E-03
   0.36200000E+01           0.29382716E-03
   0.36300000E+01           0.28271605E-03
   0.36400000E+01           0.26225750E-03
   0.36500000E+01           0.23844797E-03
   0.36600000E+01           0.21428571E-03
   0.36700000E+01           0.19347443E-03
   0.36800000E+01           0.16507937E-03
   0.36900000E+01           0.16578483E-03
   0.37000000E+01           0.14955908E-03
   0.37100000E+01           0.13950617E-03
   0.37200000E+01           0.12292769E-03
   0.37300000E+01           0.11234568E-03
   0.37400000E+01           0.10070547E-03
   0.37500000E+01           0.90123457E-04
   0.37600000E+01           0.77248677E-04
   0.37700000E+01           0.67019400E-04
   0.37800000E+01           0.64373898E-04
   0.37900000E+01           0.55379189E-04
   0.38000000E+01           0.50617284E-04
   0.38100000E+01           0.40211640E-04
   0.38200000E+01           0.38624339E-04
   0.38300000E+01           0.34567901E-04
   0.38400000E+01           0.26807760E-04
   0.38500000E+01           0.22927690E-04
   0.38600000E+01           0.20811287E-04
   0.38700000E+01           0.19047619E-04
   0.38800000E+01           0.13932981E-04
   0.38900000E+01           0.91710758E-05
   0.39000000E+01           0.11463845E-04
   0.39100000E+01           0.68783069E-05
   0.39200000E+01           0.68783069E-05
   0.39300000E+01           0.26455026E-05
   0.39400000E+01           0.26455026E-05
   0.39500000E+01           0.21164021E-05
   0.39600000E+01           0.88183422E-06
   0.39700000E+01           0.17636684E-06
   0.39800000E+01           0.52910053E-06
   0.39900000E+01           0.17636684E-06
   0.40000000E+01           0.00000000E+00
 #T=   451.0000
  -0.40000000E+01           0.00000000E+00
  -0.39900000E+01           0.00000000E+00
  -0.39800000E+01           0.00000000E+00
  -0.39700000E+01           0.00000000E+00
  -0.39600000E+01           0.00000000E+00
  -0.39500000E+01           0.00000000E+00
  -0.39400000E+01           0.00000000E+00
  -0.39300000E+01           0.00000000E+00
  -0.39200000E+01           0.00000000E+00
  -0.39100000E+01           0.00000000E+00
  -0.39000000E+01           0.00000000E+00
  -0.38900000E+01           0.00000000E+00
  -0.38800000E+01           0.00000000E+00
  -0.38700000E+01           0.00000000E+00
  -0.38600000E+01           0.00000000E+00
  -0.38500000E+01           0.00000000E+00
  -0.38400000E+01           0.00000000E+00
  -0.38300000E+01           0.00000000E+00
  -0.38200000E+01           0.00000000E+00
  -0.38100000E+01           0.00000000E+00
  -0.38000000E+01           0.00000000E+00
  -0.37900000E+01           0.00000000E+00
  -0.37800000E+01           0.00000000E+00
  -0.37700000E+01           0.00000000E+00
  -0.37600000E+01           0.00000000E+00
  -0.37500000E+01           0.00000000E+00
  -0.37400000E+01           0.00000000E+00
  -0.37300000E+01           0.00000000E+00
  -0.37200000E+01           0.00000000E+00
  -0.37100000E+01           0.00000000E+00
  -0.37000000E+01           0.00000000E+00
  -0.36900000E+01           0.00000000E+00
  -0.36800000E+01           0.00000000E+00
  -0.36700000E+01           0.00000000E+00
  -0.36600000E+01           0.00000000E+00
  -0.36500000E+01           0.00000000E+00
  -0.36400000E+01           0.00000000E+00
  -0.36300000E+01           0.00000000E+00
  -0.36200000E+01           0.00000000E+00
  -0.36100000E+01           0.00000000E+00
  -0.36000000E+01           0.00000000E+00
  -0.35900000E+01           0.00000000E+00
  -0.35800000E+01           0.00000000E+00
  -0.35700000E+01           0.00000000E+00
  -0.35600000E+01           0.00000000E+00
  -0.35500000E+01           0.00000000E+00
  -0.35400000E+01           0.00000000E+00
  -0.35300000E+01           0.00000000E+00
  -0.35200000E+01           0.00000000E+00
  -0.35100000E+01           0.00000000E+00
  -0.35000000E+01           0.00000000E+00
  -0.34900000E+01           0.00000000E+00
  -0.34800000E+01           0.00000000E+00
  -0.34700000E+01           0.00000000E+00
  -0.34600000E+01           0.00000000E+00
  -0.34500000E+01           0.00000000E+00
  -0.34400000E+01           0.00000000E+00
  -0.34300000E+01           0.00000000E+00
  -0.34200000E+01           0.00000000E+00
  -0.34100000E+01           0.00000000E+00
  -0.34000000E+01           0.00000000E+00
  -0.33900000E+01           0.00000000E+00
  -0.33800000E+01           0.00000000E+00
  -0.33700000E+01           0.00000000E+00
  -0.33600000E+01           0.00000000E+00
  -0.33500000E+01           0.00000000E+00
  -0.33400000E+01           0.00000000E+00
  -0.33300000E+01           0.00000000E+00
  -0.33200000E+01           0.00000000E+00
  -0.33100000E+01           0.00000000E+00
  -0.33000000E+01           0.00000000E+00
  -0.32900000E+01           0.00000000E+00
  -0.32800000E+01           0.00000000E+00
  -0.32700000E+01           0.00000000E+00
  -0.32600000E+01           0.00000000E+00
  -0.32500000E+01           0.00000000E+00
  -0.32400000E+01           0.00000000E+00
  -0.32300000E+01           0.00000000E+00
  -0.32200000E+01           0.00000000E+00
  -0.32100000E+01           0.00000000E+00
  -0.32000000E+01           0.00000000E+00
  -0.31900000E+01           0.00000000E+00
  -0.31800000E+01           0.00000000E+00
  -0.31700000E+01           0.00000000E+00
  -0.31600000E+01           0.00000000E+00
  -0.31500000E+01           0.00000000E+00
  -0.31400000E+01           0.00000000E+00
  -0.31300000E+01           0.00000000E+00
  -0.31200000E+01           0.00000000E+00
  -0.31100000E+01           0.00000000E+00
  -0.31000000E+01           0.00000000E+00
  -0.30900000E+01           0.00000000E+00
  -0.30800000E+01           0.00000000E+00
  -0.30700000E+01           0.00000000E+00
  -0.30600000E+01           0.00000000E+00
  -0.30500000E+01           0.00000000E+00
  -0.30400000E+01           0.00000000E+00
  -0.30300000E+01           0.00000000E+00
  -0.30200000E+01           0.00000000E+00
  -0.30100000E+01           0.00000000E+00
  -0.30000000E+01           0.00000000E+00
  -0.29900000E+01           0.00000000E+00
  -0.29800000E+01           0.00000000E+00
  -0.29700000E+01           0.00000000E+00
  -0.29600000E+01           0.00000000E+00
  -0.29500000E+01           0.00000000E+00
  -0.29400000E+01           0.00000000E+00
  -0.29300000E+01           0.00000000E+00
  -0.29200000E+01           0.00000000E+00
  -0.29100000E+01           0.00000000E+00
  -0.29000000E+01           0.00000000E+00
  -0.28900000E+01           0.00000000E+00
  -0.28800000E+01           0.00000000E+00
  -0.28700000E+01           0.00000000E+00
  -0.28600000E+01           0.00000000E+00
  -0.28500000E+01           0.00000000E+00
  -0.28400000E+01           0.00000000E+00
  -0.28300000E+01           0.00000000E+00
  -0.28200000E+01           0.00000000E+00
  -0.28100000E+01           0.00000000E+00
  -0.28000000E+01           0.00000000E+00
  -0.27900000E+01           0.00000000E+00
  -0.27800000E+01           0.00000000E+00
  -0.27700000E+01           0.00000000E+00
  -0.27600000E+01           0.00000000E+00
  -0.27500000E+01           0.00000000E+00
  -0.27400000E+01           0.00000000E+00
  -0.27300000E+01           0.00000000E+00
  -0.27200000E+01           0.00000000E+00
  -0.27100000E+01           0.00000000E+00
  -0.27000000E+01           0.00000000E+00
  -0.26900000E+01           0.00000000E+00
  -0.26800000E+01           0.00000000E+00
  -0.26700000E+01           0.00000000E+00
  -0.26600000E+01           0.00000000E+00
  -0.26500000E+01           0.00000000E+00
  -0.26400000E+01           0.00000000E+00
  -0.26300000E+01           0.00000000E+00
  -0.26200000E+01           0.00000000E+00
  -0.26100000E+01           0.00000000E+00
  -0.26000000E+01           0.00000000E+00
  -0.25900000E+01           0.00000000E+00
  -0.25800000E+01           0.00000000E+00
  -0.25700000E+01           0.00000000E+00
  -0.25600000E+01           0.00000000E+00
  -0.25500000E+01           0.00000000E+00
  -0.25400000E+01           0.00000000E+00
  -0.25300000E+01           0.00000000E+00
  -0.25200000E+01           0.00000000E+00
  -0.25100000E+01           0.00000000E+00
  -0.25000000E+01           0.00000000E+00
  -0.24900000E+01           0.00000000E+00
  -0.24800000E+01           0.00000000E+00
  -0.24700000E+01           0.00000000E+00
  -0.24600000E+01           0.00000000E+00
  -0.24500000E+01           0.00000000E+00
  -0.24400000E+01           0.00000000E+00
  -0.24300000E+01           0.00000000E+00
  -0.24200000E+01           0.00000000E+00
  -0.24100000E+01           0.00000000E+00
  -0.24000000E+01           0.00000000E+00
  -0.23900000E+01           0.00000000E+00
  -0.23800000E+01           0.00000000E+00
  -0.23700000E+01           0.00000000E+00
  -0.23600000E+01           0.00000000E+00
  -0.23500000E+01           0.00000000E+00
  -0.23400000E+01           0.00000000E+00
  -0.23300000E+01           0.00000000E+00
  -0.23200000E+01           0.00000000E+00
  -0.23100000E+01           0.00000000E+00
  -0.23000000E+01           0.00000000E+00
  -0.22900000E+01           0.00000000E+00
  -0.22800000E+01           0.00000000E+00
  -0.22700000E+01           0.00000000E+00
  -0.22600000E+01           0.00000000E+00
  -0.22500000E+01           0.00000000E+00
  -0.22400000E+01           0.00000000E+00
  -0.22300000E+01           0.00000000E+00
  -0.22200000E+01           0.00000000E+00
  -0.22100000E+01           0.00000000E+00
  -0.22000000E+01           0.00000000E+00
  -0.21900000E+01           0.00000000E+00
  -0.21800000E+01           0.00000000E+00
  -0.21700000E+01           0.00000000E+00
  -0.21600000E+01           0.00000000E+00
  -0.21500000E+01           0.00000000E+00
  -0.21400000E+01           0.00000000E+00
  -0.21300000E+01           0.00000000E+00
  -0.21200000E+01           0.00000000E+00
  -0.21100000E+01           0.00000000E+00
  -0.21000000E+01           0.00000000E+00
  -0.20900000E+01           0.00000000E+00
  -0.20800000E+01           0.00000000E+00
  -0.20700000E+01           0.00000000E+00
  -0.20600000E+01           0.00000000E+00
  -0.20500000E+01           0.00000000E+00
  -0.20400000E+01           0.00000000E+00
  -0.20300000E+01           0.00000000E+00
  -0.20200000E+01           0.00000000E+00
  -0.20100000E+01           0.00000000E+00
  -0.20000000E+01           0.00000000E+00
  -0.19900000E+01           0.00000000E+00
  -0.19800000E+01           0.00000000E+00
  -0.19700000E+01           0.00000000E+00
  -0.19600000E+01           0.00000000E+00
  -0.19500000E+01           0.00000000E+00
  -0.19400000E+01           0.00000000E+00
  -0.19300000E+01           0.00000000E+00
  -0.19200000E+01           0.00000000E+00
  -0.19100000E+01           0.00000000E+00
  -0.19000000E+01           0.00000000E+00
  -0.18900000E+01           0.00000000E+00
  -0.18800000E+01           0.00000000E+00
  -0.18700000E+01           0.00000000E+00
  -0.18600000E+01           0.00000000E+00
  -0.18500000E+01           0.00000000E+00
  -0.18400000E+01           0.00000000E+00
  -0.18300000E+01           0.00000000E+00
  -0.18200000E+01           0.00000000E+00
  -0.18100000E+01           0.00000000E+00
  -0.18000000E+01           0.00000000E+00
  -0.17900000E+01           0.00000000E+00
  -0.17800000E+01           0.00000000E+00
  -0.17700000E+01           0.00000000E+00
  -0.17600000E+01           0.00000000E+00
  -0.17500000E+01           0.00000000E+00
  -0.17400000E+01           0.00000000E+00
  -0.17300000E+01           0.00000000E+00
  -0.17200000E+01           0.00000000E+00
  -0.17100000E+01           0.00000000E+00
  -0.17000000E+01           0.00000000E+00
  -0.16900000E+01           0.00000000E+00
  -0.16800000E+01           0.00000000E+00
  -0.16700000E+01           0.00000000E+00
  -0.16600000E+01           0.00000000E+00
  -0.16500000E+01           0.00000000E+00
  -0.16400000E+01           0.00000000E+00
  -0.16300000E+01           0.00000000E+00
  -0.16200000E+01           0.00000000E+00
  -0.16100000E+01           0.00000000E+00
  -0.16000000E+01           0.00000000E+00
  -0.15900000E+01           0.00000000E+00
  -0.15800000E+01           0.00000000E+00
  -0.15700000E+01           0.00000000E+00
  -0.15600000E+01           0.00000000E+00
  -0.15500000E+01           0.00000000E+00
  -0.15400000E+01           0.00000000E+00
  -0.15300000E+01           0.00000000E+00
  -0.15200000E+01           0.00000000E+00
  -0.15100000E+01           0.00000000E+00
  -0.15000000E+01           0.00000000E+00
  -0.14900000E+01           0.00000000E+00
  -0.14800000E+01           0.00000000E+00
  -0.14700000E+01           0.00000000E+00
  -0.14600000E+01           0.00000000E+00
  -0.14500000E+01           0.00000000E+00
  -0.14400000E+01           0.00000000E+00
  -0.14300000E+01           0.00000000E+00
  -0.14200000E+01           0.00000000E+00
  -0.14100000E+01           0.00000000E+00
  -0.14000000E+01           0.00000000E+00
  -0.13900000E+01           0.00000000E+00
  -0.13800000E+01           0.00000000E+00
  -0.13700000E+01           0.00000000E+00
  -0.13600000E+01           0.00000000E+00
  -0.13500000E+01           0.00000000E+00
  -0.13400000E+01           0.00000000E+00
  -0.13300000E+01           0.00000000E+00
  -0.13200000E+01           0.00000000E+00
  -0.13100000E+01           0.00000000E+00
  -0.13000000E+01           0.00000000E+00
  -0.12900000E+01           0.00000000E+00
  -0.12800000E+01           0.00000000E+00
  -0.12700000E+01           0.00000000E+00
  -0.12600000E+01           0.00000000E+00
  -0.12500000E+01           0.00000000E+00
  -0.12400000E+01           0.00000000E+00
  -0.12300000E+01           0.00000000E+00
  -0.12200000E+01           0.00000000E+00
  -0.12100000E+01           0.00000000E+00
  -0.12000000E+01           0.00000000E+00
  -0.11900000E+01           0.00000000E+00
  -0.11800000E+01           0.00000000E+00
  -0.11700000E+01           0.00000000E+00
  -0.11600000E+01           0.00000000E+00
  -0.11500000E+01           0.00000000E+00
  -0.11400000E+01           0.00000000E+00
  -0.11300000E+01           0.00000000E+00
  -0.11200000E+01           0.00000000E+00
  -0.11100000E+01           0.00000000E+00
  -0.11000000E+01           0.00000000E+00
  -0.10900000E+01           0.00000000E+00
  -0.10800000E+01           0.00000000E+00
  -0.10700000E+01           0.00000000E+00
  -0.10600000E+01           0.00000000E+00
  -0.10500000E+01           0.00000000E+00
  -0.10400000E+01           0.00000000E+00
  -0.10300000E+01           0.00000000E+00
  -0.10200000E+01           0.00000000E+00
  -0.10100000E+01           0.00000000E+00
  -0.10000000E+01           0.00000000E+00
  -0.99000000E+00           0.00000000E+00
  -0.98000000E+00           0.00000000E+00
  -0.97000000E+00           0.00000000E+00
  -0.96000000E+00           0.00000000E+00
  -0.95000000E+00           0.00000000E+00
  -0.94000000E+00           0.00000000E+00
  -0.93000000E+00           0.00000000E+00
  -0.92000000E+00           0.00000000E+00
  -0.91000000E+00           0.00000000E+00
  -0.90000000E+00           0.00000000E+00
  -0.89000000E+00           0.00000000E+00
  -0.88000000E+00           0.00000000E+00
  -0.87000000E+00           0.00000000E+00
  -0.86000000E+00           0.00000000E+00
  -0.85000000E+00           0.00000000E+00
  -0.84000000E+00           0.00000000E+00
  -0.83000000E+00           0.00000000E+00
  -0.82000000E+00           0.00000000E+00
  -0.81000000E+00           0.00000000E+00
  -0.80000000E+00           0.00000000E+00
  -0.79000000E+00           0.00000000E+00
  -0.78000000E+00           0.00000000E+00
  -0.77000000E+00           0.00000000E+00
  -0.76000000E+00           0.00000000E+00
  -0.75000000E+00           0.00000000E+00
  -0.74000000E+00           0.00000000E+00
  -0.73000000E+00           0.00000000E+00
  -0.72000000E+00           0.00000000E+00
  -0.71000000E+00           0.00000000E+00
  -0.70000000E+00           0.00000000E+00
  -0.69000000E+00           0.00000000E+00
  -0.68000000E+00           0.00000000E+00
  -0.67000000E+00           0.00000000E+00
  -0.66000000E+00           0.00000000E+00
  -0.65000000E+00           0.00000000E+00
  -0.64000000E+00           0.00000000E+00
  -0.63000000E+00           0.00000000E+00
  -0.62000000E+00           0.00000000E+00
  -0.61000000E+00           0.00000000E+00
  -0.60000000E+00           0.00000000E+00
  -0.59000000E+00           0.00000000E+00
  -0.58000000E+00           0.00000000E+00
  -0.57000000E+00           0.00000000E+00
  -0.56000000E+00           0.00000000E+00
  -0.55000000E+00           0.00000000E+00
  -0.54000000E+00           0.00000000E+00
  -0.53000000E+00           0.00000000E+00
  -0.52000000E+00           0.00000000E+00
  -0.51000000E+00           0.00000000E+00
  -0.50000000E+00           0.00000000E+00
  -0.49000000E+00           0.00000000E+00
  -0.48000000E+00           0.00000000E+00
  -0.47000000E+00           0.00000000E+00
  -0.46000000E+00           0.00000000E+00
  -0.45000000E+00           0.00000000E+00
  -0.44000000E+00           0.00000000E+00
  -0.43000000E+00           0.00000000E+00
  -0.42000000E+00           0.00000000E+00
  -0.41000000E+00           0.00000000E+00
  -0.40000000E+00           0.00000000E+00
  -0.39000000E+00           0.00000000E+00
  -0.38000000E+00           0.00000000E+00
  -0.37000000E+00           0.00000000E+00
  -0.36000000E+00           0.00000000E+00
  -0.35000000E+00           0.00000000E+00
  -0.34000000E+00           0.00000000E+00
  -0.33000000E+00           0.00000000E+00
  -0.32000000E+00           0.00000000E+00
  -0.31000000E+00           0.00000000E+00
  -0.30000000E+00           0.00000000E+00
  -0.29000000E+00           0.00000000E+00
  -0.28000000E+00           0.00000000E+00
  -0.27000000E+00           0.00000000E+00
  -0.26000000E+00           0.00000000E+00
  -0.25000000E+00           0.00000000E+00
  -0.24000000E+00           0.00000000E+00
  -0.23000000E+00           0.00000000E+00
  -0.22000000E+00           0.00000000E+00
  -0.21000000E+00           0.00000000E+00
  -0.20000000E+00           0.00000000E+00
  -0.19000000E+00           0.00000000E+00
  -0.18000000E+00           0.00000000E+00
  -0.17000000E+00           0.00000000E+00
  -0.16000000E+00           0.00000000E+00
  -0.15000000E+00           0.00000000E+00
  -0.14000000E+00           0.00000000E+00
  -0.13000000E+00           0.00000000E+00
  -0.12000000E+00           0.00000000E+00
  -0.11000000E+00           0.00000000E+00
  -0.10000000E+00           0.00000000E+00
  -0.90000000E-01           0.00000000E+00
  -0.80000000E-01           0.00000000E+00
  -0.70000000E-01           0.00000000E+00
  -0.60000000E-01           0.00000000E+00
  -0.50000000E-01           0.00000000E+00
  -0.40000000E-01           0.00000000E+00
  -0.30000000E-01           0.00000000E+00
  -0.20000000E-01           0.00000000E+00
  -0.10000000E-01           0.00000000E+00
   0.00000000E+00           0.11816578E-04
   0.10000000E-01           0.33156966E-03
   0.20000000E-01           0.12850088E-02
   0.30000000E-01           0.28407407E-02
   0.40000000E-01           0.49068783E-02
   0.50000000E-01           0.75373898E-02
   0.60000000E-01           0.10721693E-01
   0.70000000E-01           0.14470194E-01
   0.80000000E-01           0.18546384E-01
   0.90000000E-01           0.23320282E-01
   0.10000000E+00           0.28288536E-01
   0.11000000E+00           0.33714815E-01
   0.12000000E+00           0.39764727E-01
   0.13000000E+00           0.46029630E-01
   0.14000000E+00           0.52553439E-01
   0.15000000E+00           0.59769665E-01
   0.16000000E+00           0.66841799E-01
   0.17000000E+00           0.74862257E-01
   0.18000000E+00           0.82542328E-01
   0.19000000E+00           0.90659788E-01
   0.20000000E+00           0.99277425E-01
   0.21000000E+00           0.10774074E+00
   0.22000000E+00           0.11695944E+00
   0.23000000E+00           0.12606173E+00
   0.24000000E+00           0.13541182E+00
   0.25000000E+00           0.14530265E+00
   0.26000000E+00           0.15489030E+00
   0.27000000E+00           0.16453880E+00
   0.28000000E+00           0.17465450E+00
   0.29000000E+00           0.18460811E+00
   0.30000000E+00           0.19505397E+00
   0.31000000E+00           0.20513598E+00
   0.32000000E+00           0.21587037E+00
   0.33000000E+00           0.22663069E+00
   0.34000000E+00           0.23721287E+00
   0.35000000E+00           0.24776155E+00
   0.36000000E+00           0.25898430E+00
   0.37000000E+00           0.26935026E+00
   0.38000000E+00           0.28018977E+00
   0.39000000E+00           0.29092487E+00
   0.40000000E+00           0.30181799E+00
   0.41000000E+00           0.31262840E+00
   0.42000000E+00           0.32390723E+00
   0.43000000E+00           0.33368466E+00
   0.44000000E+00           0.34484921E+00
   0.45000000E+00           0.35574515E+00
   0.46000000E+00           0.36613580E+00
   0.47000000E+00           0.37635855E+00
   0.48000000E+00           0.38664268E+00
   0.49000000E+00           0.39741199E+00
   0.50000000E+00           0.40729541E+00
   0.51000000E+00           0.41796208E+00
   0.52000000E+00           0.42803016E+00
   0.53000000E+00           0.43801764E+00
   0.54000000E+00           0.44789577E+00
   0.55000000E+00           0.45743845E+00
   0.56000000E+00           0.46697795E+00
   0.57000000E+00           0.47673404E+00
   0.58000000E+00           0.48641658E+00
   0.59000000E+00           0.49553792E+00
   0.60000000E+00           0.50456437E+00
   0.61000000E+00           0.51354180E+00
   0.62000000E+00           0.52198342E+00
   0.63000000E+00           0.53088307E+00
   0.64000000E+00           0.53908501E+00
   0.65000000E+00           0.54804215E+00
   0.66000000E+00           0.55595538E+00
   0.67000000E+00           0.56346631E+00
   0.68000000E+00           0.57098095E+00
   0.69000000E+00           0.57897425E+00
   0.70000000E+00           0.58640776E+00
   0.71000000E+00           0.59342416E+00
   0.72000000E+00           0.60034004E+00
   0.73000000E+00           0.60768166E+00
   0.74000000E+00           0.61319224E+00
   0.75000000E+00           0.62018536E+00
   0.76000000E+00           0.62645044E+00
   0.77000000E+00           0.63226684E+00
   0.78000000E+00           0.63760705E+00
   0.79000000E+00           0.64367390E+00
   0.80000000E+00           0.64857531E+00
   0.81000000E+00           0.65466490E+00
   0.82000000E+00           0.65930564E+00
   0.83000000E+00           0.66408430E+00
   0.84000000E+00           0.66783792E+00
   0.85000000E+00           0.67320952E+00
   0.86000000E+00           0.67660617E+00
   0.87000000E+00           0.68020635E+00
   0.88000000E+00           0.68444215E+00
   0.89000000E+00           0.68723898E+00
   0.90000000E+00           0.69054374E+00
   0.91000000E+00           0.69396667E+00
   0.92000000E+00           0.69677460E+00
   0.93000000E+00           0.69934392E+00
   0.94000000E+00           0.70149189E+00
   0.95000000E+00           0.70305185E+00
   0.96000000E+00           0.70557425E+00
   0.97000000E+00           0.70685520E+00
   0.98000000E+00           0.70830988E+00
   0.99000000E+00           0.70944832E+00
   0.10000000E+01           0.71056843E+00
   0.10100000E+01           0.71124674E+00
   0.10200000E+01           0.71185996E+00
   0.10300000E+01           0.71233245E+00
   0.10400000E+01           0.71255379E+00
   0.10500000E+01           0.71337231E+00
   0.10600000E+01           0.71360406E+00
   0.10700000E+01           0.71188642E+00
   0.10800000E+01           0.71156384E+00
   0.10900000E+01           0.71152257E+00
   0.11000000E+01           0.71029577E+00
   0.11100000E+01           0.70911517E+00
   0.11200000E+01           0.70737090E+00
   0.11300000E+01           0.70650847E+00
   0.11400000E+01           0.70413175E+00
   0.11500000E+01           0.70272840E+00
   0.11600000E+01           0.70086473E+00
   0.11700000E+01           0.69859136E+00
   0.11800000E+01           0.69573122E+00
   0.11900000E+01           0.69326825E+00
   0.12000000E+01           0.69086720E+00
   0.12100000E+01           0.68822222E+00
   0.12200000E+01           0.68600282E+00
   0.12300000E+01           0.68250159E+00
   0.12400000E+01           0.67935679E+00
   0.12500000E+01           0.67571975E+00
   0.12600000E+01           0.67205908E+00
   0.12700000E+01           0.66842769E+00
   0.12800000E+01           0.66454409E+00
   0.12900000E+01           0.66089048E+00
   0.13000000E+01           0.65640123E+00
   0.13100000E+01           0.65249118E+00
   0.13200000E+01           0.64824621E+00
   0.13300000E+01           0.64359594E+00
   0.13400000E+01           0.63935026E+00
   0.13500000E+01           0.63401235E+00
   0.13600000E+01           0.62925926E+00
   0.13700000E+01           0.62488713E+00
   0.13800000E+01           0.61972063E+00
   0.13900000E+01           0.61469647E+00
   0.14000000E+01           0.60953968E+00
   0.14100000E+01           0.60393827E+00
   0.14200000E+01           0.59862116E+00
   0.14300000E+01           0.59333086E+00
   0.14400000E+01           0.58806914E+00
   0.14500000E+01           0.58287478E+00
   0.14600000E+01           0.57671993E+00
   0.14700000E+01           0.57120688E+00
   0.14800000E+01           0.56498677E+00
   0.14900000E+01           0.56002099E+00
   0.15000000E+01           0.55344004E+00
   0.15100000E+01           0.54737831E+00
   0.15200000E+01           0.54151922E+00
   0.15300000E+01           0.53560300E+00
   0.15400000E+01           0.52977760E+00
   0.15500000E+01           0.52273439E+00
   0.15600000E+01           0.51711905E+00
   0.15700000E+01           0.51106067E+00
   0.15800000E+01           0.50498430E+00
   0.15900000E+01           0.49821481E+00
   0.16000000E+01           0.49219206E+00
   0.16100000E+01           0.48630547E+00
   0.16200000E+01           0.47944056E+00
   0.16300000E+01           0.47359206E+00
   0.16400000E+01           0.46662152E+00
   0.16500000E+01           0.46053862E+00
   0.16600000E+01           0.45435009E+00
   0.16700000E+01           0.44730476E+00
   0.16800000E+01           0.44125467E+00
   0.16900000E+01           0.43455079E+00
   0.17000000E+01           0.42824215E+00
   0.17100000E+01           0.42203369E+00
   0.17200000E+01           0.41566067E+00
   0.17300000E+01           0.40925873E+00
   0.17400000E+01           0.40254621E+00
   0.17500000E+01           0.39648748E+00
   0.17600000E+01           0.38999965E+00
   0.17700000E+01           0.38443474E+00
   0.17800000E+01           0.37783263E+00
   0.17900000E+01           0.37126825E+00
   0.18000000E+01           0.36478624E+00
   0.18100000E+01           0.35872698E+00
   0.18200000E+01           0.35245573E+00
   0.18300000E+01           0.34607196E+00
   0.18400000E+01           0.33993880E+00
   0.18500000E+01           0.33365309E+00
   0.18600000E+01           0.32794568E+00
   0.18700000E+01           0.32152698E+00
   0.18800000E+01           0.31551658E+00
   0.18900000E+01           0.30979418E+00
   0.19000000E+01           0.30338836E+00
   0.19100000E+01           0.29775855E+00
   0.19200000E+01           0.29200300E+00
   0.19300000E+01           0.28601446E+00
   0.19400000E+01           0.27993968E+00
   0.19500000E+01           0.27478801E+00
   0.19600000E+01           0.26917884E+00
   0.19700000E+01           0.26334533E+00
   0.19800000E+01           0.25829577E+00
   0.19900000E+01           0.25234497E+00
   0.20000000E+01           0.24705661E+00
   0.20100000E+01           0.24180370E+00
   0.20200000E+01           0.23621675E+00
   0.20300000E+01           0.23071129E+00
   0.20400000E+01           0.22590653E+00
   0.20500000E+01           0.22066720E+00
   0.20600000E+01           0.21549824E+00
   0.20700000E+01           0.21078977E+00
   0.20800000E+01           0.20555397E+00
   0.20900000E+01           0.20110741E+00
   0.21000000E+01           0.19626490E+00
   0.21100000E+01           0.19183704E+00
   0.21200000E+01           0.18722945E+00
   0.21300000E+01           0.18253792E+00
   0.21400000E+01           0.17819418E+00
   0.21500000E+01           0.17394198E+00
   0.21600000E+01           0.16953951E+00
   0.21700000E+01           0.16543986E+00
   0.21800000E+01           0.16134286E+00
   0.21900000E+01           0.15715503E+00
   0.22000000E+01           0.15359665E+00
   0.22100000E+01           0.14928466E+00
   0.22200000E+01           0.14588871E+00
   0.22300000E+01           0.14175220E+00
   0.22400000E+01           0.13829242E+00
   0.22500000E+01           0.13450670E+00
   0.22600000E+01           0.13090123E+00
   0.22700000E+01           0.12787549E+00
   0.22800000E+01           0.12407019E+00
   0.22900000E+01           0.12088395E+00
   0.23000000E+01           0.11777619E+00
   0.23100000E+01           0.11467778E+00
   0.23200000E+01           0.11134868E+00
   0.23300000E+01           0.10822751E+00
   0.23400000E+01           0.10548924E+00
   0.23500000E+01           0.10245168E+00
   0.23600000E+01           0.99575838E-01
   0.23700000E+01           0.96899471E-01
   0.23800000E+01           0.94030335E-01
   0.23900000E+01           0.91398589E-01
   0.24000000E+01           0.88934039E-01
   0.24100000E+01           0.86438272E-01
   0.24200000E+01           0.83506173E-01
   0.24300000E+01           0.81371429E-01
   0.24400000E+01           0.78763139E-01
   0.24500000E+01           0.76717284E-01
   0.24600000E+01           0.74202646E-01
   0.24700000E+01           0.72176720E-01
   0.24800000E+01           0.69835979E-01
   0.24900000E+01           0.67950970E-01
   0.25000000E+01           0.65663492E-01
   0.25100000E+01           0.63754850E-01
   0.25200000E+01           0.61929277E-01
   0.25300000E+01           0.59890653E-01
   0.25400000E+01           0.57718166E-01
   0.25500000E+01           0.56212522E-01
   0.25600000E+01           0.54185009E-01
   0.25700000E+01           0.52533686E-01
   0.25800000E+01           0.50963492E-01
   0.25900000E+01           0.49438095E-01
   0.26000000E+01           0.47496473E-01
   0.26100000E+01           0.45983422E-01
   0.26200000E+01           0.44561023E-01
   0.26300000E+01           0.43153792E-01
   0.26400000E+01           0.41731570E-01
   0.26500000E+01           0.40295944E-01
   0.26600000E+01           0.38767196E-01
   0.26700000E+01           0.37585009E-01
   0.26800000E+01           0.36349383E-01
   0.26900000E+01           0.35029806E-01
   0.27000000E+01           0.33962434E-01
   0.27100000E+01           0.32691005E-01
   0.27200000E+01           0.31657848E-01
   0.27300000E+01           0.30546561E-01
   0.27400000E+01           0.29466843E-01
   0.27500000E+01           0.28465608E-01
   0.27600000E+01           0.27329277E-01
   0.27700000E+01           0.26275132E-01
   0.27800000E+01           0.25384127E-01
   0.27900000E+01           0.24410053E-01
   0.28000000E+01           0.23595944E-01
   0.28100000E+01           0.22797531E-01
   0.28200000E+01           0.21792063E-01
   0.28300000E+01           0.21016578E-01
   0.28400000E+01           0.20189771E-01
   0.28500000E+01           0.19506526E-01
   0.28600000E+01           0.18677425E-01
   0.28700000E+01           0.17970547E-01
   0.28800000E+01           0.17288889E-01
   0.28900000E+01           0.16629101E-01
   0.29000000E+01           0.15941975E-01
   0.29100000E+01           0.15362963E-01
   0.29200000E+01           0.14739506E-01
   0.29300000E+01           0.14092593E-01
   0.29400000E+01           0.13584303E-01
   0.29500000E+01           0.13021693E-01
   0.29600000E+01           0.12515344E-01
   0.29700000E+01           0.11873898E-01
   0.29800000E+01           0.11497002E-01
   0.29900000E+01           0.10904409E-01
   0.30000000E+01           0.10608466E-01
   0.30100000E+01           0.10092416E-01
   0.30200000E+01           0.95506173E-02
   0.30300000E+01           0.93234568E-02
   0.30400000E+01           0.88347443E-02
   0.30500000E+01           0.85298060E-02
   0.30600000E+01           0.80878307E-02
   0.30700000E+01           0.77239859E-02
   0.30800000E+01           0.73982363E-02
   0.30900000E+01           0.70841270E-02
   0.31000000E+01           0.67426808E-02
   0.31100000E+01           0.65081129E-02
   0.31200000E+01           0.61793651E-02
   0.31300000E+01           0.58848325E-02
   0.31400000E+01           0.55779541E-02
   0.31500000E+01           0.53276896E-02
   0.31600000E+01           0.50691358E-02
   0.31700000E+01           0.48425044E-02
   0.31800000E+01           0.46336861E-02
   0.31900000E+01           0.43317460E-02
   0.32000000E+01           0.42280423E-02
   0.32100000E+01           0.40121693E-02
   0.32200000E+01           0.37834215E-02
   0.32300000E+01           0.36089947E-02
   0.32400000E+01           0.34142857E-02
   0.32500000E+01           0.32626102E-02
   0.32600000E+01           0.30442681E-02
   0.32700000E+01           0.29516755E-02
   0.32800000E+01           0.27525573E-02
   0.32900000E+01           0.26074074E-02
   0.33000000E+01           0.25015873E-02
   0.33100000E+01           0.23509700E-02
   0.33200000E+01           0.22100529E-02
   0.33300000E+01           0.20938272E-02
   0.33400000E+01           0.19892416E-02
   0.33500000E+01           0.19067019E-02
   0.33600000E+01           0.17675485E-02
   0.33700000E+01           0.16795414E-02
   0.33800000E+01           0.15781305E-02
   0.33900000E+01           0.14885362E-02
   0.34000000E+01           0.13910053E-02
   0.34100000E+01           0.13257496E-02
   0.34200000E+01           0.12319224E-02
   0.34300000E+01           0.11622575E-02
   0.34400000E+01           0.11167549E-02
   0.34500000E+01           0.10386243E-02
   0.34600000E+01           0.97213404E-03
   0.34700000E+01           0.90758377E-03
   0.34800000E+01           0.87037037E-03
   0.34900000E+01           0.79312169E-03
   0.35000000E+01           0.75855379E-03
   0.35100000E+01           0.70388007E-03
   0.35200000E+01           0.65608466E-03
   0.35300000E+01           0.60476190E-03
   0.35400000E+01           0.57037037E-03
   0.35500000E+01           0.52134039E-03
   0.35600000E+01           0.48553792E-03
   0.35700000E+01           0.45943563E-03
   0.35800000E+01           0.42839506E-03
   0.35900000E+01           0.38871252E-03
   0.36000000E+01           0.36419753E-03
   0.36100000E+01           0.33227513E-03
   0.36200000E+01           0.29382716E-03
   0.36300000E+01           0.28253968E-03
   0.36400000E+01           0.26596120E-03
   0.36500000E+01           0.23456790E-03
   0.36600000E+01           0.21446208E-03
   0.36700000E+01           0.19876543E-03
   0.36800000E+01           0.17689594E-03
   0.36900000E+01           0.16331570E-03
   0.37000000E+01           0.14603175E-03
   0.37100000E+01           0.13615520E-03
   0.37200000E+01           0.12328042E-03
   0.37300000E+01           0.11940035E-03
   0.37400000E+01           0.10035273E-03
   0.37500000E+01           0.90476190E-04
   0.37600000E+01           0.72663139E-04
   0.37700000E+01           0.74426808E-04
   0.37800000E+01           0.64550265E-04
   0.37900000E+01           0.53791887E-04
   0.38000000E+01           0.51146384E-04
   0.38100000E+01           0.44091711E-04
   0.38200000E+01           0.36684303E-04
   0.38300000E+01           0.34215168E-04
   0.38400000E+01           0.29453263E-04
   0.38500000E+01           0.25749559E-04
   0.38600000E+01           0.14109347E-04
   0.38700000E+01           0.17813051E-04
   0.38800000E+01           0.13932981E-04
   0.38900000E+01           0.11640212E-04
   0.39000000E+01           0.98765432E-05
   0.39100000E+01           0.72310406E-05
   0.39200000E+01           0.52910053E-05
   0.39300000E+01           0.38800705E-05
   0.39400000E+01           0.37037037E-05
   0.39500000E+01           0.15873016E-05
   0.39600000E+01           0.12345679E-05
   0.39700000E+01           0.70546737E-06
   0.39800000E+01           0.52910053E-06
   0.39900000E+01           0.17636684E-06
   0.40000000E+01           0.00000000E+00
 #T=   452.0000
  -0.40000000E+01           0.00000000E+00
  -0.39900000E+01           0.00000000E+00
  -0.39800000E+01           0.00000000E+00
  -0.39700000E+01           0.00000000E+00
  -0.39600000E+01           0.00000000E+00
  -0.39500000E+01           0.00000000E+00
  -0.39400000E+01           0.00000000E+00
  -0.39300000E+01           0.00000000E+00
  -0.39200000E+01           0.00000000E+00
  -0.39100000E+01           0.00000000E+00
  -0.39000000E+01           0.00000000E+00
  -0.38900000E+01           0.00000000E+00
  -0.38800000E+01           0.00000000E+00
  -0.38700000E+01           0.00000000E+00
  -0.38600000E+01           0.00000000E+00
  -0.38500000E+01           0.00000000E+00
  -0.38400000E+01           0.00000000E+00
  -0.38300000E+01           0.00000000E+00
  -0.38200000E+01           0.00000000E+00
  -0.38100000E+01           0.00000000E+00
  -0.38000000E+01           0.00000000E+00
  -0.37900000E+01           0.00000000E+00
  -0.37800000E+01           0.00000000E+00
  -0.37700000E+01           0.00000000E+00
  -0.37600000E+01           0.00000000E+00
  -0.37500000E+01           0.00000000E+00
  -0.37400000E+01           0.00000000E+00
  -0.37300000E+01           0.00000000E+00
  -0.37200000E+01           0.00000000E+00
  -0.37100000E+01           0.00000000E+00
  -0.37000000E+01           0.00000000E+00
  -0.36900000E+01           0.00000000E+00
  -0.36800000E+01           0.00000000E+00
  -0.36700000E+01           0.00000000E+00
  -0.36600000E+01           0.00000000E+00
  -0.36500000E+01           0.00000000E+00
  -0.36400000E+01           0.00000000E+00
  -0.36300000E+01           0.00000000E+00
  -0.36200000E+01           0.00000000E+00
  -0.36100000E+01           0.00000000E+00
  -0.36000000E+01           0.00000000E+00
  -0.35900000E+01           0.00000000E+00
  -0.35800000E+01           0.00000000E+00
  -0.35700000E+01           0.00000000E+00
  -0.35600000E+01           0.00000000E+00
  -0.35500000E+01           0.00000000E+00
  -0.35400000E+01           0.00000000E+00
  -0.35300000E+01           0.00000000E+00
  -0.35200000E+01           0.00000000E+00
  -0.35100000E+01           0.00000000E+00
  -0.35000000E+01           0.00000000E+00
  -0.34900000E+01           0.00000000E+00
  -0.34800000E+01           0.00000000E+00
  -0.34700000E+01           0.00000000E+00
  -0.34600000E+01           0.00000000E+00
  -0.34500000E+01           0.00000000E+00
  -0.34400000E+01           0.00000000E+00
  -0.34300000E+01           0.00000000E+00
  -0.34200000E+01           0.00000000E+00
  -0.34100000E+01           0.00000000E+00
  -0.34000000E+01           0.00000000E+00
  -0.33900000E+01           0.00000000E+00
  -0.33800000E+01           0.00000000E+00
  -0.33700000E+01           0.00000000E+00
  -0.33600000E+01           0.00000000E+00
  -0.33500000E+01           0.00000000E+00
  -0.33400000E+01           0.00000000E+00
  -0.33300000E+01           0.00000000E+00
  -0.33200000E+01           0.00000000E+00
  -0.33100000E+01           0.00000000E+00
  -0.33000000E+01           0.00000000E+00
  -0.32900000E+01           0.00000000E+00
  -0.32800000E+01           0.00000000E+00
  -0.32700000E+01           0.00000000E+00
  -0.32600000E+01           0.00000000E+00
  -0.32500000E+01           0.00000000E+00
  -0.32400000E+01           0.00000000E+00
  -0.32300000E+01           0.00000000E+00
  -0.32200000E+01           0.00000000E+00
  -0.32100000E+01           0.00000000E+00
  -0.32000000E+01           0.00000000E+00
  -0.31900000E+01           0.00000000E+00
  -0.31800000E+01           0.00000000E+00
  -0.31700000E+01           0.00000000E+00
  -0.31600000E+01           0.00000000E+00
  -0.31500000E+01           0.00000000E+00
  -0.31400000E+01           0.00000000E+00
  -0.31300000E+01           0.00000000E+00
  -0.31200000E+01           0.00000000E+00
  -0.31100000E+01           0.00000000E+00
  -0.31000000E+01           0.00000000E+00
  -0.30900000E+01           0.00000000E+00
  -0.30800000E+01           0.00000000E+00
  -0.30700000E+01           0.00000000E+00
  -0.30600000E+01           0.00000000E+00
  -0.30500000E+01           0.00000000E+00
  -0.30400000E+01           0.00000000E+00
  -0.30300000E+01           0.00000000E+00
  -0.30200000E+01           0.00000000E+00
  -0.30100000E+01           0.00000000E+00
  -0.30000000E+01           0.00000000E+00
  -0.29900000E+01           0.00000000E+00
  -0.29800000E+01           0.00000000E+00
  -0.29700000E+01           0.00000000E+00
  -0.29600000E+01           0.00000000E+00
  -0.29500000E+01           0.00000000E+00
  -0.29400000E+01           0.00000000E+00
  -0.29300000E+01           0.00000000E+00
  -0.29200000E+01           0.00000000E+00
  -0.29100000E+01           0.00000000E+00
  -0.29000000E+01           0.00000000E+00
  -0.28900000E+01           0.00000000E+00
  -0.28800000E+01           0.00000000E+00
  -0.28700000E+01           0.00000000E+00
  -0.28600000E+01           0.00000000E+00
  -0.28500000E+01           0.00000000E+00
  -0.28400000E+01           0.00000000E+00
  -0.28300000E+01           0.00000000E+00
  -0.28200000E+01           0.00000000E+00
  -0.28100000E+01           0.00000000E+00
  -0.28000000E+01           0.00000000E+00
  -0.27900000E+01           0.00000000E+00
  -0.27800000E+01           0.00000000E+00
  -0.27700000E+01           0.00000000E+00
  -0.27600000E+01           0.00000000E+00
  -0.27500000E+01           0.00000000E+00
  -0.27400000E+01           0.00000000E+00
  -0.27300000E+01           0.00000000E+00
  -0.27200000E+01           0.00000000E+00
  -0.27100000E+01           0.00000000E+00
  -0.27000000E+01           0.00000000E+00
  -0.26900000E+01           0.00000000E+00
  -0.26800000E+01           0.00000000E+00
  -0.26700000E+01           0.00000000E+00
  -0.26600000E+01           0.00000000E+00
  -0.26500000E+01           0.00000000E+00
  -0.26400000E+01           0.00000000E+00
  -0.26300000E+01           0.00000000E+00
  -0.26200000E+01           0.00000000E+00
  -0.26100000E+01           0.00000000E+00
  -0.26000000E+01           0.00000000E+00
  -0.25900000E+01           0.00000000E+00
  -0.25800000E+01           0.00000000E+00
  -0.25700000E+01           0.00000000E+00
  -0.25600000E+01           0.00000000E+00
  -0.25500000E+01           0.00000000E+00
  -0.25400000E+01           0.00000000E+00
  -0.25300000E+01           0.00000000E+00
  -0.25200000E+01           0.00000000E+00
  -0.25100000E+01           0.00000000E+00
  -0.25000000E+01           0.00000000E+00
  -0.24900000E+01           0.00000000E+00
  -0.24800000E+01           0.00000000E+00
  -0.24700000E+01           0.00000000E+00
  -0.24600000E+01           0.00000000E+00
  -0.24500000E+01           0.00000000E+00
  -0.24400000E+01           0.00000000E+00
  -0.24300000E+01           0.00000000E+00
  -0.24200000E+01           0.00000000E+00
  -0.24100000E+01           0.00000000E+00
  -0.24000000E+01           0.00000000E+00
  -0.23900000E+01           0.00000000E+00
  -0.23800000E+01           0.00000000E+00
  -0.23700000E+01           0.00000000E+00
  -0.23600000E+01           0.00000000E+00
  -0.23500000E+01           0.00000000E+00
  -0.23400000E+01           0.00000000E+00
  -0.23300000E+01           0.00000000E+00
  -0.23200000E+01           0.00000000E+00
  -0.23100000E+01           0.00000000E+00
  -0.23000000E+01           0.00000000E+00
  -0.22900000E+01           0.00000000E+00
  -0.22800000E+01           0.00000000E+00
  -0.22700000E+01           0.00000000E+00
  -0.22600000E+01           0.00000000E+00
  -0.22500000E+01           0.00000000E+00
  -0.22400000E+01           0.00000000E+00
  -0.22300000E+01           0.00000000E+00
  -0.22200000E+01           0.00000000E+00
  -0.22100000E+01           0.00000000E+00
  -0.22000000E+01           0.00000000E+00
  -0.21900000E+01           0.00000000E+00
  -0.21800000E+01           0.00000000E+00
  -0.21700000E+01           0.00000000E+00
  -0.21600000E+01           0.00000000E+00
  -0.21500000E+01           0.00000000E+00
  -0.21400000E+01           0.00000000E+00
  -0.21300000E+01           0.00000000E+00
  -0.21200000E+01           0.00000000E+00
  -0.21100000E+01           0.00000000E+00
  -0.21000000E+01           0.00000000E+00
  -0.20900000E+01           0.00000000E+00
  -0.20800000E+01           0.00000000E+00
  -0.20700000E+01           0.00000000E+00
  -0.20600000E+01           0.00000000E+00
  -0.20500000E+01           0.00000000E+00
  -0.20400000E+01           0.00000000E+00
  -0.20300000E+01           0.00000000E+00
  -0.20200000E+01           0.00000000E+00
  -0.20100000E+01           0.00000000E+00
  -0.20000000E+01           0.00000000E+00
  -0.19900000E+01           0.00000000E+00
  -0.19800000E+01           0.00000000E+00
  -0.19700000E+01           0.00000000E+00
  -0.19600000E+01           0.00000000E+00
  -0.19500000E+01           0.00000000E+00
  -0.19400000E+01           0.00000000E+00
  -0.19300000E+01           0.00000000E+00
  -0.19200000E+01           0.00000000E+00
  -0.19100000E+01           0.00000000E+00
  -0.19000000E+01           0.00000000E+00
  -0.18900000E+01           0.00000000E+00
  -0.18800000E+01           0.00000000E+00
  -0.18700000E+01           0.00000000E+00
  -0.18600000E+01           0.00000000E+00
  -0.18500000E+01           0.00000000E+00
  -0.18400000E+01           0.00000000E+00
  -0.18300000E+01           0.00000000E+00
  -0.18200000E+01           0.00000000E+00
  -0.18100000E+01           0.00000000E+00
  -0.18000000E+01           0.00000000E+00
  -0.17900000E+01           0.00000000E+00
  -0.17800000E+01           0.00000000E+00
  -0.17700000E+01           0.00000000E+00
  -0.17600000E+01           0.00000000E+00
  -0.17500000E+01           0.00000000E+00
  -0.17400000E+01           0.00000000E+00
  -0.17300000E+01           0.00000000E+00
  -0.17200000E+01           0.00000000E+00
  -0.17100000E+01           0.00000000E+00
  -0.17000000E+01           0.00000000E+00
  -0.16900000E+01           0.00000000E+00
  -0.16800000E+01           0.00000000E+00
  -0.16700000E+01           0.00000000E+00
  -0.16600000E+01           0.00000000E+00
  -0.16500000E+01           0.00000000E+00
  -0.16400000E+01           0.00000000E+00
  -0.16300000E+01           0.00000000E+00
  -0.16200000E+01           0.00000000E+00
  -0.16100000E+01           0.00000000E+00
  -0.16000000E+01           0.00000000E+00
  -0.15900000E+01           0.00000000E+00
  -0.15800000E+01           0.00000000E+00
  -0.15700000E+01           0.00000000E+00
  -0.15600000E+01           0.00000000E+00
  -0.15500000E+01           0.00000000E+00
  -0.15400000E+01           0.00000000E+00
  -0.15300000E+01           0.00000000E+00
  -0.15200000E+01           0.00000000E+00
  -0.15100000E+01           0.00000000E+00
  -0.15000000E+01           0.00000000E+00
  -0.14900000E+01           0.00000000E+00
[...]
  -0.64000000E+00           0.00000000E+00
  -0.63000000E+00           0.00000000E+00
  -0.62000000E+00           0.00000000E+00
  -0.61000000E+00           0.00000000E+00
  -0.60000000E+00           0.00000000E+00
  -0.59000000E+00           0.00000000E+00
  -0.58000000E+00           0.00000000E+00
  -0.57000000E+00           0.00000000E+00
  -0.56000000E+00           0.00000000E+00
  -0.55000000E+00           0.00000000E+00
  -0.54000000E+00           0.00000000E+00
  -0.53000000E+00           0.00000000E+00
  -0.52000000E+00           0.00000000E+00
  -0.51000000E+00           0.00000000E+00
  -0.50000000E+00           0.00000000E+00
  -0.49000000E+00           0.00000000E+00
  -0.48000000E+00           0.00000000E+00
  -0.47000000E+00           0.00000000E+00
  -0.46000000E+00           0.00000000E+00
  -0.45000000E+00           0.00000000E+00
  -0.44000000E+00           0.00000000E+00
  -0.43000000E+00           0.00000000E+00
  -0.42000000E+00           0.00000000E+00
  -0.41000000E+00           0.00000000E+00
  -0.40000000E+00           0.00000000E+00
  -0.39000000E+00           0.00000000E+00
  -0.38000000E+00           0.00000000E+00
  -0.37000000E+00           0.00000000E+00
  -0.36000000E+00           0.00000000E+00
  -0.35000000E+00           0.00000000E+00
  -0.34000000E+00           0.00000000E+00
  -0.33000000E+00           0.00000000E+00
  -0.32000000E+00           0.00000000E+00
  -0.31000000E+00           0.00000000E+00
  -0.30000000E+00           0.00000000E+00
  -0.29000000E+00           0.00000000E+00
  -0.28000000E+00           0.00000000E+00
  -0.27000000E+00           0.00000000E+00
  -0.26000000E+00           0.00000000E+00
  -0.25000000E+00           0.00000000E+00
  -0.24000000E+00           0.00000000E+00
  -0.23000000E+00           0.00000000E+00
  -0.22000000E+00           0.00000000E+00
  -0.21000000E+00           0.00000000E+00
  -0.20000000E+00           0.00000000E+00
  -0.19000000E+00           0.00000000E+00
  -0.18000000E+00           0.00000000E+00
  -0.17000000E+00           0.00000000E+00
  -0.16000000E+00           0.00000000E+00
  -0.15000000E+00           0.00000000E+00
  -0.14000000E+00           0.00000000E+00
  -0.13000000E+00           0.00000000E+00
  -0.12000000E+00           0.00000000E+00
  -0.11000000E+00           0.00000000E+00
  -0.10000000E+00           0.00000000E+00
  -0.90000000E-01           0.00000000E+00
  -0.80000000E-01           0.00000000E+00
  -0.70000000E-01           0.00000000E+00
  -0.60000000E-01           0.00000000E+00
  -0.50000000E-01           0.00000000E+00
  -0.40000000E-01           0.00000000E+00
  -0.30000000E-01           0.00000000E+00
  -0.20000000E-01           0.00000000E+00
  -0.10000000E-01           0.00000000E+00
   0.00000000E+00           0.61728395E-05
   0.10000000E-01           0.16860670E-03
   0.20000000E-01           0.62398589E-03
   0.30000000E-01           0.13818342E-02
   0.40000000E-01           0.24317460E-02
   0.50000000E-01           0.37504409E-02
   0.60000000E-01           0.53172840E-02
   0.70000000E-01           0.72262787E-02
   0.80000000E-01           0.94081129E-02
   0.90000000E-01           0.11777249E-01
   0.10000000E+00           0.14466314E-01
   0.11000000E+00           0.17385009E-01
   0.12000000E+00           0.20559436E-01
   0.13000000E+00           0.23933157E-01
   0.14000000E+00           0.27629101E-01
   0.15000000E+00           0.31401587E-01
   0.16000000E+00           0.35518695E-01
   0.17000000E+00           0.39751146E-01
   0.18000000E+00           0.44028219E-01
   0.19000000E+00           0.48656261E-01
   0.20000000E+00           0.53525220E-01
   0.21000000E+00           0.58789242E-01
   0.22000000E+00           0.63520459E-01
   0.23000000E+00           0.69086949E-01
   0.24000000E+00           0.74757143E-01
   0.25000000E+00           0.80239153E-01
   0.26000000E+00           0.86029101E-01
   0.27000000E+00           0.91998589E-01
   0.28000000E+00           0.98040388E-01
   0.29000000E+00           0.10456914E+00
   0.30000000E+00           0.11060847E+00
   0.31000000E+00           0.11727425E+00
   0.32000000E+00           0.12386966E+00
   0.33000000E+00           0.13073457E+00
   0.34000000E+00           0.13719206E+00
   0.35000000E+00           0.14403210E+00
   0.36000000E+00           0.15142416E+00
   0.37000000E+00           0.15811658E+00
   0.38000000E+00           0.16550071E+00
   0.39000000E+00           0.17272998E+00
   0.40000000E+00           0.18007037E+00
   0.41000000E+00           0.18754568E+00
   0.42000000E+00           0.19466014E+00
   0.43000000E+00           0.20215626E+00
   0.44000000E+00           0.21022011E+00
   0.45000000E+00           0.21737743E+00
   0.46000000E+00           0.22535891E+00
   0.47000000E+00           0.23300723E+00
   0.48000000E+00           0.24011887E+00
   0.49000000E+00           0.24800794E+00
   0.50000000E+00           0.25595979E+00
   0.51000000E+00           0.26350864E+00
   0.52000000E+00           0.27140935E+00
   0.53000000E+00           0.27954356E+00
   0.54000000E+00           0.28720811E+00
   0.55000000E+00           0.29464056E+00
   0.56000000E+00           0.30263933E+00
   0.57000000E+00           0.31000212E+00
   0.58000000E+00           0.31825132E+00
   0.59000000E+00           0.32547125E+00
   0.60000000E+00           0.33318183E+00
   0.61000000E+00           0.34128977E+00
   0.62000000E+00           0.34836949E+00
   0.63000000E+00           0.35613563E+00
   0.64000000E+00           0.36373210E+00
   0.65000000E+00           0.37097795E+00
   0.66000000E+00           0.37811446E+00
   0.67000000E+00           0.38632610E+00
   0.68000000E+00           0.39372663E+00
   0.69000000E+00           0.40057249E+00
   0.70000000E+00           0.40742840E+00
   0.71000000E+00           0.41452169E+00
   0.72000000E+00           0.42193616E+00
   0.73000000E+00           0.42854938E+00
   0.74000000E+00           0.43551852E+00
   0.75000000E+00           0.44251887E+00
   0.76000000E+00           0.44951693E+00
   0.77000000E+00           0.45584303E+00
   0.78000000E+00           0.46296755E+00
   0.79000000E+00           0.46927654E+00
   0.80000000E+00           0.47579877E+00
   0.81000000E+00           0.48172787E+00
   0.82000000E+00           0.48750617E+00
   0.83000000E+00           0.49382734E+00
   0.84000000E+00           0.50029347E+00
   0.85000000E+00           0.50602275E+00
   0.86000000E+00           0.51166755E+00
   0.87000000E+00           0.51723016E+00
   0.88000000E+00           0.52266473E+00
   0.89000000E+00           0.52797831E+00
   0.90000000E+00           0.53374480E+00
   0.91000000E+00           0.53823016E+00
   0.92000000E+00           0.54378289E+00
   0.93000000E+00           0.54877972E+00
   0.94000000E+00           0.55336384E+00
   0.95000000E+00           0.55838060E+00
   0.96000000E+00           0.56307831E+00
   0.97000000E+00           0.56729471E+00
   0.98000000E+00           0.57171993E+00
   0.99000000E+00           0.57578589E+00
   0.10000000E+01           0.58028042E+00
   0.10100000E+01           0.58365873E+00
   0.10200000E+01           0.58791111E+00
   0.10300000E+01           0.59113404E+00
   0.10400000E+01           0.59501993E+00
   0.10500000E+01           0.59812451E+00
   0.10600000E+01           0.60127407E+00
   0.10700000E+01           0.60506049E+00
   0.10800000E+01           0.60724533E+00
   0.10900000E+01           0.60943386E+00
   0.11000000E+01           0.61279524E+00
   0.11100000E+01           0.61566684E+00
   0.11200000E+01           0.61831623E+00
   0.11300000E+01           0.62016190E+00
   0.11400000E+01           0.62240159E+00
   0.11500000E+01           0.62435344E+00
   0.11600000E+01           0.62572222E+00
   0.11700000E+01           0.62828219E+00
   0.11800000E+01           0.62871534E+00
   0.11900000E+01           0.63123474E+00
   0.12000000E+01           0.63228307E+00
   0.12100000E+01           0.63317390E+00
   0.12200000E+01           0.63410388E+00
   0.12300000E+01           0.63456878E+00
   0.12400000E+01           0.63573263E+00
   0.12500000E+01           0.63630670E+00
   0.12600000E+01           0.63642963E+00
   0.12700000E+01           0.63630758E+00
   0.12800000E+01           0.63754004E+00
   0.12900000E+01           0.63738448E+00
   0.13000000E+01           0.63655891E+00
   0.13100000E+01           0.63667601E+00
   0.13200000E+01           0.63709612E+00
   0.13300000E+01           0.63651817E+00
   0.13400000E+01           0.63515697E+00
   0.13500000E+01           0.63427178E+00
   0.13600000E+01           0.63346208E+00
   0.13700000E+01           0.63294938E+00
   0.13800000E+01           0.63125326E+00
   0.13900000E+01           0.63025838E+00
   0.14000000E+01           0.62913104E+00
   0.14100000E+01           0.62695273E+00
   0.14200000E+01           0.62570035E+00
   0.14300000E+01           0.62311464E+00
   0.14400000E+01           0.62186896E+00
   0.14500000E+01           0.61897637E+00
   0.14600000E+01           0.61737178E+00
   0.14700000E+01           0.61445344E+00
   0.14800000E+01           0.61271693E+00
   0.14900000E+01           0.61045291E+00
   0.15000000E+01           0.60744109E+00
   0.15100000E+01           0.60505291E+00
   0.15200000E+01           0.60204021E+00
   0.15300000E+01           0.59884356E+00
   0.15400000E+01           0.59613651E+00
   0.15500000E+01           0.59272734E+00
   0.15600000E+01           0.58974603E+00
   0.15700000E+01           0.58651534E+00
   0.15800000E+01           0.58266067E+00
   0.15900000E+01           0.57916085E+00
   0.16000000E+01           0.57547566E+00
   0.16100000E+01           0.57177584E+00
   0.16200000E+01           0.56786243E+00
   0.16300000E+01           0.56380988E+00
   0.16400000E+01           0.56076032E+00
   0.16500000E+01           0.55577690E+00
   0.16600000E+01           0.55198483E+00
   0.16700000E+01           0.54729048E+00
   0.16800000E+01           0.54292275E+00
   0.16900000E+01           0.53851799E+00
   0.17000000E+01           0.53369048E+00
   0.17100000E+01           0.52976808E+00
   0.17200000E+01           0.52469718E+00
   0.17300000E+01           0.52062152E+00
   0.17400000E+01           0.51514409E+00
   0.17500000E+01           0.51042328E+00
   0.17600000E+01           0.50580317E+00
   0.17700000E+01           0.50120776E+00
   0.17800000E+01           0.49500741E+00
   0.17900000E+01           0.49014709E+00
   0.18000000E+01           0.48505185E+00
   0.18100000E+01           0.47973510E+00
   0.18200000E+01           0.47456825E+00
   0.18300000E+01           0.46972293E+00
   0.18400000E+01           0.46453280E+00
   0.18500000E+01           0.45907672E+00
   0.18600000E+01           0.45277319E+00
   0.18700000E+01           0.44750123E+00
   0.18800000E+01           0.44211534E+00
   0.18900000E+01           0.43678836E+00
   0.19000000E+01           0.43043210E+00
   0.19100000E+01           0.42511869E+00
   0.19200000E+01           0.41898695E+00
   0.19300000E+01           0.41433492E+00
   0.19400000E+01           0.40845961E+00
   0.19500000E+01           0.40180653E+00
   0.19600000E+01           0.39671376E+00
   0.19700000E+01           0.39103527E+00
   0.19800000E+01           0.38473245E+00
   0.19900000E+01           0.37897672E+00
   0.20000000E+01           0.37288818E+00
   0.20100000E+01           0.36734497E+00
   0.20200000E+01           0.36052205E+00
   0.20300000E+01           0.35512840E+00
   0.20400000E+01           0.34957090E+00
   0.20500000E+01           0.34406067E+00
   0.20600000E+01           0.33816684E+00
   0.20700000E+01           0.33262751E+00
   0.20800000E+01           0.32727125E+00
   0.20900000E+01           0.32167937E+00
   0.21000000E+01           0.31589735E+00
   0.21100000E+01           0.31099436E+00
   0.21200000E+01           0.30542504E+00
   0.21300000E+01           0.29969771E+00
   0.21400000E+01           0.29462028E+00
   0.21500000E+01           0.28941570E+00
   0.21600000E+01           0.28426085E+00
   0.21700000E+01           0.27923474E+00
   0.21800000E+01           0.27456596E+00
   0.21900000E+01           0.26912610E+00
   0.22000000E+01           0.26383580E+00
   0.22100000E+01           0.25902451E+00
   0.22200000E+01           0.25461675E+00
   0.22300000E+01           0.25011693E+00
   0.22400000E+01           0.24524638E+00
   0.22500000E+01           0.24075079E+00
   0.22600000E+01           0.23600688E+00
   0.22700000E+01           0.23111005E+00
   0.22800000E+01           0.22674586E+00
   0.22900000E+01           0.22250282E+00
   0.23000000E+01           0.21793228E+00
   0.23100000E+01           0.21381129E+00
   0.23200000E+01           0.20947937E+00
   0.23300000E+01           0.20501623E+00
   0.23400000E+01           0.20100388E+00
   0.23500000E+01           0.19711111E+00
   0.23600000E+01           0.19273915E+00
   0.23700000E+01           0.18905044E+00
   0.23800000E+01           0.18496279E+00
   0.23900000E+01           0.18120282E+00
   0.24000000E+01           0.17711658E+00
   0.24100000E+01           0.17336631E+00
   0.24200000E+01           0.17004709E+00
   0.24300000E+01           0.16653580E+00
   0.24400000E+01           0.16215926E+00
   0.24500000E+01           0.15892663E+00
   0.24600000E+01           0.15549189E+00
   0.24700000E+01           0.15220159E+00
   0.24800000E+01           0.14849312E+00
   0.24900000E+01           0.14527143E+00
   0.25000000E+01           0.14200459E+00
   0.25100000E+01           0.13874021E+00
   0.25200000E+01           0.13587019E+00
   0.25300000E+01           0.13241958E+00
   0.25400000E+01           0.12916684E+00
   0.25500000E+01           0.12655944E+00
   0.25600000E+01           0.12361429E+00
   0.25700000E+01           0.12073721E+00
   0.25800000E+01           0.11751146E+00
   0.25900000E+01           0.11479788E+00
   0.26000000E+01           0.11194621E+00
   0.26100000E+01           0.10909436E+00
   0.26200000E+01           0.10657143E+00
   0.26300000E+01           0.10388854E+00
   0.26400000E+01           0.10129947E+00
   0.26500000E+01           0.98608113E-01
   0.26600000E+01           0.96135450E-01
   0.26700000E+01           0.93698765E-01
   0.26800000E+01           0.91310935E-01
   0.26900000E+01           0.89092945E-01
   0.27000000E+01           0.86877249E-01
   0.27100000E+01           0.84462257E-01
   0.27200000E+01           0.82188713E-01
   0.27300000E+01           0.80256261E-01
   0.27400000E+01           0.78153439E-01
   0.27500000E+01           0.75834921E-01
   0.27600000E+01           0.74055026E-01
   0.27700000E+01           0.71912522E-01
   0.27800000E+01           0.69723104E-01
   0.27900000E+01           0.68064374E-01
   0.28000000E+01           0.66010758E-01
   0.28100000E+01           0.64159612E-01
   0.28200000E+01           0.62441093E-01
   0.28300000E+01           0.60568783E-01
   0.28400000E+01           0.58854674E-01
   0.28500000E+01           0.57303704E-01
   0.28600000E+01           0.55531570E-01
   0.28700000E+01           0.53909347E-01
   0.28800000E+01           0.52266843E-01
   0.28900000E+01           0.50877954E-01
   0.29000000E+01           0.49342857E-01
   0.29100000E+01           0.47844974E-01
   0.29200000E+01           0.46314109E-01
   0.29300000E+01           0.45061199E-01
   0.29400000E+01           0.43657496E-01
   0.29500000E+01           0.42309877E-01
   0.29600000E+01           0.40974074E-01
   0.29700000E+01           0.39588360E-01
   0.29800000E+01           0.38335097E-01
   0.29900000E+01           0.37114462E-01
   0.30000000E+01           0.35867725E-01
   0.30100000E+01           0.34858025E-01
   0.30200000E+01           0.33628395E-01
   0.30300000E+01           0.32420282E-01
   0.30400000E+01           0.31391182E-01
   0.30500000E+01           0.30260847E-01
   0.30600000E+01           0.29288183E-01
   0.30700000E+01           0.28290476E-01
   0.30800000E+01           0.27392416E-01
   0.30900000E+01           0.26393474E-01
   0.31000000E+01           0.25508818E-01
   0.31100000E+01           0.24530688E-01
   0.31200000E+01           0.23730688E-01
   0.31300000E+01           0.22793827E-01
   0.31400000E+01           0.22122928E-01
   0.31500000E+01           0.21249206E-01
   0.31600000E+01           0.20527690E-01
   0.31700000E+01           0.19707231E-01
   0.31800000E+01           0.18936861E-01
   0.31900000E+01           0.18223986E-01
   0.32000000E+01           0.17553792E-01
   0.32100000E+01           0.16833686E-01
   0.32200000E+01           0.16293474E-01
   0.32300000E+01           0.15565785E-01
   0.32400000E+01           0.15031041E-01
   0.32500000E+01           0.14383069E-01
   0.32600000E+01           0.13849735E-01
   0.32700000E+01           0.13253086E-01
   0.32800000E+01           0.12701587E-01
   0.32900000E+01           0.12142152E-01
   0.33000000E+01           0.11694885E-01
   0.33100000E+01           0.11164021E-01
   0.33200000E+01           0.10658730E-01
   0.33300000E+01           0.10209171E-01
   0.33400000E+01           0.98028219E-02
   0.33500000E+01           0.93507937E-02
   0.33600000E+01           0.89738977E-02
   0.33700000E+01           0.86202822E-02
   0.33800000E+01           0.81712522E-02
   0.33900000E+01           0.76867725E-02
   0.34000000E+01           0.73832451E-02
   0.34100000E+01           0.71134039E-02
   0.34200000E+01           0.66975309E-02
   0.34300000E+01           0.63516755E-02
   0.34400000E+01           0.60562610E-02
   0.34500000E+01           0.57506173E-02
   0.34600000E+01           0.54476190E-02
   0.34700000E+01           0.51668430E-02
   0.34800000E+01           0.48668430E-02
   0.34900000E+01           0.46619048E-02
   0.35000000E+01           0.43932981E-02
   0.35100000E+01           0.41338624E-02
   0.35200000E+01           0.39252205E-02
   0.35300000E+01           0.36728395E-02
   0.35400000E+01           0.34594356E-02
   0.35500000E+01           0.33031746E-02
   0.35600000E+01           0.31001764E-02
   0.35700000E+01           0.29227513E-02
   0.35800000E+01           0.27301587E-02
   0.35900000E+01           0.26067019E-02
   0.36000000E+01           0.23996473E-02
   0.36100000E+01           0.22530864E-02
   0.36200000E+01           0.21352734E-02
   0.36300000E+01           0.19881834E-02
   0.36400000E+01           0.18199295E-02
   0.36500000E+01           0.16897707E-02
   0.36600000E+01           0.15906526E-02
   0.36700000E+01           0.14901235E-02
   0.36800000E+01           0.13548501E-02
   0.36900000E+01           0.12546737E-02
   0.37000000E+01           0.11343915E-02
   0.37100000E+01           0.10566138E-02
   0.37200000E+01           0.96825397E-03
   0.37300000E+01           0.86613757E-03
   0.37400000E+01           0.80141093E-03
   0.37500000E+01           0.73827160E-03
   0.37600000E+01           0.67724868E-03
   0.37700000E+01           0.61040564E-03
   0.37800000E+01           0.53068783E-03
   0.37900000E+01           0.49664903E-03
   0.38000000E+01           0.42698413E-03
   0.38100000E+01           0.37495591E-03
   0.38200000E+01           0.34356261E-03
   0.38300000E+01           0.27989418E-03
   0.38400000E+01           0.26490300E-03
   0.38500000E+01           0.22134039E-03
   0.38600000E+01           0.19153439E-03
   0.38700000E+01           0.16049383E-03
   0.38800000E+01           0.13315697E-03
   0.38900000E+01           0.11128748E-03
   0.39000000E+01           0.92592593E-04
   0.39100000E+01           0.77072310E-04
   0.39200000E+01           0.63139330E-04
   0.39300000E+01           0.44444444E-04
   0.39400000E+01           0.32804233E-04
   0.39500000E+01           0.21516755E-04
   0.39600000E+01           0.11992945E-04
   0.39700000E+01           0.84656085E-05
   0.39800000E+01           0.42328042E-05
   0.39900000E+01           0.12345679E-05
   0.40000000E+01           0.35273369E-06
