 #written on 14Mar2025 at 14:09:06 
 #----------------- MONTECARLO -------------------#
 #        M                      P(M)             #
 #------------------------------------------------#
 #T=     5.0000
  -0.20000000E+01           0.00000000E+00
  -0.19900000E+01           0.00000000E+00
  -0.19800000E+01           0.00000000E+00
  -0.19700000E+01           0.00000000E+00
  -0.19600000E+01           0.00000000E+00
  -0.19500000E+01           0.00000000E+00
  -0.19400000E+01           0.00000000E+00
  -0.19300000E+01           0.00000000E+00
  -0.19200000E+01           0.00000000E+00
  -0.19100000E+01           0.00000000E+00
  -0.19000000E+01           0.00000000E+00
  -0.18900000E+01           0.00000000E+00
  -0.18800000E+01           0.00000000E+00
  -0.18700000E+01           0.00000000E+00
  -0.18600000E+01           0.00000000E+00
  -0.18500000E+01           0.00000000E+00
  -0.18400000E+01           0.00000000E+00
  -0.18300000E+01           0.00000000E+00
  -0.18200000E+01           0.00000000E+00
  -0.18100000E+01           0.00000000E+00
  -0.18000000E+01           0.00000000E+00
  -0.17900000E+01           0.00000000E+00
  -0.17800000E+01           0.00000000E+00
  -0.17700000E+01           0.00000000E+00
  -0.17600000E+01           0.00000000E+00
  -0.17500000E+01           0.00000000E+00
  -0.17400000E+01           0.00000000E+00
  -0.17300000E+01           0.00000000E+00
  -0.17200000E+01           0.00000000E+00
  -0.17100000E+01           0.00000000E+00
  -0.17000000E+01           0.00000000E+00
  -0.16900000E+01           0.00000000E+00
  -0.16800000E+01           0.00000000E+00
  -0.16700000E+01           0.00000000E+00
  -0.16600000E+01           0.00000000E+00
  -0.16500000E+01           0.00000000E+00
  -0.16400000E+01           0.00000000E+00
  -0.16300000E+01           0.00000000E+00
  -0.16200000E+01           0.00000000E+00
  -0.16100000E+01           0.00000000E+00
  -0.16000000E+01           0.00000000E+00
  -0.15900000E+01           0.00000000E+00
  -0.15800000E+01           0.00000000E+00
  -0.15700000E+01           0.00000000E+00
  -0.15600000E+01           0.00000000E+00
  -0.15500000E+01           0.00000000E+00
  -0.15400000E+01           0.00000000E+00
  -0.15300000E+01           0.00000000E+00
  -0.15200000E+01           0.00000000E+00
  -0.15100000E+01           0.00000000E+00
  -0.15000000E+01           0.00000000E+00
  -0.14900000E+01           0.00000000E+00
  -0.14800000E+01           0.00000000E+00
  -0.14700000E+01           0.00000000E+00
  -0.14600000E+01           0.00000000E+00
  -0.14500000E+01           0.00000000E+00
  -0.14400000E+01           0.00000000E+00
  -0.14300000E+01           0.00000000E+00
  -0.14200000E+01           0.00000000E+00
  -0.14100000E+01           0.00000000E+00
  -0.14000000E+01           0.00000000E+00
  -0.13900000E+01           0.00000000E+00
  -0.13800000E+01           0.00000000E+00
  -0.13700000E+01           0.00000000E+00
  -0.13600000E+01           0.00000000E+00
  -0.13500000E+01           0.00000000E+00
  -0.13400000E+01           0.00000000E+00
  -0.13300000E+01           0.00000000E+00
  -0.13200000E+01           0.00000000E+00
  -0.13100000E+01           0.00000000E+00
  -0.13000000E+01           0.00000000E+00
  -0.12900000E+01           0.00000000E+00
  -0.12800000E+01           0.00000000E+00
  -0.12700000E+01           0.00000000E+00
  -0.12600000E+01           0.00000000E+00
  -0.12500000E+01           0.00000000E+00
  -0.12400000E+01           0.00000000E+00
  -0.12300000E+01           0.00000000E+00
  -0.12200000E+01           0.00000000E+00
  -0.12100000E+01           0.00000000E+00
  -0.12000000E+01           0.00000000E+00
  -0.11900000E+01           0.00000000E+00
  -0.11800000E+01           0.00000000E+00
  -0.11700000E+01           0.00000000E+00
  -0.11600000E+01           0.00000000E+00
  -0.11500000E+01           0.00000000E+00
  -0.11400000E+01           0.00000000E+00
  -0.11300000E+01           0.00000000E+00
  -0.11200000E+01           0.00000000E+00
  -0.11100000E+01           0.00000000E+00
  -0.11000000E+01           0.00000000E+00
  -0.10900000E+01           0.00000000E+00
  -0.10800000E+01           0.00000000E+00
  -0.10700000E+01           0.00000000E+00
  -0.10600000E+01           0.00000000E+00
  -0.10500000E+01           0.00000000E+00
  -0.10400000E+01           0.00000000E+00
  -0.10300000E+01           0.00000000E+00
  -0.10200000E+01           0.00000000E+00
  -0.10100000E+01           0.00000000E+00
  -0.10000000E+01           0.00000000E+00
  -0.99000000E+00           0.00000000E+00
  -0.98000000E+00           0.00000000E+00
  -0.97000000E+00           0.00000000E+00
  -0.96000000E+00           0.00000000E+00
  -0.95000000E+00           0.00000000E+00
  -0.94000000E+00           0.00000000E+00
  -0.93000000E+00           0.00000000E+00
  -0.92000000E+00           0.00000000E+00
  -0.91000000E+00           0.00000000E+00
  -0.90000000E+00           0.00000000E+00
  -0.89000000E+00           0.00000000E+00
  -0.88000000E+00           0.00000000E+00
  -0.87000000E+00           0.00000000E+00
  -0.86000000E+00           0.00000000E+00
  -0.85000000E+00           0.00000000E+00
  -0.84000000E+00           0.00000000E+00
  -0.83000000E+00           0.00000000E+00
  -0.82000000E+00           0.00000000E+00
  -0.81000000E+00           0.00000000E+00
  -0.80000000E+00           0.00000000E+00
  -0.79000000E+00           0.00000000E+00
  -0.78000000E+00           0.00000000E+00
  -0.77000000E+00           0.00000000E+00
  -0.76000000E+00           0.00000000E+00
  -0.75000000E+00           0.00000000E+00
  -0.74000000E+00           0.00000000E+00
  -0.73000000E+00           0.00000000E+00
  -0.72000000E+00           0.00000000E+00
  -0.71000000E+00           0.00000000E+00
  -0.70000000E+00           0.00000000E+00
  -0.69000000E+00           0.00000000E+00
  -0.68000000E+00           0.00000000E+00
  -0.67000000E+00           0.00000000E+00
  -0.66000000E+00           0.00000000E+00
  -0.65000000E+00           0.00000000E+00
  -0.64000000E+00           0.00000000E+00
  -0.63000000E+00           0.00000000E+00
  -0.62000000E+00           0.00000000E+00
  -0.61000000E+00           0.00000000E+00
  -0.60000000E+00           0.00000000E+00
  -0.59000000E+00           0.00000000E+00
  -0.58000000E+00           0.00000000E+00
  -0.57000000E+00           0.00000000E+00
  -0.56000000E+00           0.00000000E+00
  -0.55000000E+00           0.00000000E+00
  -0.54000000E+00           0.00000000E+00
  -0.53000000E+00           0.00000000E+00
  -0.52000000E+00           0.00000000E+00
  -0.51000000E+00           0.00000000E+00
  -0.50000000E+00           0.00000000E+00
  -0.49000000E+00           0.00000000E+00
  -0.48000000E+00           0.00000000E+00
  -0.47000000E+00           0.00000000E+00
  -0.46000000E+00           0.00000000E+00
  -0.45000000E+00           0.00000000E+00
  -0.44000000E+00           0.00000000E+00
  -0.43000000E+00           0.00000000E+00
  -0.42000000E+00           0.00000000E+00
  -0.41000000E+00           0.00000000E+00
  -0.40000000E+00           0.00000000E+00
  -0.39000000E+00           0.00000000E+00
  -0.38000000E+00           0.00000000E+00
  -0.37000000E+00           0.00000000E+00
  -0.36000000E+00           0.00000000E+00
  -0.35000000E+00           0.00000000E+00
  -0.34000000E+00           0.00000000E+00
  -0.33000000E+00           0.00000000E+00
  -0.32000000E+00           0.00000000E+00
  -0.31000000E+00           0.00000000E+00
  -0.30000000E+00           0.00000000E+00
  -0.29000000E+00           0.00000000E+00
  -0.28000000E+00           0.00000000E+00
  -0.27000000E+00           0.00000000E+00
  -0.26000000E+00           0.00000000E+00
  -0.25000000E+00           0.00000000E+00
  -0.24000000E+00           0.00000000E+00
  -0.23000000E+00           0.00000000E+00
  -0.22000000E+00           0.00000000E+00
  -0.21000000E+00           0.00000000E+00
  -0.20000000E+00           0.00000000E+00
  -0.19000000E+00           0.00000000E+00
  -0.18000000E+00           0.00000000E+00
  -0.17000000E+00           0.00000000E+00
  -0.16000000E+00           0.00000000E+00
  -0.15000000E+00           0.00000000E+00
  -0.14000000E+00           0.00000000E+00
  -0.13000000E+00           0.00000000E+00
  -0.12000000E+00           0.00000000E+00
  -0.11000000E+00           0.00000000E+00
  -0.10000000E+00           0.00000000E+00
  -0.90000000E-01           0.00000000E+00
  -0.80000000E-01           0.00000000E+00
  -0.70000000E-01           0.00000000E+00
  -0.60000000E-01           0.00000000E+00
  -0.50000000E-01           0.00000000E+00
  -0.40000000E-01           0.00000000E+00
  -0.30000000E-01           0.00000000E+00
  -0.20000000E-01           0.00000000E+00
  -0.10000000E-01           0.00000000E+00
   0.00000000E+00           0.23245503E-01
   0.10000000E-01           0.18614453E+00
   0.20000000E-01           0.37263854E+00
   0.30000000E-01           0.55676402E+00
   0.40000000E-01           0.73848157E+00
   0.50000000E-01           0.91321129E+00
   0.60000000E-01           0.10882340E+01
   0.70000000E-01           0.12527861E+01
   0.80000000E-01           0.14115919E+01
   0.90000000E-01           0.15622770E+01
   0.10000000E+00           0.17061619E+01
   0.11000000E+00           0.18399690E+01
   0.12000000E+00           0.19665310E+01
   0.13000000E+00           0.20816475E+01
   0.14000000E+00           0.21844670E+01
   0.15000000E+00           0.22808258E+01
   0.16000000E+00           0.23618497E+01
   0.17000000E+00           0.24347235E+01
   0.18000000E+00           0.24961417E+01
   0.19000000E+00           0.25441882E+01
   0.20000000E+00           0.25828638E+01
   0.21000000E+00           0.26117104E+01
   0.22000000E+00           0.26269171E+01
   0.23000000E+00           0.26352825E+01
   0.24000000E+00           0.26316865E+01
   0.25000000E+00           0.26232660E+01
   0.26000000E+00           0.26001093E+01
   0.27000000E+00           0.25687884E+01
   0.28000000E+00           0.25311586E+01
   0.29000000E+00           0.24837892E+01
   0.30000000E+00           0.24312264E+01
   0.31000000E+00           0.23760384E+01
   0.32000000E+00           0.23091926E+01
   0.33000000E+00           0.22400623E+01
   0.34000000E+00           0.21672634E+01
   0.35000000E+00           0.20916140E+01
   0.36000000E+00           0.20131106E+01
   0.37000000E+00           0.19324104E+01
   0.38000000E+00           0.18490537E+01
   0.39000000E+00           0.17668240E+01
   0.40000000E+00           0.16816192E+01
   0.41000000E+00           0.15955325E+01
   0.42000000E+00           0.15124380E+01
   0.43000000E+00           0.14304271E+01
   0.44000000E+00           0.13472493E+01
   0.45000000E+00           0.12665913E+01
   0.46000000E+00           0.11876970E+01
   0.47000000E+00           0.11108864E+01
   0.48000000E+00           0.10377017E+01
   0.49000000E+00           0.96663589E+00
   0.50000000E+00           0.89586966E+00
   0.51000000E+00           0.83147469E+00
   0.52000000E+00           0.76895079E+00
   0.53000000E+00           0.70941358E+00
   0.54000000E+00           0.65282381E+00
   0.55000000E+00           0.59827760E+00
   0.56000000E+00           0.54812584E+00
   0.57000000E+00           0.50133210E+00
   0.58000000E+00           0.45596711E+00
   0.59000000E+00           0.41500608E+00
   0.60000000E+00           0.37579012E+00
   0.61000000E+00           0.34064974E+00
   0.62000000E+00           0.30727522E+00
   0.63000000E+00           0.27706623E+00
   0.64000000E+00           0.24840864E+00
   0.65000000E+00           0.22314788E+00
   0.66000000E+00           0.19924744E+00
   0.67000000E+00           0.17776587E+00
   0.68000000E+00           0.15846217E+00
   0.69000000E+00           0.14093624E+00
   0.70000000E+00           0.12466446E+00
   0.71000000E+00           0.11006649E+00
   0.72000000E+00           0.96797531E-01
   0.73000000E+00           0.85244709E-01
   0.74000000E+00           0.74623898E-01
   0.75000000E+00           0.65410229E-01
   0.76000000E+00           0.57176190E-01
   0.77000000E+00           0.49991270E-01
   0.78000000E+00           0.43262434E-01
   0.79000000E+00           0.37570194E-01
   0.80000000E+00           0.32571429E-01
   0.81000000E+00           0.27937566E-01
   0.82000000E+00           0.24002205E-01
   0.83000000E+00           0.20715697E-01
   0.84000000E+00           0.17847443E-01
   0.85000000E+00           0.15141799E-01
   0.86000000E+00           0.12858818E-01
   0.87000000E+00           0.10970106E-01
   0.88000000E+00           0.92498236E-02
   0.89000000E+00           0.78285714E-02
   0.90000000E+00           0.66547619E-02
   0.91000000E+00           0.55446208E-02
   0.92000000E+00           0.46568783E-02
   0.93000000E+00           0.38824515E-02
   0.94000000E+00           0.32492945E-02
   0.95000000E+00           0.27141975E-02
   0.96000000E+00           0.22319224E-02
   0.97000000E+00           0.18344797E-02
   0.98000000E+00           0.15343034E-02
   0.99000000E+00           0.12913580E-02
   0.10000000E+01           0.10421517E-02
   0.10100000E+01           0.82945326E-03
   0.10200000E+01           0.71957672E-03
   0.10300000E+01           0.54559083E-03
   0.10400000E+01           0.45555556E-03
   0.10500000E+01           0.37548501E-03
   0.10600000E+01           0.30767196E-03
   0.10700000E+01           0.24858907E-03
   0.10800000E+01           0.20255732E-03
   0.10900000E+01           0.14982363E-03
   0.11000000E+01           0.12425044E-03
   0.11100000E+01           0.95590829E-04
   0.11200000E+01           0.79629630E-04
   0.11300000E+01           0.65873016E-04
   0.11400000E+01           0.44973545E-04
   0.11500000E+01           0.35537919E-04
   0.11600000E+01           0.29805996E-04
   0.11700000E+01           0.26807760E-04
   0.11800000E+01           0.17372134E-04
   0.11900000E+01           0.13756614E-04
   0.12000000E+01           0.11287478E-04
   0.12100000E+01           0.83774250E-05
   0.12200000E+01           0.63492063E-05
   0.12300000E+01           0.54673721E-05
   0.12400000E+01           0.42328042E-05
   0.12500000E+01           0.37037037E-05
   0.12600000E+01           0.16754850E-05
   0.12700000E+01           0.12345679E-05
   0.12800000E+01           0.15873016E-05
   0.12900000E+01           0.13227513E-05
   0.13000000E+01           0.79365079E-06
   0.13100000E+01           0.26455026E-06
   0.13200000E+01           0.10582011E-05
   0.13300000E+01           0.52910053E-06
   0.13400000E+01           0.88183422E-07
   0.13500000E+01           0.00000000E+00
   0.13600000E+01           0.35273369E-06
   0.13700000E+01           0.88183422E-07
   0.13800000E+01           0.00000000E+00
   0.13900000E+01           0.00000000E+00
   0.14000000E+01           0.00000000E+00
   0.14100000E+01           0.00000000E+00
   0.14200000E+01           0.00000000E+00
   0.14300000E+01           0.00000000E+00
   0.14400000E+01           0.00000000E+00
   0.14500000E+01           0.00000000E+00
   0.14600000E+01           0.00000000E+00
   0.14700000E+01           0.00000000E+00
   0.14800000E+01           0.00000000E+00
   0.14900000E+01           0.00000000E+00
   0.15000000E+01           0.00000000E+00
   0.15100000E+01           0.00000000E+00
   0.15200000E+01           0.00000000E+00
   0.15300000E+01           0.00000000E+00
   0.15400000E+01           0.00000000E+00
   0.15500000E+01           0.00000000E+00
   0.15600000E+01           0.00000000E+00
   0.15700000E+01           0.00000000E+00
   0.15800000E+01           0.00000000E+00
   0.15900000E+01           0.00000000E+00
   0.16000000E+01           0.00000000E+00
   0.16100000E+01           0.00000000E+00
   0.16200000E+01           0.00000000E+00
   0.16300000E+01           0.00000000E+00
   0.16400000E+01           0.00000000E+00
   0.16500000E+01           0.00000000E+00
   0.16600000E+01           0.00000000E+00
   0.16700000E+01           0.00000000E+00
   0.16800000E+01           0.00000000E+00
   0.16900000E+01           0.00000000E+00
   0.17000000E+01           0.00000000E+00
   0.17100000E+01           0.00000000E+00
   0.17200000E+01           0.00000000E+00
   0.17300000E+01           0.00000000E+00
   0.17400000E+01           0.00000000E+00
   0.17500000E+01           0.00000000E+00
   0.17600000E+01           0.00000000E+00
   0.17700000E+01           0.00000000E+00
   0.17800000E+01           0.00000000E+00
   0.17900000E+01           0.00000000E+00
   0.18000000E+01           0.00000000E+00
   0.18100000E+01           0.00000000E+00
   0.18200000E+01           0.00000000E+00
   0.18300000E+01           0.00000000E+00
   0.18400000E+01           0.00000000E+00
   0.18500000E+01           0.00000000E+00
   0.18600000E+01           0.00000000E+00
   0.18700000E+01           0.00000000E+00
   0.18800000E+01           0.00000000E+00
   0.18900000E+01           0.00000000E+00
   0.19000000E+01           0.00000000E+00
   0.19100000E+01           0.00000000E+00
   0.19200000E+01           0.00000000E+00
   0.19300000E+01           0.00000000E+00
   0.19400000E+01           0.00000000E+00
   0.19500000E+01           0.00000000E+00
   0.19600000E+01           0.00000000E+00
   0.19700000E+01           0.00000000E+00
   0.19800000E+01           0.00000000E+00
   0.19900000E+01           0.00000000E+00
   0.20000000E+01           0.00000000E+00
 #T=     6.0000
  -0.20000000E+01           0.00000000E+00
  -0.19900000E+01           0.00000000E+00
  -0.19800000E+01           0.00000000E+00
  -0.19700000E+01           0.00000000E+00
  -0.19600000E+01           0.00000000E+00
  -0.19500000E+01           0.00000000E+00
  -0.19400000E+01           0.00000000E+00
  -0.19300000E+01           0.00000000E+00
  -0.19200000E+01           0.00000000E+00
  -0.19100000E+01           0.00000000E+00
  -0.19000000E+01           0.00000000E+00
  -0.18900000E+01           0.00000000E+00
  -0.18800000E+01           0.00000000E+00
  -0.18700000E+01           0.00000000E+00
  -0.18600000E+01           0.00000000E+00
  -0.18500000E+01           0.00000000E+00
  -0.18400000E+01           0.00000000E+00
  -0.18300000E+01           0.00000000E+00
  -0.18200000E+01           0.00000000E+00
  -0.18100000E+01           0.00000000E+00
  -0.18000000E+01           0.00000000E+00
  -0.17900000E+01           0.00000000E+00
  -0.17800000E+01           0.00000000E+00
  -0.17700000E+01           0.00000000E+00
  -0.17600000E+01           0.00000000E+00
  -0.17500000E+01           0.00000000E+00
  -0.17400000E+01           0.00000000E+00
  -0.17300000E+01           0.00000000E+00
  -0.17200000E+01           0.00000000E+00
  -0.17100000E+01           0.00000000E+00
  -0.17000000E+01           0.00000000E+00
  -0.16900000E+01           0.00000000E+00
  -0.16800000E+01           0.00000000E+00
  -0.16700000E+01           0.00000000E+00
  -0.16600000E+01           0.00000000E+00
  -0.16500000E+01           0.00000000E+00
  -0.16400000E+01           0.00000000E+00
  -0.16300000E+01           0.00000000E+00
  -0.16200000E+01           0.00000000E+00
  -0.16100000E+01           0.00000000E+00
  -0.16000000E+01           0.00000000E+00
  -0.15900000E+01           0.00000000E+00
  -0.15800000E+01           0.00000000E+00
  -0.15700000E+01           0.00000000E+00
  -0.15600000E+01           0.00000000E+00
  -0.15500000E+01           0.00000000E+00
  -0.15400000E+01           0.00000000E+00
  -0.15300000E+01           0.00000000E+00
  -0.15200000E+01           0.00000000E+00
  -0.15100000E+01           0.00000000E+00
  -0.15000000E+01           0.00000000E+00
  -0.14900000E+01           0.00000000E+00
  -0.14800000E+01           0.00000000E+00
  -0.14700000E+01           0.00000000E+00
  -0.14600000E+01           0.00000000E+00
  -0.14500000E+01           0.00000000E+00
  -0.14400000E+01           0.00000000E+00
  -0.14300000E+01           0.00000000E+00
  -0.14200000E+01           0.00000000E+00
  -0.14100000E+01           0.00000000E+00
  -0.14000000E+01           0.00000000E+00
  -0.13900000E+01           0.00000000E+00
  -0.13800000E+01           0.00000000E+00
  -0.13700000E+01           0.00000000E+00
  -0.13600000E+01           0.00000000E+00
  -0.13500000E+01           0.00000000E+00
  -0.13400000E+01           0.00000000E+00
  -0.13300000E+01           0.00000000E+00
  -0.13200000E+01           0.00000000E+00
  -0.13100000E+01           0.00000000E+00
  -0.13000000E+01           0.00000000E+00
  -0.12900000E+01           0.00000000E+00
  -0.12800000E+01           0.00000000E+00
  -0.12700000E+01           0.00000000E+00
  -0.12600000E+01           0.00000000E+00
  -0.12500000E+01           0.00000000E+00
  -0.12400000E+01           0.00000000E+00
  -0.12300000E+01           0.00000000E+00
  -0.12200000E+01           0.00000000E+00
  -0.12100000E+01           0.00000000E+00
  -0.12000000E+01           0.00000000E+00
  -0.11900000E+01           0.00000000E+00
  -0.11800000E+01           0.00000000E+00
  -0.11700000E+01           0.00000000E+00
  -0.11600000E+01           0.00000000E+00
  -0.11500000E+01           0.00000000E+00
  -0.11400000E+01           0.00000000E+00
  -0.11300000E+01           0.00000000E+00
  -0.11200000E+01           0.00000000E+00
  -0.11100000E+01           0.00000000E+00
  -0.11000000E+01           0.00000000E+00
  -0.10900000E+01           0.00000000E+00
  -0.10800000E+01           0.00000000E+00
  -0.10700000E+01           0.00000000E+00
  -0.10600000E+01           0.00000000E+00
  -0.10500000E+01           0.00000000E+00
  -0.10400000E+01           0.00000000E+00
  -0.10300000E+01           0.00000000E+00
  -0.10200000E+01           0.00000000E+00
  -0.10100000E+01           0.00000000E+00
  -0.10000000E+01           0.00000000E+00
  -0.99000000E+00           0.00000000E+00
  -0.98000000E+00           0.00000000E+00
  -0.97000000E+00           0.00000000E+00
  -0.96000000E+00           0.00000000E+00
  -0.95000000E+00           0.00000000E+00
  -0.94000000E+00           0.00000000E+00
  -0.93000000E+00           0.00000000E+00
  -0.92000000E+00           0.00000000E+00
  -0.91000000E+00           0.00000000E+00
  -0.90000000E+00           0.00000000E+00
  -0.89000000E+00           0.00000000E+00
  -0.88000000E+00           0.00000000E+00
  -0.87000000E+00           0.00000000E+00
  -0.86000000E+00           0.00000000E+00
  -0.85000000E+00           0.00000000E+00
  -0.84000000E+00           0.00000000E+00
  -0.83000000E+00           0.00000000E+00
  -0.82000000E+00           0.00000000E+00
  -0.81000000E+00           0.00000000E+00
  -0.80000000E+00           0.00000000E+00
  -0.79000000E+00           0.00000000E+00
  -0.78000000E+00           0.00000000E+00
  -0.77000000E+00           0.00000000E+00
  -0.76000000E+00           0.00000000E+00
  -0.75000000E+00           0.00000000E+00
  -0.74000000E+00           0.00000000E+00
  -0.73000000E+00           0.00000000E+00
  -0.72000000E+00           0.00000000E+00
  -0.71000000E+00           0.00000000E+00
  -0.70000000E+00           0.00000000E+00
  -0.69000000E+00           0.00000000E+00
  -0.68000000E+00           0.00000000E+00
  -0.67000000E+00           0.00000000E+00
  -0.66000000E+00           0.00000000E+00
  -0.65000000E+00           0.00000000E+00
  -0.64000000E+00           0.00000000E+00
  -0.63000000E+00           0.00000000E+00
  -0.62000000E+00           0.00000000E+00
  -0.61000000E+00           0.00000000E+00
  -0.60000000E+00           0.00000000E+00
  -0.59000000E+00           0.00000000E+00
  -0.58000000E+00           0.00000000E+00
  -0.57000000E+00           0.00000000E+00
  -0.56000000E+00           0.00000000E+00
  -0.55000000E+00           0.00000000E+00
  -0.54000000E+00           0.00000000E+00
  -0.53000000E+00           0.00000000E+00
  -0.52000000E+00           0.00000000E+00
  -0.51000000E+00           0.00000000E+00
  -0.50000000E+00           0.00000000E+00
  -0.49000000E+00           0.00000000E+00
  -0.48000000E+00           0.00000000E+00
  -0.47000000E+00           0.00000000E+00
  -0.46000000E+00           0.00000000E+00
  -0.45000000E+00           0.00000000E+00
  -0.44000000E+00           0.00000000E+00
  -0.43000000E+00           0.00000000E+00
  -0.42000000E+00           0.00000000E+00
  -0.41000000E+00           0.00000000E+00
  -0.40000000E+00           0.00000000E+00
  -0.39000000E+00           0.00000000E+00
  -0.38000000E+00           0.00000000E+00
  -0.37000000E+00           0.00000000E+00
  -0.36000000E+00           0.00000000E+00
  -0.35000000E+00           0.00000000E+00
  -0.34000000E+00           0.00000000E+00
  -0.33000000E+00           0.00000000E+00
  -0.32000000E+00           0.00000000E+00
  -0.31000000E+00           0.00000000E+00
  -0.30000000E+00           0.00000000E+00
  -0.29000000E+00           0.00000000E+00
  -0.28000000E+00           0.00000000E+00
  -0.27000000E+00           0.00000000E+00
  -0.26000000E+00           0.00000000E+00
  -0.25000000E+00           0.00000000E+00
  -0.24000000E+00           0.00000000E+00
  -0.23000000E+00           0.00000000E+00
  -0.22000000E+00           0.00000000E+00
  -0.21000000E+00           0.00000000E+00
  -0.20000000E+00           0.00000000E+00
  -0.19000000E+00           0.00000000E+00
  -0.18000000E+00           0.00000000E+00
  -0.17000000E+00           0.00000000E+00
  -0.16000000E+00           0.00000000E+00
  -0.15000000E+00           0.00000000E+00
  -0.14000000E+00           0.00000000E+00
  -0.13000000E+00           0.00000000E+00
  -0.12000000E+00           0.00000000E+00
  -0.11000000E+00           0.00000000E+00
  -0.10000000E+00           0.00000000E+00
  -0.90000000E-01           0.00000000E+00
  -0.80000000E-01           0.00000000E+00
  -0.70000000E-01           0.00000000E+00
  -0.60000000E-01           0.00000000E+00
  -0.50000000E-01           0.00000000E+00
  -0.40000000E-01           0.00000000E+00
  -0.30000000E-01           0.00000000E+00
  -0.20000000E-01           0.00000000E+00
  -0.10000000E-01           0.00000000E+00
   0.00000000E+00           0.19458025E-01
   0.10000000E-01           0.15493818E+00
   0.20000000E-01           0.30904938E+00
   0.30000000E-01           0.46145150E+00
   0.40000000E-01           0.61330538E+00
   0.50000000E-01           0.76153563E+00
   0.60000000E-01           0.90555379E+00
   0.70000000E-01           0.10469443E+01
   0.80000000E-01           0.11830447E+01
   0.90000000E-01           0.13136059E+01
   0.10000000E+00           0.14376785E+01
   0.11000000E+00           0.15555078E+01
   0.12000000E+00           0.16673239E+01
   0.13000000E+00           0.17707851E+01
   0.14000000E+00           0.18678414E+01
   0.15000000E+00           0.19584556E+01
   0.16000000E+00           0.20404165E+01
   0.17000000E+00           0.21121927E+01
   0.18000000E+00           0.21769321E+01
   0.19000000E+00           0.22356719E+01
   0.20000000E+00           0.22836547E+01
   0.21000000E+00           0.23223537E+01
   0.22000000E+00           0.23541713E+01
   0.23000000E+00           0.23803262E+01
   0.24000000E+00           0.23925847E+01
   0.25000000E+00           0.24019996E+01
   0.26000000E+00           0.23994019E+01
   0.27000000E+00           0.23922379E+01
   0.28000000E+00           0.23808771E+01
   0.29000000E+00           0.23563458E+01
   0.30000000E+00           0.23294539E+01
   0.31000000E+00           0.22968642E+01
   0.32000000E+00           0.22582951E+01
   0.33000000E+00           0.22136996E+01
   0.34000000E+00           0.21658306E+01
   0.35000000E+00           0.21135674E+01
   0.36000000E+00           0.20568130E+01
   0.37000000E+00           0.19975040E+01
   0.38000000E+00           0.19352724E+01
   0.39000000E+00           0.18701292E+01
   0.40000000E+00           0.18033114E+01
   0.41000000E+00           0.17372668E+01
   0.42000000E+00           0.16692929E+01
   0.43000000E+00           0.15988663E+01
   0.44000000E+00           0.15285914E+01
   0.45000000E+00           0.14569927E+01
   0.46000000E+00           0.13878666E+01
   0.47000000E+00           0.13180761E+01
   0.48000000E+00           0.12502496E+01
   0.49000000E+00           0.11815618E+01
   0.50000000E+00           0.11170479E+01
   0.51000000E+00           0.10520339E+01
   0.52000000E+00           0.98938360E+00
   0.53000000E+00           0.92818457E+00
   0.54000000E+00           0.86931658E+00
   0.55000000E+00           0.81151649E+00
   0.56000000E+00           0.75675150E+00
   0.57000000E+00           0.70427522E+00
   0.58000000E+00           0.65521517E+00
   0.59000000E+00           0.60665811E+00
   0.60000000E+00           0.56194709E+00
   0.61000000E+00           0.51779436E+00
   0.62000000E+00           0.47822601E+00
   0.63000000E+00           0.43969735E+00
   0.64000000E+00           0.40336940E+00
   0.65000000E+00           0.36917698E+00
   0.66000000E+00           0.33726993E+00
   0.67000000E+00           0.30814832E+00
   0.68000000E+00           0.28060626E+00
   0.69000000E+00           0.25466711E+00
   0.70000000E+00           0.23122831E+00
   0.71000000E+00           0.20957302E+00
   0.72000000E+00           0.18908263E+00
   0.73000000E+00           0.17030855E+00
   0.74000000E+00           0.15285335E+00
   0.75000000E+00           0.13751772E+00
   0.76000000E+00           0.12338510E+00
   0.77000000E+00           0.11043192E+00
   0.78000000E+00           0.97979012E-01
   0.79000000E+00           0.87495679E-01
   0.80000000E+00           0.77712963E-01
   0.81000000E+00           0.69241887E-01
   0.82000000E+00           0.61201764E-01
   0.83000000E+00           0.54117196E-01
   0.84000000E+00           0.47634921E-01
   0.85000000E+00           0.41874427E-01
   0.86000000E+00           0.36807760E-01
   0.87000000E+00           0.32193122E-01
   0.88000000E+00           0.28139065E-01
   0.89000000E+00           0.24580071E-01
   0.90000000E+00           0.21424074E-01
   0.91000000E+00           0.18628131E-01
   0.92000000E+00           0.16029277E-01
   0.93000000E+00           0.13963139E-01
   0.94000000E+00           0.11961728E-01
   0.95000000E+00           0.10360053E-01
   0.96000000E+00           0.88417989E-02
   0.97000000E+00           0.75871252E-02
   0.98000000E+00           0.65064374E-02
   0.99000000E+00           0.55877425E-02
   0.10000000E+01           0.47635802E-02
   0.10100000E+01           0.40193122E-02
   0.10200000E+01           0.34082892E-02
   0.10300000E+01           0.28376543E-02
   0.10400000E+01           0.24067019E-02
   0.10500000E+01           0.20139330E-02
   0.10600000E+01           0.17170194E-02
   0.10700000E+01           0.14276896E-02
   0.10800000E+01           0.11828924E-02
   0.10900000E+01           0.99188713E-03
   0.11000000E+01           0.82574956E-03
   0.11100000E+01           0.66948854E-03
   0.11200000E+01           0.55070547E-03
   0.11300000E+01           0.47134039E-03
   0.11400000E+01           0.38386243E-03
   0.11500000E+01           0.32107584E-03
   0.11600000E+01           0.25961199E-03
   0.11700000E+01           0.20546737E-03
   0.11800000E+01           0.16481481E-03
   0.11900000E+01           0.13104056E-03
   0.12000000E+01           0.11543210E-03
   0.12100000E+01           0.92945326E-04
   0.12200000E+01           0.71428571E-04
   0.12300000E+01           0.62786596E-04
   0.12400000E+01           0.47354497E-04
   0.12500000E+01           0.38007055E-04
   0.12600000E+01           0.28042328E-04
   0.12700000E+01           0.21869489E-04
   0.12800000E+01           0.22134039E-04
   0.12900000E+01           0.14726631E-04
   0.13000000E+01           0.10317460E-04
   0.13100000E+01           0.88183422E-05
   0.13200000E+01           0.68783069E-05
   0.13300000E+01           0.67019400E-05
   0.13400000E+01           0.32627866E-05
   0.13500000E+01           0.39682540E-05
   0.13600000E+01           0.22045855E-05
   0.13700000E+01           0.27336861E-05
   0.13800000E+01           0.79365079E-06
   0.13900000E+01           0.97001764E-06
   0.14000000E+01           0.79365079E-06
   0.14100000E+01           0.70546737E-06
   0.14200000E+01           0.26455026E-06
   0.14300000E+01           0.44091711E-06
   0.14400000E+01           0.88183422E-07
   0.14500000E+01           0.17636684E-06
   0.14600000E+01           0.88183422E-07
   0.14700000E+01           0.00000000E+00
   0.14800000E+01           0.88183422E-07
   0.14900000E+01           0.17636684E-06
   0.15000000E+01           0.00000000E+00
   0.15100000E+01           0.88183422E-07
   0.15200000E+01           0.00000000E+00
   0.15300000E+01           0.00000000E+00
   0.15400000E+01           0.00000000E+00
   0.15500000E+01           0.00000000E+00
   0.15600000E+01           0.00000000E+00
   0.15700000E+01           0.00000000E+00
   0.15800000E+01           0.00000000E+00
   0.15900000E+01           0.00000000E+00
   0.16000000E+01           0.00000000E+00
   0.16100000E+01           0.00000000E+00
   0.16200000E+01           0.00000000E+00
   0.16300000E+01           0.00000000E+00
   0.16400000E+01           0.88183422E-07
   0.16500000E+01           0.00000000E+00
   0.16600000E+01           0.00000000E+00
   0.16700000E+01           0.00000000E+00
   0.16800000E+01           0.00000000E+00
   0.16900000E+01           0.00000000E+00
   0.17000000E+01           0.00000000E+00
   0.17100000E+01           0.00000000E+00
   0.17200000E+01           0.00000000E+00
   0.17300000E+01           0.00000000E+00
   0.17400000E+01           0.00000000E+00
   0.17500000E+01           0.00000000E+00
   0.17600000E+01           0.00000000E+00
   0.17700000E+01           0.00000000E+00
   0.17800000E+01           0.00000000E+00
   0.17900000E+01           0.00000000E+00
   0.18000000E+01           0.00000000E+00
   0.18100000E+01           0.00000000E+00
   0.18200000E+01           0.00000000E+00
   0.18300000E+01           0.00000000E+00
   0.18400000E+01           0.00000000E+00
   0.18500000E+01           0.00000000E+00
   0.18600000E+01           0.00000000E+00
   0.18700000E+01           0.00000000E+00
   0.18800000E+01           0.00000000E+00
   0.18900000E+01           0.00000000E+00
   0.19000000E+01           0.00000000E+00
   0.19100000E+01           0.00000000E+00
   0.19200000E+01           0.00000000E+00
   0.19300000E+01           0.00000000E+00
   0.19400000E+01           0.00000000E+00
   0.19500000E+01           0.00000000E+00
   0.19600000E+01           0.00000000E+00
   0.19700000E+01           0.00000000E+00
   0.19800000E+01           0.00000000E+00
   0.19900000E+01           0.00000000E+00
   0.20000000E+01           0.00000000E+00
 #T=     7.0000
  -0.20000000E+01           0.00000000E+00
  -0.19900000E+01           0.00000000E+00
  -0.19800000E+01           0.00000000E+00
  -0.19700000E+01           0.00000000E+00
  -0.19600000E+01           0.00000000E+00
  -0.19500000E+01           0.00000000E+00
  -0.19400000E+01           0.00000000E+00
  -0.19300000E+01           0.00000000E+00
  -0.19200000E+01           0.00000000E+00
  -0.19100000E+01           0.00000000E+00
  -0.19000000E+01           0.00000000E+00
  -0.18900000E+01           0.00000000E+00
  -0.18800000E+01           0.00000000E+00
  -0.18700000E+01           0.00000000E+00
  -0.18600000E+01           0.00000000E+00
  -0.18500000E+01           0.00000000E+00
  -0.18400000E+01           0.00000000E+00
  -0.18300000E+01           0.00000000E+00
  -0.18200000E+01           0.00000000E+00
  -0.18100000E+01           0.00000000E+00
  -0.18000000E+01           0.00000000E+00
  -0.17900000E+01           0.00000000E+00
  -0.17800000E+01           0.00000000E+00
  -0.17700000E+01           0.00000000E+00
  -0.17600000E+01           0.00000000E+00
  -0.17500000E+01           0.00000000E+00
  -0.17400000E+01           0.00000000E+00
  -0.17300000E+01           0.00000000E+00
  -0.17200000E+01           0.00000000E+00
  -0.17100000E+01           0.00000000E+00
  -0.17000000E+01           0.00000000E+00
  -0.16900000E+01           0.00000000E+00
  -0.16800000E+01           0.00000000E+00
  -0.16700000E+01           0.00000000E+00
  -0.16600000E+01           0.00000000E+00
  -0.16500000E+01           0.00000000E+00
  -0.16400000E+01           0.00000000E+00
  -0.16300000E+01           0.00000000E+00
  -0.16200000E+01           0.00000000E+00
  -0.16100000E+01           0.00000000E+00
  -0.16000000E+01           0.00000000E+00
  -0.15900000E+01           0.00000000E+00
  -0.15800000E+01           0.00000000E+00
  -0.15700000E+01           0.00000000E+00
  -0.15600000E+01           0.00000000E+00
  -0.15500000E+01           0.00000000E+00
  -0.15400000E+01           0.00000000E+00
  -0.15300000E+01           0.00000000E+00
  -0.15200000E+01           0.00000000E+00
  -0.15100000E+01           0.00000000E+00
  -0.15000000E+01           0.00000000E+00
  -0.14900000E+01           0.00000000E+00
  -0.14800000E+01           0.00000000E+00
  -0.14700000E+01           0.00000000E+00
  -0.14600000E+01           0.00000000E+00
  -0.14500000E+01           0.00000000E+00
  -0.14400000E+01           0.00000000E+00
  -0.14300000E+01           0.00000000E+00
  -0.14200000E+01           0.00000000E+00
  -0.14100000E+01           0.00000000E+00
  -0.14000000E+01           0.00000000E+00
  -0.13900000E+01           0.00000000E+00
  -0.13800000E+01           0.00000000E+00
  -0.13700000E+01           0.00000000E+00
  -0.13600000E+01           0.00000000E+00
  -0.13500000E+01           0.00000000E+00
  -0.13400000E+01           0.00000000E+00
  -0.13300000E+01           0.00000000E+00
  -0.13200000E+01           0.00000000E+00
  -0.13100000E+01           0.00000000E+00
  -0.13000000E+01           0.00000000E+00
  -0.12900000E+01           0.00000000E+00
  -0.12800000E+01           0.00000000E+00
  -0.12700000E+01           0.00000000E+00
  -0.12600000E+01           0.00000000E+00
  -0.12500000E+01           0.00000000E+00
  -0.12400000E+01           0.00000000E+00
  -0.12300000E+01           0.00000000E+00
  -0.12200000E+01           0.00000000E+00
  -0.12100000E+01           0.00000000E+00
  -0.12000000E+01           0.00000000E+00
  -0.11900000E+01           0.00000000E+00
  -0.11800000E+01           0.00000000E+00
  -0.11700000E+01           0.00000000E+00
  -0.11600000E+01           0.00000000E+00
  -0.11500000E+01           0.00000000E+00
  -0.11400000E+01           0.00000000E+00
  -0.11300000E+01           0.00000000E+00
  -0.11200000E+01           0.00000000E+00
  -0.11100000E+01           0.00000000E+00
  -0.11000000E+01           0.00000000E+00
  -0.10900000E+01           0.00000000E+00
  -0.10800000E+01           0.00000000E+00
  -0.10700000E+01           0.00000000E+00
  -0.10600000E+01           0.00000000E+00
  -0.10500000E+01           0.00000000E+00
  -0.10400000E+01           0.00000000E+00
  -0.10300000E+01           0.00000000E+00
  -0.10200000E+01           0.00000000E+00
  -0.10100000E+01           0.00000000E+00
  -0.10000000E+01           0.00000000E+00
  -0.99000000E+00           0.00000000E+00
  -0.98000000E+00           0.00000000E+00
  -0.97000000E+00           0.00000000E+00
  -0.96000000E+00           0.00000000E+00
  -0.95000000E+00           0.00000000E+00
  -0.94000000E+00           0.00000000E+00
  -0.93000000E+00           0.00000000E+00
  -0.92000000E+00           0.00000000E+00
  -0.91000000E+00           0.00000000E+00
  -0.90000000E+00           0.00000000E+00
  -0.89000000E+00           0.00000000E+00
  -0.88000000E+00           0.00000000E+00
  -0.87000000E+00           0.00000000E+00
  -0.86000000E+00           0.00000000E+00
  -0.85000000E+00           0.00000000E+00
  -0.84000000E+00           0.00000000E+00
  -0.83000000E+00           0.00000000E+00
  -0.82000000E+00           0.00000000E+00
  -0.81000000E+00           0.00000000E+00
  -0.80000000E+00           0.00000000E+00
  -0.79000000E+00           0.00000000E+00
  -0.78000000E+00           0.00000000E+00
  -0.77000000E+00           0.00000000E+00
  -0.76000000E+00           0.00000000E+00
  -0.75000000E+00           0.00000000E+00
  -0.74000000E+00           0.00000000E+00
  -0.73000000E+00           0.00000000E+00
  -0.72000000E+00           0.00000000E+00
  -0.71000000E+00           0.00000000E+00
  -0.70000000E+00           0.00000000E+00
  -0.69000000E+00           0.00000000E+00
  -0.68000000E+00           0.00000000E+00
  -0.67000000E+00           0.00000000E+00
  -0.66000000E+00           0.00000000E+00
  -0.65000000E+00           0.00000000E+00
  -0.64000000E+00           0.00000000E+00
  -0.63000000E+00           0.00000000E+00
  -0.62000000E+00           0.00000000E+00
  -0.61000000E+00           0.00000000E+00
  -0.60000000E+00           0.00000000E+00
  -0.59000000E+00           0.00000000E+00
  -0.58000000E+00           0.00000000E+00
  -0.57000000E+00           0.00000000E+00
  -0.56000000E+00           0.00000000E+00
  -0.55000000E+00           0.00000000E+00
  -0.54000000E+00           0.00000000E+00
  -0.53000000E+00           0.00000000E+00
  -0.52000000E+00           0.00000000E+00
  -0.51000000E+00           0.00000000E+00
  -0.50000000E+00           0.00000000E+00
  -0.49000000E+00           0.00000000E+00
  -0.48000000E+00           0.00000000E+00
  -0.47000000E+00           0.00000000E+00
  -0.46000000E+00           0.00000000E+00
  -0.45000000E+00           0.00000000E+00
  -0.44000000E+00           0.00000000E+00
  -0.43000000E+00           0.00000000E+00
  -0.42000000E+00           0.00000000E+00
  -0.41000000E+00           0.00000000E+00
  -0.40000000E+00           0.00000000E+00
  -0.39000000E+00           0.00000000E+00
  -0.38000000E+00           0.00000000E+00
  -0.37000000E+00           0.00000000E+00
  -0.36000000E+00           0.00000000E+00
  -0.35000000E+00           0.00000000E+00
  -0.34000000E+00           0.00000000E+00
  -0.33000000E+00           0.00000000E+00
  -0.32000000E+00           0.00000000E+00
  -0.31000000E+00           0.00000000E+00
  -0.30000000E+00           0.00000000E+00
  -0.29000000E+00           0.00000000E+00
  -0.28000000E+00           0.00000000E+00
  -0.27000000E+00           0.00000000E+00
  -0.26000000E+00           0.00000000E+00
  -0.25000000E+00           0.00000000E+00
  -0.24000000E+00           0.00000000E+00
  -0.23000000E+00           0.00000000E+00
  -0.22000000E+00           0.00000000E+00
  -0.21000000E+00           0.00000000E+00
  -0.20000000E+00           0.00000000E+00
  -0.19000000E+00           0.00000000E+00
  -0.18000000E+00           0.00000000E+00
  -0.17000000E+00           0.00000000E+00
  -0.16000000E+00           0.00000000E+00
  -0.15000000E+00           0.00000000E+00
  -0.14000000E+00           0.00000000E+00
  -0.13000000E+00           0.00000000E+00
  -0.12000000E+00           0.00000000E+00
  -0.11000000E+00           0.00000000E+00
  -0.10000000E+00           0.00000000E+00
  -0.90000000E-01           0.00000000E+00
  -0.80000000E-01           0.00000000E+00
  -0.70000000E-01           0.00000000E+00
  -0.60000000E-01           0.00000000E+00
  -0.50000000E-01           0.00000000E+00
  -0.40000000E-01           0.00000000E+00
  -0.30000000E-01           0.00000000E+00
  -0.20000000E-01           0.00000000E+00
  -0.10000000E-01           0.00000000E+00
   0.00000000E+00           0.16653351E-01
   0.10000000E-01           0.13160282E+00
   0.20000000E-01           0.26419630E+00
   0.30000000E-01           0.39430026E+00
   0.40000000E-01           0.52375529E+00
   0.50000000E-01           0.65239268E+00
   0.60000000E-01           0.77598527E+00
   0.70000000E-01           0.89672240E+00
   0.80000000E-01           0.10155314E+01
   0.90000000E-01           0.11282080E+01
   0.10000000E+00           0.12403067E+01
   0.11000000E+00           0.13444105E+01
   0.12000000E+00           0.14462739E+01
   0.13000000E+00           0.15409881E+01
   0.14000000E+00           0.16294077E+01
   0.15000000E+00           0.17140405E+01
   0.16000000E+00           0.17916025E+01
   0.17000000E+00           0.18636802E+01
   0.18000000E+00           0.19276086E+01
   0.19000000E+00           0.19851413E+01
   0.20000000E+00           0.20377106E+01
   0.21000000E+00           0.20825026E+01
   0.22000000E+00           0.21217782E+01
   0.23000000E+00           0.21521050E+01
   0.24000000E+00           0.21799986E+01
   0.25000000E+00           0.21994723E+01
   0.26000000E+00           0.22100560E+01
   0.27000000E+00           0.22183482E+01
   0.28000000E+00           0.22194445E+01
   0.29000000E+00           0.22131611E+01
   0.30000000E+00           0.22027489E+01
   0.31000000E+00           0.21847948E+01
   0.32000000E+00           0.21653772E+01
   0.33000000E+00           0.21399113E+01
   0.34000000E+00           0.21090385E+01
   0.35000000E+00           0.20743085E+01
   0.36000000E+00           0.20373198E+01
   0.37000000E+00           0.19933768E+01
   0.38000000E+00           0.19503489E+01
   0.39000000E+00           0.19016813E+01
   0.40000000E+00           0.18515306E+01
   0.41000000E+00           0.17983029E+01
   0.42000000E+00           0.17437944E+01
   0.43000000E+00           0.16888560E+01
   0.44000000E+00           0.16287082E+01
   0.45000000E+00           0.15701028E+01
   0.46000000E+00           0.15110086E+01
   0.47000000E+00           0.14512938E+01
   0.48000000E+00           0.13913903E+01
   0.49000000E+00           0.13309439E+01
   0.50000000E+00           0.12713326E+01
   0.51000000E+00           0.12121952E+01
   0.52000000E+00           0.11526422E+01
   0.53000000E+00           0.10957730E+01
   0.54000000E+00           0.10382939E+01
   0.55000000E+00           0.98442628E+00
   0.56000000E+00           0.93017549E+00
   0.57000000E+00           0.87672513E+00
   0.58000000E+00           0.82515106E+00
   0.59000000E+00           0.77612910E+00
   0.60000000E+00           0.72813510E+00
   0.61000000E+00           0.68145935E+00
   0.62000000E+00           0.63730097E+00
   0.63000000E+00           0.59690485E+00
   0.64000000E+00           0.55440926E+00
   0.65000000E+00           0.51676182E+00
   0.66000000E+00           0.47942249E+00
   0.67000000E+00           0.44421790E+00
   0.68000000E+00           0.41203263E+00
   0.69000000E+00           0.38052160E+00
   0.70000000E+00           0.35069885E+00
   0.71000000E+00           0.32295882E+00
   0.72000000E+00           0.29697152E+00
   0.73000000E+00           0.27182319E+00
   0.74000000E+00           0.24941852E+00
   0.75000000E+00           0.22788069E+00
   0.76000000E+00           0.20775326E+00
   0.77000000E+00           0.18984559E+00
   0.78000000E+00           0.17277037E+00
   0.79000000E+00           0.15624303E+00
   0.80000000E+00           0.14182840E+00
   0.81000000E+00           0.12776314E+00
   0.82000000E+00           0.11570741E+00
   0.83000000E+00           0.10432443E+00
   0.84000000E+00           0.94035979E-01
   0.85000000E+00           0.84376279E-01
   0.86000000E+00           0.75869048E-01
   0.87000000E+00           0.67559083E-01
   0.88000000E+00           0.60177337E-01
   0.89000000E+00           0.53789771E-01
   0.90000000E+00           0.48082099E-01
   0.91000000E+00           0.42736596E-01
   0.92000000E+00           0.37780952E-01
   0.93000000E+00           0.33457760E-01
   0.94000000E+00           0.29592416E-01
   0.95000000E+00           0.26205203E-01
   0.96000000E+00           0.22993563E-01
   0.97000000E+00           0.20212434E-01
   0.98000000E+00           0.17732628E-01
   0.99000000E+00           0.15468254E-01
   0.10000000E+01           0.13523986E-01
   0.10100000E+01           0.11768166E-01
   0.10200000E+01           0.10254056E-01
   0.10300000E+01           0.89337743E-02
   0.10400000E+01           0.77054674E-02
   0.10500000E+01           0.66502646E-02
   0.10600000E+01           0.57972663E-02
   0.10700000E+01           0.49867725E-02
   0.10800000E+01           0.42360670E-02
   0.10900000E+01           0.36661376E-02
   0.11000000E+01           0.31357143E-02
   0.11100000E+01           0.26780423E-02
   0.11200000E+01           0.23154321E-02
   0.11300000E+01           0.19374780E-02
   0.11400000E+01           0.16526455E-02
   0.11500000E+01           0.14020282E-02
   0.11600000E+01           0.11611111E-02
   0.11700000E+01           0.10074074E-02
   0.11800000E+01           0.82328042E-03
   0.11900000E+01           0.70970018E-03
   0.12000000E+01           0.59215168E-03
   0.12100000E+01           0.48809524E-03
   0.12200000E+01           0.40017637E-03
   0.12300000E+01           0.35088183E-03
   0.12400000E+01           0.27742504E-03
   0.12500000E+01           0.23562610E-03
   0.12600000E+01           0.19356261E-03
   0.12700000E+01           0.15802469E-03
   0.12800000E+01           0.12786596E-03
   0.12900000E+01           0.10529101E-03
   0.13000000E+01           0.84126984E-04
   0.13100000E+01           0.75220459E-04
   0.13200000E+01           0.53086420E-04
   0.13300000E+01           0.43121693E-04
   0.13400000E+01           0.37477954E-04
   0.13500000E+01           0.31040564E-04
   0.13600000E+01           0.22839506E-04
   0.13700000E+01           0.17636684E-04
   0.13800000E+01           0.14726631E-04
   0.13900000E+01           0.13403880E-04
   0.14000000E+01           0.98765432E-05
   0.14100000E+01           0.68783069E-05
   0.14200000E+01           0.60846561E-05
   0.14300000E+01           0.47619048E-05
   0.14400000E+01           0.24691358E-05
   0.14500000E+01           0.44973545E-05
   0.14600000E+01           0.15873016E-05
   0.14700000E+01           0.18518519E-05
   0.14800000E+01           0.88183422E-06
   0.14900000E+01           0.14991182E-05
   0.15000000E+01           0.61728395E-06
   0.15100000E+01           0.52910053E-06
   0.15200000E+01           0.70546737E-06
   0.15300000E+01           0.70546737E-06
   0.15400000E+01           0.35273369E-06
   0.15500000E+01           0.52910053E-06
   0.15600000E+01           0.88183422E-07
   0.15700000E+01           0.88183422E-07
   0.15800000E+01           0.17636684E-06
   0.15900000E+01           0.00000000E+00
   0.16000000E+01           0.00000000E+00
   0.16100000E+01           0.00000000E+00
   0.16200000E+01           0.17636684E-06
   0.16300000E+01           0.00000000E+00
   0.16400000E+01           0.00000000E+00
   0.16500000E+01           0.00000000E+00
   0.16600000E+01           0.00000000E+00
   0.16700000E+01           0.00000000E+00
   0.16800000E+01           0.00000000E+00
   0.16900000E+01           0.00000000E+00
   0.17000000E+01           0.00000000E+00
   0.17100000E+01           0.00000000E+00
   0.17200000E+01           0.00000000E+00
   0.17300000E+01           0.00000000E+00
   0.17400000E+01           0.00000000E+00
   0.17500000E+01           0.00000000E+00
   0.17600000E+01           0.00000000E+00
   0.17700000E+01           0.00000000E+00
   0.17800000E+01           0.00000000E+00
   0.17900000E+01           0.00000000E+00
   0.18000000E+01           0.00000000E+00
   0.18100000E+01           0.00000000E+00
   0.18200000E+01           0.00000000E+00
   0.18300000E+01           0.00000000E+00
   0.18400000E+01           0.00000000E+00
   0.18500000E+01           0.00000000E+00
   0.18600000E+01           0.00000000E+00
   0.18700000E+01           0.00000000E+00
   0.18800000E+01           0.00000000E+00
   0.18900000E+01           0.00000000E+00
   0.19000000E+01           0.00000000E+00
   0.19100000E+01           0.00000000E+00
   0.19200000E+01           0.00000000E+00
   0.19300000E+01           0.00000000E+00
   0.19400000E+01           0.00000000E+00
   0.19500000E+01           0.00000000E+00
   0.19600000E+01           0.00000000E+00
   0.19700000E+01           0.00000000E+00
   0.19800000E+01           0.00000000E+00
   0.19900000E+01           0.00000000E+00
   0.20000000E+01           0.00000000E+00
 #T=     8.0000
  -0.20000000E+01           0.00000000E+00
  -0.19900000E+01           0.00000000E+00
  -0.19800000E+01           0.00000000E+00
  -0.19700000E+01           0.00000000E+00
  -0.19600000E+01           0.00000000E+00
  -0.19500000E+01           0.00000000E+00
  -0.19400000E+01           0.00000000E+00
  -0.19300000E+01           0.00000000E+00
  -0.19200000E+01           0.00000000E+00
  -0.19100000E+01           0.00000000E+00
  -0.19000000E+01           0.00000000E+00
  -0.18900000E+01           0.00000000E+00
  -0.18800000E+01           0.00000000E+00
  -0.18700000E+01           0.00000000E+00
  -0.18600000E+01           0.00000000E+00
  -0.18500000E+01           0.00000000E+00
  -0.18400000E+01           0.00000000E+00
  -0.18300000E+01           0.00000000E+00
  -0.18200000E+01           0.00000000E+00
  -0.18100000E+01           0.00000000E+00
  -0.18000000E+01           0.00000000E+00
  -0.17900000E+01           0.00000000E+00
  -0.17800000E+01           0.00000000E+00
  -0.17700000E+01           0.00000000E+00
  -0.17600000E+01           0.00000000E+00
  -0.17500000E+01           0.00000000E+00
  -0.17400000E+01           0.00000000E+00
  -0.17300000E+01           0.00000000E+00
  -0.17200000E+01           0.00000000E+00
  -0.17100000E+01           0.00000000E+00
  -0.17000000E+01           0.00000000E+00
  -0.16900000E+01           0.00000000E+00
  -0.16800000E+01           0.00000000E+00
  -0.16700000E+01           0.00000000E+00
  -0.16600000E+01           0.00000000E+00
  -0.16500000E+01           0.00000000E+00
  -0.16400000E+01           0.00000000E+00
  -0.16300000E+01           0.00000000E+00
  -0.16200000E+01           0.00000000E+00
  -0.16100000E+01           0.00000000E+00
  -0.16000000E+01           0.00000000E+00
  -0.15900000E+01           0.00000000E+00
  -0.15800000E+01           0.00000000E+00
  -0.15700000E+01           0.00000000E+00
  -0.15600000E+01           0.00000000E+00
  -0.15500000E+01           0.00000000E+00
  -0.15400000E+01           0.00000000E+00
  -0.15300000E+01           0.00000000E+00
  -0.15200000E+01           0.00000000E+00
  -0.15100000E+01           0.00000000E+00
  -0.15000000E+01           0.00000000E+00
  -0.14900000E+01           0.00000000E+00
  -0.14800000E+01           0.00000000E+00
  -0.14700000E+01           0.00000000E+00
  -0.14600000E+01           0.00000000E+00
  -0.14500000E+01           0.00000000E+00
  -0.14400000E+01           0.00000000E+00
  -0.14300000E+01           0.00000000E+00
  -0.14200000E+01           0.00000000E+00
  -0.14100000E+01           0.00000000E+00
  -0.14000000E+01           0.00000000E+00
  -0.13900000E+01           0.00000000E+00
  -0.13800000E+01           0.00000000E+00
  -0.13700000E+01           0.00000000E+00
  -0.13600000E+01           0.00000000E+00
  -0.13500000E+01           0.00000000E+00
  -0.13400000E+01           0.00000000E+00
  -0.13300000E+01           0.00000000E+00
  -0.13200000E+01           0.00000000E+00
  -0.13100000E+01           0.00000000E+00
  -0.13000000E+01           0.00000000E+00
  -0.12900000E+01           0.00000000E+00
  -0.12800000E+01           0.00000000E+00
  -0.12700000E+01           0.00000000E+00
  -0.12600000E+01           0.00000000E+00
  -0.12500000E+01           0.00000000E+00
  -0.12400000E+01           0.00000000E+00
  -0.12300000E+01           0.00000000E+00
  -0.12200000E+01           0.00000000E+00
  -0.12100000E+01           0.00000000E+00
  -0.12000000E+01           0.00000000E+00
  -0.11900000E+01           0.00000000E+00
  -0.11800000E+01           0.00000000E+00
  -0.11700000E+01           0.00000000E+00
  -0.11600000E+01           0.00000000E+00
  -0.11500000E+01           0.00000000E+00
  -0.11400000E+01           0.00000000E+00
  -0.11300000E+01           0.00000000E+00
  -0.11200000E+01           0.00000000E+00
  -0.11100000E+01           0.00000000E+00
  -0.11000000E+01           0.00000000E+00
  -0.10900000E+01           0.00000000E+00
  -0.10800000E+01           0.00000000E+00
  -0.10700000E+01           0.00000000E+00
  -0.10600000E+01           0.00000000E+00
  -0.10500000E+01           0.00000000E+00
  -0.10400000E+01           0.00000000E+00
  -0.10300000E+01           0.00000000E+00
  -0.10200000E+01           0.00000000E+00
  -0.10100000E+01           0.00000000E+00
  -0.10000000E+01           0.00000000E+00
  -0.99000000E+00           0.00000000E+00
  -0.98000000E+00           0.00000000E+00
  -0.97000000E+00           0.00000000E+00
  -0.96000000E+00           0.00000000E+00
  -0.95000000E+00           0.00000000E+00
  -0.94000000E+00           0.00000000E+00
  -0.93000000E+00           0.00000000E+00
  -0.92000000E+00           0.00000000E+00
  -0.91000000E+00           0.00000000E+00
  -0.90000000E+00           0.00000000E+00
  -0.89000000E+00           0.00000000E+00
  -0.88000000E+00           0.00000000E+00
  -0.87000000E+00           0.00000000E+00
  -0.86000000E+00           0.00000000E+00
  -0.85000000E+00           0.00000000E+00
  -0.84000000E+00           0.00000000E+00
  -0.83000000E+00           0.00000000E+00
  -0.82000000E+00           0.00000000E+00
  -0.81000000E+00           0.00000000E+00
  -0.80000000E+00           0.00000000E+00
  -0.79000000E+00           0.00000000E+00
  -0.78000000E+00           0.00000000E+00
  -0.77000000E+00           0.00000000E+00
  -0.76000000E+00           0.00000000E+00
  -0.75000000E+00           0.00000000E+00
  -0.74000000E+00           0.00000000E+00
  -0.73000000E+00           0.00000000E+00
  -0.72000000E+00           0.00000000E+00
  -0.71000000E+00           0.00000000E+00
  -0.70000000E+00           0.00000000E+00
  -0.69000000E+00           0.00000000E+00
  -0.68000000E+00           0.00000000E+00
  -0.67000000E+00           0.00000000E+00
  -0.66000000E+00           0.00000000E+00
  -0.65000000E+00           0.00000000E+00
  -0.64000000E+00           0.00000000E+00
  -0.63000000E+00           0.00000000E+00
  -0.62000000E+00           0.00000000E+00
  -0.61000000E+00           0.00000000E+00
  -0.60000000E+00           0.00000000E+00
  -0.59000000E+00           0.00000000E+00
  -0.58000000E+00           0.00000000E+00
  -0.57000000E+00           0.00000000E+00
  -0.56000000E+00           0.00000000E+00
  -0.55000000E+00           0.00000000E+00
  -0.54000000E+00           0.00000000E+00
  -0.53000000E+00           0.00000000E+00
  -0.52000000E+00           0.00000000E+00
  -0.51000000E+00           0.00000000E+00
  -0.50000000E+00           0.00000000E+00
  -0.49000000E+00           0.00000000E+00
  -0.48000000E+00           0.00000000E+00
  -0.47000000E+00           0.00000000E+00
  -0.46000000E+00           0.00000000E+00
  -0.45000000E+00           0.00000000E+00
  -0.44000000E+00           0.00000000E+00
  -0.43000000E+00           0.00000000E+00
  -0.42000000E+00           0.00000000E+00
  -0.41000000E+00           0.00000000E+00
  -0.40000000E+00           0.00000000E+00
  -0.39000000E+00           0.00000000E+00
  -0.38000000E+00           0.00000000E+00
  -0.37000000E+00           0.00000000E+00
  -0.36000000E+00           0.00000000E+00
  -0.35000000E+00           0.00000000E+00
  -0.34000000E+00           0.00000000E+00
  -0.33000000E+00           0.00000000E+00
  -0.32000000E+00           0.00000000E+00
  -0.31000000E+00           0.00000000E+00
  -0.30000000E+00           0.00000000E+00
  -0.29000000E+00           0.00000000E+00
  -0.28000000E+00           0.00000000E+00
  -0.27000000E+00           0.00000000E+00
  -0.26000000E+00           0.00000000E+00
  -0.25000000E+00           0.00000000E+00
  -0.24000000E+00           0.00000000E+00
  -0.23000000E+00           0.00000000E+00
  -0.22000000E+00           0.00000000E+00
  -0.21000000E+00           0.00000000E+00
  -0.20000000E+00           0.00000000E+00
  -0.19000000E+00           0.00000000E+00
  -0.18000000E+00           0.00000000E+00
  -0.17000000E+00           0.00000000E+00
  -0.16000000E+00           0.00000000E+00
  -0.15000000E+00           0.00000000E+00
  -0.14000000E+00           0.00000000E+00
  -0.13000000E+00           0.00000000E+00
  -0.12000000E+00           0.00000000E+00
  -0.11000000E+00           0.00000000E+00
  -0.10000000E+00           0.00000000E+00
  -0.90000000E-01           0.00000000E+00
  -0.80000000E-01           0.00000000E+00
  -0.70000000E-01           0.00000000E+00
  -0.60000000E-01           0.00000000E+00
  -0.50000000E-01           0.00000000E+00
  -0.40000000E-01           0.00000000E+00
  -0.30000000E-01           0.00000000E+00
  -0.20000000E-01           0.00000000E+00
  -0.10000000E-01           0.00000000E+00
   0.00000000E+00           0.14450794E-01
   0.10000000E-01           0.11488457E+00
   0.20000000E-01           0.22944788E+00
   0.30000000E-01           0.34313801E+00
   0.40000000E-01           0.45689832E+00
   0.50000000E-01           0.56721561E+00
   0.60000000E-01           0.67823483E+00
   0.70000000E-01           0.78306817E+00
   0.80000000E-01           0.88703545E+00
   0.90000000E-01           0.98795176E+00
   0.10000000E+00           0.10863571E+01
   0.11000000E+00           0.11817323E+01
   0.12000000E+00           0.12728248E+01
   0.13000000E+00           0.13583144E+01
   0.14000000E+00           0.14429624E+01
   0.15000000E+00           0.15199881E+01
   0.16000000E+00           0.15935951E+01
   0.17000000E+00           0.16615302E+01
   0.18000000E+00           0.17237243E+01
   0.19000000E+00           0.17828298E+01
   0.20000000E+00           0.18354392E+01
   0.21000000E+00           0.18819235E+01
   0.22000000E+00           0.19233661E+01
   0.23000000E+00           0.19614228E+01
   0.24000000E+00           0.19941525E+01
   0.25000000E+00           0.20194762E+01
   0.26000000E+00           0.20369285E+01
   0.27000000E+00           0.20545945E+01
   0.28000000E+00           0.20654389E+01
   0.29000000E+00           0.20700444E+01
   0.30000000E+00           0.20705149E+01
   0.31000000E+00           0.20659042E+01
   0.32000000E+00           0.20577966E+01
   0.33000000E+00           0.20451608E+01
   0.34000000E+00           0.20269545E+01
   0.35000000E+00           0.20084617E+01
   0.36000000E+00           0.19821508E+01
   0.37000000E+00           0.19546196E+01
   0.38000000E+00           0.19225401E+01
   0.39000000E+00           0.18867991E+01
   0.40000000E+00           0.18498095E+01
   0.41000000E+00           0.18102720E+01
   0.42000000E+00           0.17671531E+01
   0.43000000E+00           0.17215264E+01
   0.44000000E+00           0.16772612E+01
   0.45000000E+00           0.16303295E+01
   0.46000000E+00           0.15815647E+01
   0.47000000E+00           0.15308679E+01
   0.48000000E+00           0.14797198E+01
   0.49000000E+00           0.14266583E+01
   0.50000000E+00           0.13759002E+01
   0.51000000E+00           0.13228042E+01
   0.52000000E+00           0.12709143E+01
   0.53000000E+00           0.12174958E+01
   0.54000000E+00           0.11656257E+01
   0.55000000E+00           0.11151657E+01
   0.56000000E+00           0.10640951E+01
   0.57000000E+00           0.10138213E+01
   0.58000000E+00           0.96535944E+00
   0.59000000E+00           0.91638589E+00
   0.60000000E+00           0.86827152E+00
   0.61000000E+00           0.82300750E+00
   0.62000000E+00           0.77863095E+00
   0.63000000E+00           0.73510653E+00
   0.64000000E+00           0.69254656E+00
   0.65000000E+00           0.65094797E+00
   0.66000000E+00           0.61262319E+00
   0.67000000E+00           0.57419621E+00
   0.68000000E+00           0.53851728E+00
   0.69000000E+00           0.50382116E+00
   0.70000000E+00           0.47016032E+00
   0.71000000E+00           0.43848360E+00
   0.72000000E+00           0.40838695E+00
   0.73000000E+00           0.37956032E+00
   0.74000000E+00           0.35204233E+00
   0.75000000E+00           0.32643907E+00
   0.76000000E+00           0.30252593E+00
   0.77000000E+00           0.27916614E+00
   0.78000000E+00           0.25782751E+00
   0.79000000E+00           0.23727663E+00
   0.80000000E+00           0.21841825E+00
   0.81000000E+00           0.20034638E+00
   0.82000000E+00           0.18391658E+00
   0.83000000E+00           0.16811578E+00
   0.84000000E+00           0.15412337E+00
   0.85000000E+00           0.14051843E+00
   0.86000000E+00           0.12780882E+00
   0.87000000E+00           0.11638360E+00
   0.88000000E+00           0.10546490E+00
   0.89000000E+00           0.95829541E-01
   0.90000000E+00           0.86862434E-01
   0.91000000E+00           0.78461199E-01
   0.92000000E+00           0.71016049E-01
   0.93000000E+00           0.63696473E-01
   0.94000000E+00           0.57224427E-01
   0.95000000E+00           0.51474427E-01
   0.96000000E+00           0.46078571E-01
   0.97000000E+00           0.41493827E-01
   0.98000000E+00           0.36946032E-01
   0.99000000E+00           0.32910935E-01
   0.10000000E+01           0.29459788E-01
   0.10100000E+01           0.26044974E-01
   0.10200000E+01           0.23054321E-01
   0.10300000E+01           0.20400794E-01
   0.10400000E+01           0.18058642E-01
   0.10500000E+01           0.15932011E-01
   0.10600000E+01           0.14144974E-01
   0.10700000E+01           0.12352734E-01
   0.10800000E+01           0.10947972E-01
   0.10900000E+01           0.94972663E-02
   0.11000000E+01           0.83767196E-02
   0.11100000E+01           0.72621693E-02
   0.11200000E+01           0.63365079E-02
   0.11300000E+01           0.54647266E-02
   0.11400000E+01           0.47926808E-02
   0.11500000E+01           0.41882716E-02
   0.11600000E+01           0.35767196E-02
   0.11700000E+01           0.31006173E-02
   0.11800000E+01           0.26455026E-02
   0.11900000E+01           0.23236332E-02
   0.12000000E+01           0.19623457E-02
   0.12100000E+01           0.16824515E-02
   0.12200000E+01           0.14492063E-02
   0.12300000E+01           0.12103175E-02
   0.12400000E+01           0.10248677E-02
   0.12500000E+01           0.89047619E-03
   0.12600000E+01           0.75220459E-03
   0.12700000E+01           0.64682540E-03
   0.12800000E+01           0.54171076E-03
   0.12900000E+01           0.44885362E-03
   0.13000000E+01           0.38342152E-03
   0.13100000E+01           0.31613757E-03
   0.13200000E+01           0.26067019E-03
   0.13300000E+01           0.22636684E-03
   0.13400000E+01           0.18783069E-03
   0.13500000E+01           0.15079365E-03
   0.13600000E+01           0.12389771E-03
   0.13700000E+01           0.10264550E-03
   0.13800000E+01           0.82539683E-04
   0.13900000E+01           0.71252205E-04
   0.14000000E+01           0.58024691E-04
   0.14100000E+01           0.47971781E-04
   0.14200000E+01           0.37654321E-04
   0.14300000E+01           0.31040564E-04
   0.14400000E+01           0.24514991E-04
   0.14500000E+01           0.18518519E-04
   0.14600000E+01           0.14726631E-04
   0.14700000E+01           0.12962963E-04
   0.14800000E+01           0.10758377E-04
   0.14900000E+01           0.77601411E-05
   0.15000000E+01           0.55555556E-05
   0.15100000E+01           0.52028219E-05
   0.15200000E+01           0.42328042E-05
   0.15300000E+01           0.29100529E-05
   0.15400000E+01           0.33509700E-05
   0.15500000E+01           0.14991182E-05
   0.15600000E+01           0.17636684E-05
   0.15700000E+01           0.97001764E-06
   0.15800000E+01           0.97001764E-06
   0.15900000E+01           0.61728395E-06
   0.16000000E+01           0.52910053E-06
   0.16100000E+01           0.44091711E-06
   0.16200000E+01           0.17636684E-06
   0.16300000E+01           0.26455026E-06
   0.16400000E+01           0.35273369E-06
   0.16500000E+01           0.17636684E-06
   0.16600000E+01           0.00000000E+00
   0.16700000E+01           0.26455026E-06
   0.16800000E+01           0.00000000E+00
   0.16900000E+01           0.00000000E+00
   0.17000000E+01           0.00000000E+00
   0.17100000E+01           0.00000000E+00
   0.17200000E+01           0.00000000E+00
   0.17300000E+01           0.88183422E-07
   0.17400000E+01           0.88183422E-07
   0.17500000E+01           0.17636684E-06
   0.17600000E+01           0.00000000E+00
   0.17700000E+01           0.00000000E+00
   0.17800000E+01           0.00000000E+00
   0.17900000E+01           0.00000000E+00
   0.18000000E+01           0.00000000E+00
   0.18100000E+01           0.00000000E+00
   0.18200000E+01           0.00000000E+00
   0.18300000E+01           0.00000000E+00
   0.18400000E+01           0.00000000E+00
   0.18500000E+01           0.00000000E+00
   0.18600000E+01           0.00000000E+00
   0.18700000E+01           0.00000000E+00
   0.18800000E+01           0.00000000E+00
   0.18900000E+01           0.00000000E+00
   0.19000000E+01           0.00000000E+00
   0.19100000E+01           0.00000000E+00
   0.19200000E+01           0.00000000E+00
   0.19300000E+01           0.00000000E+00
   0.19400000E+01           0.00000000E+00
   0.19500000E+01           0.00000000E+00
   0.19600000E+01           0.00000000E+00
   0.19700000E+01           0.00000000E+00
   0.19800000E+01           0.00000000E+00
   0.19900000E+01           0.00000000E+00
   0.20000000E+01           0.00000000E+00
 #T=     9.0000
  -0.20000000E+01           0.00000000E+00
  -0.19900000E+01           0.00000000E+00
  -0.19800000E+01           0.00000000E+00
  -0.19700000E+01           0.00000000E+00
  -0.19600000E+01           0.00000000E+00
  -0.19500000E+01           0.00000000E+00
  -0.19400000E+01           0.00000000E+00
  -0.19300000E+01           0.00000000E+00
  -0.19200000E+01           0.00000000E+00
  -0.19100000E+01           0.00000000E+00
  -0.19000000E+01           0.00000000E+00
  -0.18900000E+01           0.00000000E+00
  -0.18800000E+01           0.00000000E+00
  -0.18700000E+01           0.00000000E+00
  -0.18600000E+01           0.00000000E+00
  -0.18500000E+01           0.00000000E+00
  -0.18400000E+01           0.00000000E+00
  -0.18300000E+01           0.00000000E+00
  -0.18200000E+01           0.00000000E+00
  -0.18100000E+01           0.00000000E+00
  -0.18000000E+01           0.00000000E+00
  -0.17900000E+01           0.00000000E+00
  -0.17800000E+01           0.00000000E+00
  -0.17700000E+01           0.00000000E+00
  -0.17600000E+01           0.00000000E+00
  -0.17500000E+01           0.00000000E+00
  -0.17400000E+01           0.00000000E+00
  -0.17300000E+01           0.00000000E+00
  -0.17200000E+01           0.00000000E+00
  -0.17100000E+01           0.00000000E+00
  -0.17000000E+01           0.00000000E+00
  -0.16900000E+01           0.00000000E+00
  -0.16800000E+01           0.00000000E+00
  -0.16700000E+01           0.00000000E+00
  -0.16600000E+01           0.00000000E+00
  -0.16500000E+01           0.00000000E+00
  -0.16400000E+01           0.00000000E+00
  -0.16300000E+01           0.00000000E+00
  -0.16200000E+01           0.00000000E+00
  -0.16100000E+01           0.00000000E+00
  -0.16000000E+01           0.00000000E+00
  -0.15900000E+01           0.00000000E+00
  -0.15800000E+01           0.00000000E+00
  -0.15700000E+01           0.00000000E+00
  -0.15600000E+01           0.00000000E+00
  -0.15500000E+01           0.00000000E+00
  -0.15400000E+01           0.00000000E+00
  -0.15300000E+01           0.00000000E+00
  -0.15200000E+01           0.00000000E+00
  -0.15100000E+01           0.00000000E+00
  -0.15000000E+01           0.00000000E+00
  -0.14900000E+01           0.00000000E+00
  -0.14800000E+01           0.00000000E+00
  -0.14700000E+01           0.00000000E+00
  -0.14600000E+01           0.00000000E+00
  -0.14500000E+01           0.00000000E+00
  -0.14400000E+01           0.00000000E+00
  -0.14300000E+01           0.00000000E+00
  -0.14200000E+01           0.00000000E+00
  -0.14100000E+01           0.00000000E+00
  -0.14000000E+01           0.00000000E+00
  -0.13900000E+01           0.00000000E+00
  -0.13800000E+01           0.00000000E+00
  -0.13700000E+01           0.00000000E+00
  -0.13600000E+01           0.00000000E+00
  -0.13500000E+01           0.00000000E+00
  -0.13400000E+01           0.00000000E+00
  -0.13300000E+01           0.00000000E+00
  -0.13200000E+01           0.00000000E+00
  -0.13100000E+01           0.00000000E+00
  -0.13000000E+01           0.00000000E+00
  -0.12900000E+01           0.00000000E+00
  -0.12800000E+01           0.00000000E+00
  -0.12700000E+01           0.00000000E+00
  -0.12600000E+01           0.00000000E+00
  -0.12500000E+01           0.00000000E+00
  -0.12400000E+01           0.00000000E+00
  -0.12300000E+01           0.00000000E+00
  -0.12200000E+01           0.00000000E+00
  -0.12100000E+01           0.00000000E+00
  -0.12000000E+01           0.00000000E+00
  -0.11900000E+01           0.00000000E+00
  -0.11800000E+01           0.00000000E+00
  -0.11700000E+01           0.00000000E+00
  -0.11600000E+01           0.00000000E+00
  -0.11500000E+01           0.00000000E+00
  -0.11400000E+01           0.00000000E+00
  -0.11300000E+01           0.00000000E+00
  -0.11200000E+01           0.00000000E+00
  -0.11100000E+01           0.00000000E+00
  -0.11000000E+01           0.00000000E+00
  -0.10900000E+01           0.00000000E+00
  -0.10800000E+01           0.00000000E+00
  -0.10700000E+01           0.00000000E+00
  -0.10600000E+01           0.00000000E+00
  -0.10500000E+01           0.00000000E+00
  -0.10400000E+01           0.00000000E+00
  -0.10300000E+01           0.00000000E+00
  -0.10200000E+01           0.00000000E+00
  -0.10100000E+01           0.00000000E+00
  -0.10000000E+01           0.00000000E+00
  -0.99000000E+00           0.00000000E+00
  -0.98000000E+00           0.00000000E+00
  -0.97000000E+00           0.00000000E+00
  -0.96000000E+00           0.00000000E+00
  -0.95000000E+00           0.00000000E+00
  -0.94000000E+00           0.00000000E+00
  -0.93000000E+00           0.00000000E+00
  -0.92000000E+00           0.00000000E+00
  -0.91000000E+00           0.00000000E+00
  -0.90000000E+00           0.00000000E+00
  -0.89000000E+00           0.00000000E+00
  -0.88000000E+00           0.00000000E+00
  -0.87000000E+00           0.00000000E+00
  -0.86000000E+00           0.00000000E+00
  -0.85000000E+00           0.00000000E+00
  -0.84000000E+00           0.00000000E+00
  -0.83000000E+00           0.00000000E+00
  -0.82000000E+00           0.00000000E+00
  -0.81000000E+00           0.00000000E+00
  -0.80000000E+00           0.00000000E+00
  -0.79000000E+00           0.00000000E+00
  -0.78000000E+00           0.00000000E+00
  -0.77000000E+00           0.00000000E+00
  -0.76000000E+00           0.00000000E+00
  -0.75000000E+00           0.00000000E+00
  -0.74000000E+00           0.00000000E+00
  -0.73000000E+00           0.00000000E+00
  -0.72000000E+00           0.00000000E+00
  -0.71000000E+00           0.00000000E+00
  -0.70000000E+00           0.00000000E+00
  -0.69000000E+00           0.00000000E+00
  -0.68000000E+00           0.00000000E+00
  -0.67000000E+00           0.00000000E+00
  -0.66000000E+00           0.00000000E+00
  -0.65000000E+00           0.00000000E+00
  -0.64000000E+00           0.00000000E+00
  -0.63000000E+00           0.00000000E+00
  -0.62000000E+00           0.00000000E+00
  -0.61000000E+00           0.00000000E+00
  -0.60000000E+00           0.00000000E+00
  -0.59000000E+00           0.00000000E+00
  -0.58000000E+00           0.00000000E+00
  -0.57000000E+00           0.00000000E+00
  -0.56000000E+00           0.00000000E+00
  -0.55000000E+00           0.00000000E+00
  -0.54000000E+00           0.00000000E+00
  -0.53000000E+00           0.00000000E+00
  -0.52000000E+00           0.00000000E+00
  -0.51000000E+00           0.00000000E+00
  -0.50000000E+00           0.00000000E+00
  -0.49000000E+00           0.00000000E+00
  -0.48000000E+00           0.00000000E+00
  -0.47000000E+00           0.00000000E+00
  -0.46000000E+00           0.00000000E+00
  -0.45000000E+00           0.00000000E+00
  -0.44000000E+00           0.00000000E+00
  -0.43000000E+00           0.00000000E+00
  -0.42000000E+00           0.00000000E+00
  -0.41000000E+00           0.00000000E+00
  -0.40000000E+00           0.00000000E+00
  -0.39000000E+00           0.00000000E+00
  -0.38000000E+00           0.00000000E+00
  -0.37000000E+00           0.00000000E+00
  -0.36000000E+00           0.00000000E+00
  -0.35000000E+00           0.00000000E+00
  -0.34000000E+00           0.00000000E+00
  -0.33000000E+00           0.00000000E+00
  -0.32000000E+00           0.00000000E+00
  -0.31000000E+00           0.00000000E+00
  -0.30000000E+00           0.00000000E+00
  -0.29000000E+00           0.00000000E+00
  -0.28000000E+00           0.00000000E+00
  -0.27000000E+00           0.00000000E+00
  -0.26000000E+00           0.00000000E+00
  -0.25000000E+00           0.00000000E+00
  -0.24000000E+00           0.00000000E+00
  -0.23000000E+00           0.00000000E+00
  -0.22000000E+00           0.00000000E+00
  -0.21000000E+00           0.00000000E+00
  -0.20000000E+00           0.00000000E+00
  -0.19000000E+00           0.00000000E+00
  -0.18000000E+00           0.00000000E+00
  -0.17000000E+00           0.00000000E+00
  -0.16000000E+00           0.00000000E+00
  -0.15000000E+00           0.00000000E+00
  -0.14000000E+00           0.00000000E+00
  -0.13000000E+00           0.00000000E+00
  -0.12000000E+00           0.00000000E+00
  -0.11000000E+00           0.00000000E+00
  -0.10000000E+00           0.00000000E+00
  -0.90000000E-01           0.00000000E+00
  -0.80000000E-01           0.00000000E+00
  -0.70000000E-01           0.00000000E+00
  -0.60000000E-01           0.00000000E+00
  -0.50000000E-01           0.00000000E+00
  -0.40000000E-01           0.00000000E+00
  -0.30000000E-01           0.00000000E+00
  -0.20000000E-01           0.00000000E+00
  -0.10000000E-01           0.00000000E+00
   0.00000000E+00           0.12643386E-01
   0.10000000E-01           0.10193457E+00
   0.20000000E-01           0.20273430E+00
   0.30000000E-01           0.30361164E+00
   0.40000000E-01           0.40367231E+00
   0.50000000E-01           0.50276155E+00
   0.60000000E-01           0.59989947E+00
   0.70000000E-01           0.69486640E+00
   0.80000000E-01           0.78864885E+00
   0.90000000E-01           0.87827469E+00
   0.10000000E+00           0.96716940E+00
   0.11000000E+00           0.10527220E+01
   0.12000000E+00           0.11343959E+01
   0.13000000E+00           0.12152605E+01
   0.14000000E+00           0.12922496E+01
   0.15000000E+00           0.13646427E+01
   0.16000000E+00           0.14323675E+01
   0.17000000E+00           0.14966968E+01
   0.18000000E+00           0.15581713E+01
   0.19000000E+00           0.16129321E+01
   0.20000000E+00           0.16652213E+01
   0.21000000E+00           0.17125830E+01
   0.22000000E+00           0.17571713E+01
   0.23000000E+00           0.17961952E+01
   0.24000000E+00           0.18309690E+01
   0.25000000E+00           0.18600366E+01
   0.26000000E+00           0.18876113E+01
   0.27000000E+00           0.19061466E+01
   0.28000000E+00           0.19237078E+01
   0.29000000E+00           0.19354246E+01
   0.30000000E+00           0.19435213E+01
   0.31000000E+00           0.19480682E+01
   0.32000000E+00           0.19489293E+01
   0.33000000E+00           0.19444354E+01
   0.34000000E+00           0.19381392E+01
   0.35000000E+00           0.19270315E+01
   0.36000000E+00           0.19124985E+01
   0.37000000E+00           0.18931775E+01
   0.38000000E+00           0.18721396E+01
   0.39000000E+00           0.18470692E+01
   0.40000000E+00           0.18209964E+01
   0.41000000E+00           0.17930455E+01
   0.42000000E+00           0.17600432E+01
   0.43000000E+00           0.17256666E+01
   0.44000000E+00           0.16897371E+01
   0.45000000E+00           0.16536738E+01
   0.46000000E+00           0.16108599E+01
   0.47000000E+00           0.15694913E+01
   0.48000000E+00           0.15278647E+01
   0.49000000E+00           0.14835876E+01
[...]
   0.13800000E+01           0.68912152E+00
   0.13900000E+01           0.69126720E+00
   0.14000000E+01           0.69337848E+00
   0.14100000E+01           0.69522716E+00
   0.14200000E+01           0.69724224E+00
   0.14300000E+01           0.69912787E+00
   0.14400000E+01           0.70083280E+00
   0.14500000E+01           0.70239233E+00
   0.14600000E+01           0.70378377E+00
   0.14700000E+01           0.70573263E+00
   0.14800000E+01           0.70752734E+00
   0.14900000E+01           0.70906041E+00
   0.15000000E+01           0.71029612E+00
   0.15100000E+01           0.71187901E+00
   0.15200000E+01           0.71284171E+00
   0.15300000E+01           0.71459039E+00
   0.15400000E+01           0.71578854E+00
   0.15500000E+01           0.71712866E+00
   0.15600000E+01           0.71798951E+00
   0.15700000E+01           0.71915238E+00
   0.15800000E+01           0.72055141E+00
   0.15900000E+01           0.72124612E+00
   0.16000000E+01           0.72242231E+00
   0.16100000E+01           0.72350450E+00
   0.16200000E+01           0.72392249E+00
   0.16300000E+01           0.72509603E+00
   0.16400000E+01           0.72519206E+00
   0.16500000E+01           0.72638686E+00
   0.16600000E+01           0.72742504E+00
   0.16700000E+01           0.72776958E+00
   0.16800000E+01           0.72804198E+00
   0.16900000E+01           0.72858272E+00
   0.17000000E+01           0.72969753E+00
   0.17100000E+01           0.73003025E+00
   0.17200000E+01           0.73046270E+00
   0.17300000E+01           0.73032055E+00
   0.17400000E+01           0.73121093E+00
   0.17500000E+01           0.73130397E+00
   0.17600000E+01           0.73119048E+00
   0.17700000E+01           0.73190679E+00
   0.17800000E+01           0.73173986E+00
   0.17900000E+01           0.73208686E+00
   0.18000000E+01           0.73202416E+00
   0.18100000E+01           0.73176455E+00
   0.18200000E+01           0.73158342E+00
   0.18300000E+01           0.73200335E+00
   0.18400000E+01           0.73134894E+00
   0.18500000E+01           0.73141367E+00
   0.18600000E+01           0.73129242E+00
   0.18700000E+01           0.73085247E+00
   0.18800000E+01           0.73063589E+00
   0.18900000E+01           0.73020282E+00
   0.19000000E+01           0.73005397E+00
   0.19100000E+01           0.72955203E+00
   0.19200000E+01           0.72871437E+00
   0.19300000E+01           0.72827240E+00
   0.19400000E+01           0.72788007E+00
   0.19500000E+01           0.72689400E+00
   0.19600000E+01           0.72599603E+00
   0.19700000E+01           0.72533333E+00
   0.19800000E+01           0.72469700E+00
   0.19900000E+01           0.72405608E+00
   0.20000000E+01           0.36175326E+00
 #T=    84.0000
  -0.20000000E+01           0.00000000E+00
  -0.19900000E+01           0.00000000E+00
  -0.19800000E+01           0.00000000E+00
  -0.19700000E+01           0.00000000E+00
  -0.19600000E+01           0.00000000E+00
  -0.19500000E+01           0.00000000E+00
  -0.19400000E+01           0.00000000E+00
  -0.19300000E+01           0.00000000E+00
  -0.19200000E+01           0.00000000E+00
  -0.19100000E+01           0.00000000E+00
  -0.19000000E+01           0.00000000E+00
  -0.18900000E+01           0.00000000E+00
  -0.18800000E+01           0.00000000E+00
  -0.18700000E+01           0.00000000E+00
  -0.18600000E+01           0.00000000E+00
  -0.18500000E+01           0.00000000E+00
  -0.18400000E+01           0.00000000E+00
  -0.18300000E+01           0.00000000E+00
  -0.18200000E+01           0.00000000E+00
  -0.18100000E+01           0.00000000E+00
  -0.18000000E+01           0.00000000E+00
  -0.17900000E+01           0.00000000E+00
  -0.17800000E+01           0.00000000E+00
  -0.17700000E+01           0.00000000E+00
  -0.17600000E+01           0.00000000E+00
  -0.17500000E+01           0.00000000E+00
  -0.17400000E+01           0.00000000E+00
  -0.17300000E+01           0.00000000E+00
  -0.17200000E+01           0.00000000E+00
  -0.17100000E+01           0.00000000E+00
  -0.17000000E+01           0.00000000E+00
  -0.16900000E+01           0.00000000E+00
  -0.16800000E+01           0.00000000E+00
  -0.16700000E+01           0.00000000E+00
  -0.16600000E+01           0.00000000E+00
  -0.16500000E+01           0.00000000E+00
  -0.16400000E+01           0.00000000E+00
  -0.16300000E+01           0.00000000E+00
  -0.16200000E+01           0.00000000E+00
  -0.16100000E+01           0.00000000E+00
  -0.16000000E+01           0.00000000E+00
  -0.15900000E+01           0.00000000E+00
  -0.15800000E+01           0.00000000E+00
  -0.15700000E+01           0.00000000E+00
  -0.15600000E+01           0.00000000E+00
  -0.15500000E+01           0.00000000E+00
  -0.15400000E+01           0.00000000E+00
  -0.15300000E+01           0.00000000E+00
  -0.15200000E+01           0.00000000E+00
  -0.15100000E+01           0.00000000E+00
  -0.15000000E+01           0.00000000E+00
  -0.14900000E+01           0.00000000E+00
  -0.14800000E+01           0.00000000E+00
  -0.14700000E+01           0.00000000E+00
  -0.14600000E+01           0.00000000E+00
  -0.14500000E+01           0.00000000E+00
  -0.14400000E+01           0.00000000E+00
  -0.14300000E+01           0.00000000E+00
  -0.14200000E+01           0.00000000E+00
  -0.14100000E+01           0.00000000E+00
  -0.14000000E+01           0.00000000E+00
  -0.13900000E+01           0.00000000E+00
  -0.13800000E+01           0.00000000E+00
  -0.13700000E+01           0.00000000E+00
  -0.13600000E+01           0.00000000E+00
  -0.13500000E+01           0.00000000E+00
  -0.13400000E+01           0.00000000E+00
  -0.13300000E+01           0.00000000E+00
  -0.13200000E+01           0.00000000E+00
  -0.13100000E+01           0.00000000E+00
  -0.13000000E+01           0.00000000E+00
  -0.12900000E+01           0.00000000E+00
  -0.12800000E+01           0.00000000E+00
  -0.12700000E+01           0.00000000E+00
  -0.12600000E+01           0.00000000E+00
  -0.12500000E+01           0.00000000E+00
  -0.12400000E+01           0.00000000E+00
  -0.12300000E+01           0.00000000E+00
  -0.12200000E+01           0.00000000E+00
  -0.12100000E+01           0.00000000E+00
  -0.12000000E+01           0.00000000E+00
  -0.11900000E+01           0.00000000E+00
  -0.11800000E+01           0.00000000E+00
  -0.11700000E+01           0.00000000E+00
  -0.11600000E+01           0.00000000E+00
  -0.11500000E+01           0.00000000E+00
  -0.11400000E+01           0.00000000E+00
  -0.11300000E+01           0.00000000E+00
  -0.11200000E+01           0.00000000E+00
  -0.11100000E+01           0.00000000E+00
  -0.11000000E+01           0.00000000E+00
  -0.10900000E+01           0.00000000E+00
  -0.10800000E+01           0.00000000E+00
  -0.10700000E+01           0.00000000E+00
  -0.10600000E+01           0.00000000E+00
  -0.10500000E+01           0.00000000E+00
  -0.10400000E+01           0.00000000E+00
  -0.10300000E+01           0.00000000E+00
  -0.10200000E+01           0.00000000E+00
  -0.10100000E+01           0.00000000E+00
  -0.10000000E+01           0.00000000E+00
  -0.99000000E+00           0.00000000E+00
  -0.98000000E+00           0.00000000E+00
  -0.97000000E+00           0.00000000E+00
  -0.96000000E+00           0.00000000E+00
  -0.95000000E+00           0.00000000E+00
  -0.94000000E+00           0.00000000E+00
  -0.93000000E+00           0.00000000E+00
  -0.92000000E+00           0.00000000E+00
  -0.91000000E+00           0.00000000E+00
  -0.90000000E+00           0.00000000E+00
  -0.89000000E+00           0.00000000E+00
  -0.88000000E+00           0.00000000E+00
  -0.87000000E+00           0.00000000E+00
  -0.86000000E+00           0.00000000E+00
  -0.85000000E+00           0.00000000E+00
  -0.84000000E+00           0.00000000E+00
  -0.83000000E+00           0.00000000E+00
  -0.82000000E+00           0.00000000E+00
  -0.81000000E+00           0.00000000E+00
  -0.80000000E+00           0.00000000E+00
  -0.79000000E+00           0.00000000E+00
  -0.78000000E+00           0.00000000E+00
  -0.77000000E+00           0.00000000E+00
  -0.76000000E+00           0.00000000E+00
  -0.75000000E+00           0.00000000E+00
  -0.74000000E+00           0.00000000E+00
  -0.73000000E+00           0.00000000E+00
  -0.72000000E+00           0.00000000E+00
  -0.71000000E+00           0.00000000E+00
  -0.70000000E+00           0.00000000E+00
  -0.69000000E+00           0.00000000E+00
  -0.68000000E+00           0.00000000E+00
  -0.67000000E+00           0.00000000E+00
  -0.66000000E+00           0.00000000E+00
  -0.65000000E+00           0.00000000E+00
  -0.64000000E+00           0.00000000E+00
  -0.63000000E+00           0.00000000E+00
  -0.62000000E+00           0.00000000E+00
  -0.61000000E+00           0.00000000E+00
  -0.60000000E+00           0.00000000E+00
  -0.59000000E+00           0.00000000E+00
  -0.58000000E+00           0.00000000E+00
  -0.57000000E+00           0.00000000E+00
  -0.56000000E+00           0.00000000E+00
  -0.55000000E+00           0.00000000E+00
  -0.54000000E+00           0.00000000E+00
  -0.53000000E+00           0.00000000E+00
  -0.52000000E+00           0.00000000E+00
  -0.51000000E+00           0.00000000E+00
  -0.50000000E+00           0.00000000E+00
  -0.49000000E+00           0.00000000E+00
  -0.48000000E+00           0.00000000E+00
  -0.47000000E+00           0.00000000E+00
  -0.46000000E+00           0.00000000E+00
  -0.45000000E+00           0.00000000E+00
  -0.44000000E+00           0.00000000E+00
  -0.43000000E+00           0.00000000E+00
  -0.42000000E+00           0.00000000E+00
  -0.41000000E+00           0.00000000E+00
  -0.40000000E+00           0.00000000E+00
  -0.39000000E+00           0.00000000E+00
  -0.38000000E+00           0.00000000E+00
  -0.37000000E+00           0.00000000E+00
  -0.36000000E+00           0.00000000E+00
  -0.35000000E+00           0.00000000E+00
  -0.34000000E+00           0.00000000E+00
  -0.33000000E+00           0.00000000E+00
  -0.32000000E+00           0.00000000E+00
  -0.31000000E+00           0.00000000E+00
  -0.30000000E+00           0.00000000E+00
  -0.29000000E+00           0.00000000E+00
  -0.28000000E+00           0.00000000E+00
  -0.27000000E+00           0.00000000E+00
  -0.26000000E+00           0.00000000E+00
  -0.25000000E+00           0.00000000E+00
  -0.24000000E+00           0.00000000E+00
  -0.23000000E+00           0.00000000E+00
  -0.22000000E+00           0.00000000E+00
  -0.21000000E+00           0.00000000E+00
  -0.20000000E+00           0.00000000E+00
  -0.19000000E+00           0.00000000E+00
  -0.18000000E+00           0.00000000E+00
  -0.17000000E+00           0.00000000E+00
  -0.16000000E+00           0.00000000E+00
  -0.15000000E+00           0.00000000E+00
  -0.14000000E+00           0.00000000E+00
  -0.13000000E+00           0.00000000E+00
  -0.12000000E+00           0.00000000E+00
  -0.11000000E+00           0.00000000E+00
  -0.10000000E+00           0.00000000E+00
  -0.90000000E-01           0.00000000E+00
  -0.80000000E-01           0.00000000E+00
  -0.70000000E-01           0.00000000E+00
  -0.60000000E-01           0.00000000E+00
  -0.50000000E-01           0.00000000E+00
  -0.40000000E-01           0.00000000E+00
  -0.30000000E-01           0.00000000E+00
  -0.20000000E-01           0.00000000E+00
  -0.10000000E-01           0.00000000E+00
   0.00000000E+00           0.83298060E-03
   0.10000000E-01           0.66330688E-02
   0.20000000E-01           0.13367108E-01
   0.30000000E-01           0.20040829E-01
   0.40000000E-01           0.26671958E-01
   0.50000000E-01           0.33388977E-01
   0.60000000E-01           0.40017372E-01
   0.70000000E-01           0.46626631E-01
   0.80000000E-01           0.53354674E-01
   0.90000000E-01           0.59937654E-01
   0.10000000E+00           0.66427337E-01
   0.11000000E+00           0.73135979E-01
   0.12000000E+00           0.79904586E-01
   0.13000000E+00           0.86387831E-01
   0.14000000E+00           0.93095767E-01
   0.15000000E+00           0.99650794E-01
   0.16000000E+00           0.10617487E+00
   0.17000000E+00           0.11294903E+00
   0.18000000E+00           0.11956473E+00
   0.19000000E+00           0.12607998E+00
   0.20000000E+00           0.13260485E+00
   0.21000000E+00           0.13913157E+00
   0.22000000E+00           0.14555220E+00
   0.23000000E+00           0.15214744E+00
   0.24000000E+00           0.15860750E+00
   0.25000000E+00           0.16512875E+00
   0.26000000E+00           0.17167478E+00
   0.27000000E+00           0.17780035E+00
   0.28000000E+00           0.18462654E+00
   0.29000000E+00           0.19095952E+00
   0.30000000E+00           0.19729559E+00
   0.31000000E+00           0.20392090E+00
   0.32000000E+00           0.21012019E+00
   0.33000000E+00           0.21648933E+00
   0.34000000E+00           0.22279427E+00
   0.35000000E+00           0.22900106E+00
   0.36000000E+00           0.23543959E+00
   0.37000000E+00           0.24155097E+00
   0.38000000E+00           0.24789444E+00
   0.39000000E+00           0.25402804E+00
   0.40000000E+00           0.26030996E+00
   0.41000000E+00           0.26655882E+00
   0.42000000E+00           0.27292363E+00
   0.43000000E+00           0.27884727E+00
   0.44000000E+00           0.28511649E+00
   0.45000000E+00           0.29095547E+00
   0.46000000E+00           0.29715035E+00
   0.47000000E+00           0.30307513E+00
   0.48000000E+00           0.30940176E+00
   0.49000000E+00           0.31526129E+00
   0.50000000E+00           0.32092725E+00
   0.51000000E+00           0.32699991E+00
   0.52000000E+00           0.33274735E+00
   0.53000000E+00           0.33900362E+00
   0.54000000E+00           0.34436684E+00
   0.55000000E+00           0.35015705E+00
   0.56000000E+00           0.35587628E+00
   0.57000000E+00           0.36170882E+00
   0.58000000E+00           0.36735326E+00
   0.59000000E+00           0.37316332E+00
   0.60000000E+00           0.37855988E+00
   0.61000000E+00           0.38445538E+00
   0.62000000E+00           0.38990309E+00
   0.63000000E+00           0.39589453E+00
   0.64000000E+00           0.40087866E+00
   0.65000000E+00           0.40629162E+00
   0.66000000E+00           0.41201067E+00
   0.67000000E+00           0.41730159E+00
   0.68000000E+00           0.42287646E+00
   0.69000000E+00           0.42812496E+00
   0.70000000E+00           0.43350758E+00
   0.71000000E+00           0.43858783E+00
   0.72000000E+00           0.44381834E+00
   0.73000000E+00           0.44882663E+00
   0.74000000E+00           0.45410256E+00
   0.75000000E+00           0.45911605E+00
   0.76000000E+00           0.46455926E+00
   0.77000000E+00           0.46929753E+00
   0.78000000E+00           0.47408616E+00
   0.79000000E+00           0.47903889E+00
   0.80000000E+00           0.48389339E+00
   0.81000000E+00           0.48879568E+00
   0.82000000E+00           0.49420935E+00
   0.83000000E+00           0.49865317E+00
   0.84000000E+00           0.50327945E+00
   0.85000000E+00           0.50780723E+00
   0.86000000E+00           0.51268316E+00
   0.87000000E+00           0.51727549E+00
   0.88000000E+00           0.52200044E+00
   0.89000000E+00           0.52619153E+00
   0.90000000E+00           0.53100291E+00
   0.91000000E+00           0.53517610E+00
   0.92000000E+00           0.53992328E+00
   0.93000000E+00           0.54351887E+00
   0.94000000E+00           0.54812496E+00
   0.95000000E+00           0.55256243E+00
   0.96000000E+00           0.55672725E+00
   0.97000000E+00           0.56124956E+00
   0.98000000E+00           0.56545794E+00
   0.99000000E+00           0.56889991E+00
   0.10000000E+01           0.57328280E+00
   0.10100000E+01           0.57701517E+00
   0.10200000E+01           0.58090000E+00
   0.10300000E+01           0.58463263E+00
   0.10400000E+01           0.58870035E+00
   0.10500000E+01           0.59262178E+00
   0.10600000E+01           0.59600873E+00
   0.10700000E+01           0.60006570E+00
   0.10800000E+01           0.60338201E+00
   0.10900000E+01           0.60736226E+00
   0.11000000E+01           0.61037460E+00
   0.11100000E+01           0.61408977E+00
   0.11200000E+01           0.61733351E+00
   0.11300000E+01           0.62101420E+00
   0.11400000E+01           0.62413801E+00
   0.11500000E+01           0.62775379E+00
   0.11600000E+01           0.63041005E+00
   0.11700000E+01           0.63411473E+00
   0.11800000E+01           0.63677134E+00
   0.11900000E+01           0.64004603E+00
   0.12000000E+01           0.64349383E+00
   0.12100000E+01           0.64641658E+00
   0.12200000E+01           0.64957566E+00
   0.12300000E+01           0.65263924E+00
   0.12400000E+01           0.65493369E+00
   0.12500000E+01           0.65781993E+00
   0.12600000E+01           0.66030044E+00
   0.12700000E+01           0.66311517E+00
   0.12800000E+01           0.66585467E+00
   0.12900000E+01           0.66832901E+00
   0.13000000E+01           0.67096975E+00
   0.13100000E+01           0.67320758E+00
   0.13200000E+01           0.67566852E+00
   0.13300000E+01           0.67821984E+00
   0.13400000E+01           0.68079365E+00
   0.13500000E+01           0.68268413E+00
   0.13600000E+01           0.68514974E+00
   0.13700000E+01           0.68722363E+00
   0.13800000E+01           0.68948333E+00
   0.13900000E+01           0.69178095E+00
   0.14000000E+01           0.69305635E+00
   0.14100000E+01           0.69552302E+00
   0.14200000E+01           0.69738122E+00
   0.14300000E+01           0.69902143E+00
   0.14400000E+01           0.70120899E+00
   0.14500000E+01           0.70292813E+00
   0.14600000E+01           0.70455802E+00
   0.14700000E+01           0.70634735E+00
   0.14800000E+01           0.70814065E+00
   0.14900000E+01           0.70941869E+00
   0.15000000E+01           0.71118325E+00
   0.15100000E+01           0.71332531E+00
   0.15200000E+01           0.71436940E+00
   0.15300000E+01           0.71553959E+00
   0.15400000E+01           0.71665899E+00
   0.15500000E+01           0.71846861E+00
   0.15600000E+01           0.71890229E+00
   0.15700000E+01           0.72076605E+00
   0.15800000E+01           0.72169559E+00
   0.15900000E+01           0.72261772E+00
   0.16000000E+01           0.72375750E+00
   0.16100000E+01           0.72467663E+00
   0.16200000E+01           0.72564462E+00
   0.16300000E+01           0.72614797E+00
   0.16400000E+01           0.72731737E+00
   0.16500000E+01           0.72795529E+00
   0.16600000E+01           0.72896437E+00
   0.16700000E+01           0.72974321E+00
   0.16800000E+01           0.73040176E+00
   0.16900000E+01           0.73065203E+00
   0.17000000E+01           0.73146720E+00
   0.17100000E+01           0.73197778E+00
   0.17200000E+01           0.73212055E+00
   0.17300000E+01           0.73328192E+00
   0.17400000E+01           0.73366129E+00
   0.17500000E+01           0.73376684E+00
   0.17600000E+01           0.73369691E+00
   0.17700000E+01           0.73420996E+00
   0.17800000E+01           0.73476455E+00
   0.17900000E+01           0.73463642E+00
   0.18000000E+01           0.73396032E+00
   0.18100000E+01           0.73427363E+00
   0.18200000E+01           0.73448483E+00
   0.18300000E+01           0.73400529E+00
   0.18400000E+01           0.73483483E+00
   0.18500000E+01           0.73389850E+00
   0.18600000E+01           0.73390229E+00
   0.18700000E+01           0.73391270E+00
   0.18800000E+01           0.73360714E+00
   0.18900000E+01           0.73324586E+00
   0.19000000E+01           0.73283668E+00
   0.19100000E+01           0.73277601E+00
   0.19200000E+01           0.73158501E+00
   0.19300000E+01           0.73185026E+00
   0.19400000E+01           0.73108748E+00
   0.19500000E+01           0.73062981E+00
   0.19600000E+01           0.73007981E+00
   0.19700000E+01           0.72952266E+00
   0.19800000E+01           0.72863466E+00
   0.19900000E+01           0.72780088E+00
   0.20000000E+01           0.36385600E+00
