 #written on 12Sep2024 at 15:34:36 
 #----------------------------------------------- MONTECARLO ---------------------------------------------------#
 # Temp      Magnetization     Energy_ave          C_M              Sus              U_E              U_M       #
 #--------------------------------------------------------------------------------------------------------------#
   5.0000   0.46805363E-02  -0.10800196E+03   0.10280058E+01   0.25539160E-02   0.66666537E+00   0.34278479E+00
   6.0000   0.51587077E-02  -0.10697030E+03   0.10370443E+01   0.25549454E-02   0.66666475E+00   0.34712917E+00
   7.0000   0.55809311E-02  -0.10593331E+03   0.10421826E+01   0.25195995E-02   0.66666399E+00   0.35160508E+00
   8.0000   0.59758981E-02  -0.10488898E+03   0.10410109E+01   0.25094568E-02   0.66666311E+00   0.35190970E+00
   9.0000   0.63640187E-02  -0.10383679E+03   0.10542665E+01   0.25029905E-02   0.66666201E+00   0.35522457E+00
  10.0000   0.67303349E-02  -0.10277733E+03   0.10566668E+01   0.24984673E-02   0.66666079E+00   0.35628184E+00
  11.0000   0.70787609E-02  -0.10171202E+03   0.10706121E+01   0.24817377E-02   0.66665931E+00   0.35985963E+00
  12.0000   0.74161925E-02  -0.10063638E+03   0.10811784E+01   0.24752244E-02   0.66665763E+00   0.36161907E+00
  13.0000   0.77529678E-02  -0.99553731E+02   0.10872226E+01   0.24680814E-02   0.66665577E+00   0.36461725E+00
  14.0000   0.80709946E-02  -0.98460913E+02   0.10977175E+01   0.24539767E-02   0.66665362E+00   0.36824969E+00
  15.0000   0.83828142E-02  -0.97364658E+02   0.11020312E+01   0.24480860E-02   0.66665129E+00   0.37012357E+00
  16.0000   0.86865075E-02  -0.96255105E+02   0.11152782E+01   0.24315948E-02   0.66664855E+00   0.37346995E+00
  17.0000   0.89813603E-02  -0.95132205E+02   0.11211735E+01   0.24282747E-02   0.66664562E+00   0.37577196E+00
  18.0000   0.92691952E-02  -0.94000881E+02   0.11355189E+01   0.24239939E-02   0.66664219E+00   0.37771265E+00
  19.0000   0.95651578E-02  -0.92859326E+02   0.11524124E+01   0.24156681E-02   0.66663831E+00   0.38065882E+00
  20.0000   0.98422909E-02  -0.91705824E+02   0.11578583E+01   0.24046348E-02   0.66663430E+00   0.38303583E+00
  21.0000   0.10138217E-01  -0.90537465E+02   0.11743913E+01   0.24150251E-02   0.66662953E+00   0.38523331E+00
  22.0000   0.10405460E-01  -0.89358860E+02   0.11908078E+01   0.24021469E-02   0.66662425E+00   0.38762004E+00
  23.0000   0.10678534E-01  -0.88161277E+02   0.12018539E+01   0.23950440E-02   0.66661859E+00   0.39066236E+00
  24.0000   0.10949896E-01  -0.86950827E+02   0.12176974E+01   0.23921569E-02   0.66661214E+00   0.39289255E+00
  25.0000   0.11226237E-01  -0.85723207E+02   0.12344585E+01   0.23822155E-02   0.66660497E+00   0.39697945E+00
  26.0000   0.11494945E-01  -0.84474403E+02   0.12561215E+01   0.23832380E-02   0.66659674E+00   0.39918556E+00
  27.0000   0.11771742E-01  -0.83210526E+02   0.12812172E+01   0.23878420E-02   0.66658740E+00   0.40101042E+00
  28.0000   0.12045756E-01  -0.81923263E+02   0.13004306E+01   0.23937123E-02   0.66657740E+00   0.40304956E+00
  29.0000   0.12313999E-01  -0.80611184E+02   0.13236958E+01   0.23835763E-02   0.66656601E+00   0.40702635E+00
  30.0000   0.12585033E-01  -0.79276914E+02   0.13453434E+01   0.23895098E-02   0.66655347E+00   0.40940033E+00
  31.0000   0.12846516E-01  -0.77913366E+02   0.13741469E+01   0.23821727E-02   0.66653886E+00   0.41293970E+00
  32.0000   0.13130611E-01  -0.76514734E+02   0.14165876E+01   0.23951037E-02   0.66652110E+00   0.41486167E+00
  33.0000   0.13403947E-01  -0.75090796E+02   0.14444731E+01   0.23926971E-02   0.66650277E+00   0.41804190E+00
  34.0000   0.13687864E-01  -0.73622604E+02   0.14853569E+01   0.24075648E-02   0.66648059E+00   0.42003791E+00
  35.0000   0.13968694E-01  -0.72117200E+02   0.15284129E+01   0.24114545E-02   0.66645522E+00   0.42280675E+00
  36.0000   0.14251750E-01  -0.70568776E+02   0.15739283E+01   0.24234212E-02   0.66642609E+00   0.42500483E+00
  37.0000   0.14553778E-01  -0.68972785E+02   0.16236159E+01   0.24369457E-02   0.66639229E+00   0.42772384E+00
  38.0000   0.14848939E-01  -0.67322577E+02   0.16752605E+01   0.24584260E-02   0.66635325E+00   0.42958292E+00
  39.0000   0.15145271E-01  -0.65612315E+02   0.17406094E+01   0.24669794E-02   0.66630562E+00   0.43178562E+00
  40.0000   0.15466599E-01  -0.63849478E+02   0.17982506E+01   0.24913677E-02   0.66625236E+00   0.43396591E+00
  41.0000   0.15778144E-01  -0.62004253E+02   0.18849983E+01   0.25170435E-02   0.66618293E+00   0.43614914E+00
  42.0000   0.16085912E-01  -0.60086828E+02   0.19584837E+01   0.25461442E-02   0.66610512E+00   0.43742168E+00
  43.0000   0.16403102E-01  -0.58070944E+02   0.20606501E+01   0.25642641E-02   0.66600380E+00   0.43966667E+00
  44.0000   0.16739633E-01  -0.55960164E+02   0.21687507E+01   0.26065348E-02   0.66588033E+00   0.44013960E+00
  45.0000   0.17084035E-01  -0.53720232E+02   0.22976552E+01   0.26342081E-02   0.66572157E+00   0.44245602E+00
  46.0000   0.17437000E-01  -0.51347064E+02   0.24708749E+01   0.26843195E-02   0.66550493E+00   0.44281747E+00
  47.0000   0.17821483E-01  -0.48779109E+02   0.27117651E+01   0.27330537E-02   0.66519387E+00   0.44382731E+00
  48.0000   0.18213593E-01  -0.45839072E+02   0.31147075E+01   0.27952880E-02   0.66467020E+00   0.44383817E+00
  49.0000   0.18644337E-01  -0.42807253E+02   0.26704025E+01   0.28696266E-02   0.66459310E+00   0.44419851E+00
  50.0000   0.18922150E-01  -0.40727242E+02   0.15999767E+01   0.28891171E-02   0.66523627E+00   0.44433299E+00
  51.0000   0.19078603E-01  -0.39371632E+02   0.11723662E+01   0.28771031E-02   0.66550539E+00   0.44488461E+00
  52.0000   0.19215503E-01  -0.38307082E+02   0.98023497E+00   0.28681356E-02   0.66560293E+00   0.44414734E+00
  53.0000   0.19314414E-01  -0.37378114E+02   0.87592653E+00   0.28382566E-02   0.66563046E+00   0.44492087E+00
  54.0000   0.19421001E-01  -0.36542567E+02   0.80183400E+00   0.28172880E-02   0.66563698E+00   0.44471150E+00
  55.0000   0.19529742E-01  -0.35773742E+02   0.74660530E+00   0.28010824E-02   0.66562917E+00   0.44479498E+00
  56.0000   0.19592276E-01  -0.35052358E+02   0.69720144E+00   0.27770038E-02   0.66562067E+00   0.44341515E+00
  57.0000   0.19631161E-01  -0.34372714E+02   0.65663700E+00   0.27316991E-02   0.66560546E+00   0.44413896E+00
  58.0000   0.19708461E-01  -0.33733705E+02   0.62439785E+00   0.27050774E-02   0.66558196E+00   0.44470681E+00
  59.0000   0.19763919E-01  -0.33123479E+02   0.59109724E+00   0.26766018E-02   0.66556486E+00   0.44428914E+00
  60.0000   0.19817934E-01  -0.32545222E+02   0.56588182E+00   0.26442534E-02   0.66553672E+00   0.44457480E+00
  61.0000   0.19870300E-01  -0.31991487E+02   0.54095406E+00   0.26107856E-02   0.66551129E+00   0.44471833E+00
  62.0000   0.19916599E-01  -0.31462354E+02   0.51859291E+00   0.25856153E-02   0.66548373E+00   0.44457387E+00
  63.0000   0.19967639E-01  -0.30951723E+02   0.49802664E+00   0.25596862E-02   0.66545462E+00   0.44401512E+00
  64.0000   0.19991240E-01  -0.30466607E+02   0.47769795E+00   0.25194978E-02   0.66542843E+00   0.44468524E+00
  65.0000   0.20044958E-01  -0.29999242E+02   0.46117923E+00   0.24914047E-02   0.66539502E+00   0.44500037E+00
  66.0000   0.20073121E-01  -0.29547276E+02   0.44324464E+00   0.24651532E-02   0.66536790E+00   0.44424715E+00
  67.0000   0.20105560E-01  -0.29109847E+02   0.42659395E+00   0.24366223E-02   0.66533963E+00   0.44470883E+00
  68.0000   0.20120522E-01  -0.28690270E+02   0.41360762E+00   0.24061769E-02   0.66530220E+00   0.44441715E+00
  69.0000   0.20156829E-01  -0.28288075E+02   0.39956091E+00   0.23779285E-02   0.66527078E+00   0.44445036E+00
  70.0000   0.20177523E-01  -0.27891962E+02   0.38476070E+00   0.23479855E-02   0.66524380E+00   0.44470682E+00
  71.0000   0.20206056E-01  -0.27511500E+02   0.37380473E+00   0.23224782E-02   0.66520502E+00   0.44460864E+00
  72.0000   0.20229385E-01  -0.27144883E+02   0.36242688E+00   0.22935941E-02   0.66516952E+00   0.44470841E+00
  73.0000   0.20237956E-01  -0.26791621E+02   0.34997036E+00   0.22678679E-02   0.66514136E+00   0.44397419E+00
  74.0000   0.20266453E-01  -0.26443671E+02   0.33950340E+00   0.22402362E-02   0.66510582E+00   0.44497098E+00
  75.0000   0.20271534E-01  -0.26109118E+02   0.33076735E+00   0.22127939E-02   0.66506456E+00   0.44444945E+00
  76.0000   0.20291336E-01  -0.25785416E+02   0.31976526E+00   0.21961414E-02   0.66503600E+00   0.44395693E+00
  77.0000   0.20315990E-01  -0.25469450E+02   0.31101728E+00   0.21686465E-02   0.66499825E+00   0.44405497E+00
  78.0000   0.20310710E-01  -0.25160131E+02   0.30255599E+00   0.21387987E-02   0.66496011E+00   0.44413547E+00
  79.0000   0.20336681E-01  -0.24864445E+02   0.29399709E+00   0.21177710E-02   0.66492469E+00   0.44377898E+00
  80.0000   0.20326365E-01  -0.24573442E+02   0.28573787E+00   0.20927864E-02   0.66488935E+00   0.44379177E+00
  81.0000   0.20343495E-01  -0.24291812E+02   0.27860421E+00   0.20639015E-02   0.66484918E+00   0.44445915E+00
  82.0000   0.20364442E-01  -0.24014554E+02   0.27228196E+00   0.20409846E-02   0.66480394E+00   0.44483754E+00
  83.0000   0.20375573E-01  -0.23747266E+02   0.26414519E+00   0.20190648E-02   0.66477313E+00   0.44450555E+00
  84.0000   0.20376152E-01  -0.23487434E+02   0.25739094E+00   0.19942443E-02   0.66473493E+00   0.44447429E+00
