 #written on 12Sep2024 at 15:34:36 
 #----------------- MONTECARLO -------------------#
 #        M                      P(M)             #
 #------------------------------------------------#
 #T=     5.0000
  -0.20000000E+01           0.00000000E+00
  -0.19900000E+01           0.00000000E+00
  -0.19800000E+01           0.00000000E+00
  -0.19700000E+01           0.00000000E+00
  -0.19600000E+01           0.00000000E+00
  -0.19500000E+01           0.00000000E+00
  -0.19400000E+01           0.00000000E+00
  -0.19300000E+01           0.00000000E+00
  -0.19200000E+01           0.00000000E+00
  -0.19100000E+01           0.00000000E+00
  -0.19000000E+01           0.00000000E+00
  -0.18900000E+01           0.00000000E+00
  -0.18800000E+01           0.00000000E+00
  -0.18700000E+01           0.00000000E+00
  -0.18600000E+01           0.00000000E+00
  -0.18500000E+01           0.00000000E+00
  -0.18400000E+01           0.00000000E+00
  -0.18300000E+01           0.00000000E+00
  -0.18200000E+01           0.00000000E+00
  -0.18100000E+01           0.00000000E+00
  -0.18000000E+01           0.00000000E+00
  -0.17900000E+01           0.00000000E+00
  -0.17800000E+01           0.00000000E+00
  -0.17700000E+01           0.00000000E+00
  -0.17600000E+01           0.00000000E+00
  -0.17500000E+01           0.00000000E+00
  -0.17400000E+01           0.00000000E+00
  -0.17300000E+01           0.00000000E+00
  -0.17200000E+01           0.00000000E+00
  -0.17100000E+01           0.00000000E+00
  -0.17000000E+01           0.00000000E+00
  -0.16900000E+01           0.00000000E+00
  -0.16800000E+01           0.00000000E+00
  -0.16700000E+01           0.00000000E+00
  -0.16600000E+01           0.00000000E+00
  -0.16500000E+01           0.00000000E+00
  -0.16400000E+01           0.00000000E+00
  -0.16300000E+01           0.00000000E+00
  -0.16200000E+01           0.00000000E+00
  -0.16100000E+01           0.00000000E+00
  -0.16000000E+01           0.00000000E+00
  -0.15900000E+01           0.00000000E+00
  -0.15800000E+01           0.00000000E+00
  -0.15700000E+01           0.00000000E+00
  -0.15600000E+01           0.00000000E+00
  -0.15500000E+01           0.00000000E+00
  -0.15400000E+01           0.00000000E+00
  -0.15300000E+01           0.00000000E+00
  -0.15200000E+01           0.00000000E+00
  -0.15100000E+01           0.00000000E+00
  -0.15000000E+01           0.00000000E+00
  -0.14900000E+01           0.00000000E+00
  -0.14800000E+01           0.00000000E+00
  -0.14700000E+01           0.00000000E+00
  -0.14600000E+01           0.00000000E+00
  -0.14500000E+01           0.00000000E+00
  -0.14400000E+01           0.00000000E+00
  -0.14300000E+01           0.00000000E+00
  -0.14200000E+01           0.00000000E+00
  -0.14100000E+01           0.00000000E+00
  -0.14000000E+01           0.00000000E+00
  -0.13900000E+01           0.00000000E+00
  -0.13800000E+01           0.00000000E+00
  -0.13700000E+01           0.00000000E+00
  -0.13600000E+01           0.00000000E+00
  -0.13500000E+01           0.00000000E+00
  -0.13400000E+01           0.00000000E+00
  -0.13300000E+01           0.00000000E+00
  -0.13200000E+01           0.00000000E+00
  -0.13100000E+01           0.00000000E+00
  -0.13000000E+01           0.00000000E+00
  -0.12900000E+01           0.00000000E+00
  -0.12800000E+01           0.00000000E+00
  -0.12700000E+01           0.00000000E+00
  -0.12600000E+01           0.00000000E+00
  -0.12500000E+01           0.00000000E+00
  -0.12400000E+01           0.00000000E+00
  -0.12300000E+01           0.00000000E+00
  -0.12200000E+01           0.00000000E+00
  -0.12100000E+01           0.00000000E+00
  -0.12000000E+01           0.00000000E+00
  -0.11900000E+01           0.00000000E+00
  -0.11800000E+01           0.00000000E+00
  -0.11700000E+01           0.00000000E+00
  -0.11600000E+01           0.00000000E+00
  -0.11500000E+01           0.00000000E+00
  -0.11400000E+01           0.00000000E+00
  -0.11300000E+01           0.00000000E+00
  -0.11200000E+01           0.00000000E+00
  -0.11100000E+01           0.00000000E+00
  -0.11000000E+01           0.00000000E+00
  -0.10900000E+01           0.00000000E+00
  -0.10800000E+01           0.00000000E+00
  -0.10700000E+01           0.00000000E+00
  -0.10600000E+01           0.00000000E+00
  -0.10500000E+01           0.00000000E+00
  -0.10400000E+01           0.00000000E+00
  -0.10300000E+01           0.00000000E+00
  -0.10200000E+01           0.00000000E+00
  -0.10100000E+01           0.00000000E+00
  -0.10000000E+01           0.00000000E+00
  -0.99000000E+00           0.00000000E+00
  -0.98000000E+00           0.00000000E+00
  -0.97000000E+00           0.00000000E+00
  -0.96000000E+00           0.00000000E+00
  -0.95000000E+00           0.00000000E+00
  -0.94000000E+00           0.00000000E+00
  -0.93000000E+00           0.00000000E+00
  -0.92000000E+00           0.00000000E+00
  -0.91000000E+00           0.00000000E+00
  -0.90000000E+00           0.00000000E+00
  -0.89000000E+00           0.00000000E+00
  -0.88000000E+00           0.00000000E+00
  -0.87000000E+00           0.00000000E+00
  -0.86000000E+00           0.00000000E+00
  -0.85000000E+00           0.00000000E+00
  -0.84000000E+00           0.00000000E+00
  -0.83000000E+00           0.00000000E+00
  -0.82000000E+00           0.00000000E+00
  -0.81000000E+00           0.00000000E+00
  -0.80000000E+00           0.00000000E+00
  -0.79000000E+00           0.00000000E+00
  -0.78000000E+00           0.00000000E+00
  -0.77000000E+00           0.00000000E+00
  -0.76000000E+00           0.00000000E+00
  -0.75000000E+00           0.00000000E+00
  -0.74000000E+00           0.00000000E+00
  -0.73000000E+00           0.00000000E+00
  -0.72000000E+00           0.00000000E+00
  -0.71000000E+00           0.00000000E+00
  -0.70000000E+00           0.00000000E+00
  -0.69000000E+00           0.00000000E+00
  -0.68000000E+00           0.00000000E+00
  -0.67000000E+00           0.00000000E+00
  -0.66000000E+00           0.00000000E+00
  -0.65000000E+00           0.00000000E+00
  -0.64000000E+00           0.00000000E+00
  -0.63000000E+00           0.00000000E+00
  -0.62000000E+00           0.00000000E+00
  -0.61000000E+00           0.00000000E+00
  -0.60000000E+00           0.00000000E+00
  -0.59000000E+00           0.00000000E+00
  -0.58000000E+00           0.00000000E+00
  -0.57000000E+00           0.00000000E+00
  -0.56000000E+00           0.00000000E+00
  -0.55000000E+00           0.00000000E+00
  -0.54000000E+00           0.00000000E+00
  -0.53000000E+00           0.00000000E+00
  -0.52000000E+00           0.00000000E+00
  -0.51000000E+00           0.00000000E+00
  -0.50000000E+00           0.00000000E+00
  -0.49000000E+00           0.00000000E+00
  -0.48000000E+00           0.00000000E+00
  -0.47000000E+00           0.00000000E+00
  -0.46000000E+00           0.00000000E+00
  -0.45000000E+00           0.00000000E+00
  -0.44000000E+00           0.00000000E+00
  -0.43000000E+00           0.00000000E+00
  -0.42000000E+00           0.00000000E+00
  -0.41000000E+00           0.00000000E+00
  -0.40000000E+00           0.00000000E+00
  -0.39000000E+00           0.00000000E+00
  -0.38000000E+00           0.00000000E+00
  -0.37000000E+00           0.00000000E+00
  -0.36000000E+00           0.00000000E+00
  -0.35000000E+00           0.00000000E+00
  -0.34000000E+00           0.00000000E+00
  -0.33000000E+00           0.00000000E+00
  -0.32000000E+00           0.00000000E+00
  -0.31000000E+00           0.00000000E+00
  -0.30000000E+00           0.00000000E+00
  -0.29000000E+00           0.00000000E+00
  -0.28000000E+00           0.00000000E+00
  -0.27000000E+00           0.00000000E+00
  -0.26000000E+00           0.00000000E+00
  -0.25000000E+00           0.00000000E+00
  -0.24000000E+00           0.00000000E+00
  -0.23000000E+00           0.00000000E+00
  -0.22000000E+00           0.00000000E+00
  -0.21000000E+00           0.00000000E+00
  -0.20000000E+00           0.00000000E+00
  -0.19000000E+00           0.00000000E+00
  -0.18000000E+00           0.00000000E+00
  -0.17000000E+00           0.00000000E+00
  -0.16000000E+00           0.00000000E+00
  -0.15000000E+00           0.00000000E+00
  -0.14000000E+00           0.00000000E+00
  -0.13000000E+00           0.00000000E+00
  -0.12000000E+00           0.00000000E+00
  -0.11000000E+00           0.00000000E+00
  -0.10000000E+00           0.00000000E+00
  -0.90000000E-01           0.00000000E+00
  -0.80000000E-01           0.00000000E+00
  -0.70000000E-01           0.00000000E+00
  -0.60000000E-01           0.00000000E+00
  -0.50000000E-01           0.00000000E+00
  -0.40000000E-01           0.00000000E+00
  -0.30000000E-01           0.00000000E+00
  -0.20000000E-01           0.00000000E+00
  -0.10000000E-01           0.00000000E+00
   0.00000000E+00           0.23044004E-01
   0.10000000E-01           0.18327125E+00
   0.20000000E-01           0.36628166E+00
   0.30000000E-01           0.54739506E+00
   0.40000000E-01           0.72502196E+00
   0.50000000E-01           0.89695838E+00
   0.60000000E-01           0.10667287E+01
   0.70000000E-01           0.12295443E+01
   0.80000000E-01           0.13872677E+01
   0.90000000E-01           0.15365728E+01
   0.10000000E+00           0.16769722E+01
   0.11000000E+00           0.18130811E+01
   0.12000000E+00           0.19342655E+01
   0.13000000E+00           0.20479583E+01
   0.14000000E+00           0.21528548E+01
   0.15000000E+00           0.22419314E+01
   0.16000000E+00           0.23310262E+01
   0.17000000E+00           0.24010413E+01
   0.18000000E+00           0.24632942E+01
   0.19000000E+00           0.25122093E+01
   0.20000000E+00           0.25550724E+01
   0.21000000E+00           0.25822041E+01
   0.22000000E+00           0.26039328E+01
   0.23000000E+00           0.26111713E+01
   0.24000000E+00           0.26086620E+01
   0.25000000E+00           0.26003279E+01
   0.26000000E+00           0.25768148E+01
   0.27000000E+00           0.25546926E+01
   0.28000000E+00           0.25190644E+01
   0.29000000E+00           0.24752419E+01
   0.30000000E+00           0.24259541E+01
   0.31000000E+00           0.23703050E+01
   0.32000000E+00           0.23105374E+01
   0.33000000E+00           0.22439873E+01
   0.34000000E+00           0.21749659E+01
   0.35000000E+00           0.20981676E+01
   0.36000000E+00           0.20229823E+01
   0.37000000E+00           0.19444333E+01
   0.38000000E+00           0.18658327E+01
   0.39000000E+00           0.17820545E+01
   0.40000000E+00           0.16980638E+01
   0.41000000E+00           0.16154847E+01
   0.42000000E+00           0.15322319E+01
   0.43000000E+00           0.14485776E+01
   0.44000000E+00           0.13673182E+01
   0.45000000E+00           0.12873269E+01
   0.46000000E+00           0.12102896E+01
   0.47000000E+00           0.11359136E+01
   0.48000000E+00           0.10601143E+01
   0.49000000E+00           0.98858633E+00
   0.50000000E+00           0.92040829E+00
   0.51000000E+00           0.85407787E+00
   0.52000000E+00           0.78993078E+00
   0.53000000E+00           0.73004409E+00
   0.54000000E+00           0.67391217E+00
   0.55000000E+00           0.61930000E+00
   0.56000000E+00           0.56785141E+00
   0.57000000E+00           0.52074392E+00
   0.58000000E+00           0.47408695E+00
   0.59000000E+00           0.43269762E+00
   0.60000000E+00           0.39251755E+00
   0.61000000E+00           0.35543571E+00
   0.62000000E+00           0.32211667E+00
   0.63000000E+00           0.29042504E+00
   0.64000000E+00           0.26111226E+00
   0.65000000E+00           0.23476914E+00
   0.66000000E+00           0.21016182E+00
   0.67000000E+00           0.18841076E+00
   0.68000000E+00           0.16765661E+00
   0.69000000E+00           0.14916164E+00
   0.70000000E+00           0.13278360E+00
   0.71000000E+00           0.11719056E+00
   0.72000000E+00           0.10359700E+00
   0.73000000E+00           0.91337743E-01
   0.74000000E+00           0.80379101E-01
   0.75000000E+00           0.70592945E-01
   0.76000000E+00           0.61634921E-01
   0.77000000E+00           0.53850088E-01
   0.78000000E+00           0.46847531E-01
   0.79000000E+00           0.40649824E-01
   0.80000000E+00           0.35349647E-01
   0.81000000E+00           0.30579894E-01
   0.82000000E+00           0.26318166E-01
   0.83000000E+00           0.22638889E-01
   0.84000000E+00           0.19377337E-01
   0.85000000E+00           0.16507407E-01
   0.86000000E+00           0.13962610E-01
   0.87000000E+00           0.11966314E-01
   0.88000000E+00           0.10143386E-01
   0.89000000E+00           0.87447090E-02
   0.90000000E+00           0.73019400E-02
   0.91000000E+00           0.61101411E-02
   0.92000000E+00           0.52171076E-02
   0.93000000E+00           0.43530864E-02
   0.94000000E+00           0.36738095E-02
   0.95000000E+00           0.30085538E-02
   0.96000000E+00           0.25337743E-02
   0.97000000E+00           0.21020282E-02
   0.98000000E+00           0.17543210E-02
   0.99000000E+00           0.14198413E-02
   0.10000000E+01           0.11694885E-02
   0.10100000E+01           0.96728395E-03
   0.10200000E+01           0.78483245E-03
   0.10300000E+01           0.65811287E-03
   0.10400000E+01           0.50476190E-03
   0.10500000E+01           0.42380952E-03
   0.10600000E+01           0.33880071E-03
   0.10700000E+01           0.28500882E-03
   0.10800000E+01           0.22566138E-03
   0.10900000E+01           0.17495591E-03
   0.11000000E+01           0.15202822E-03
   0.11100000E+01           0.11181658E-03
   0.11200000E+01           0.96913580E-04
   0.11300000E+01           0.70458554E-04
   0.11400000E+01           0.60582011E-04
   0.11500000E+01           0.45238095E-04
   0.11600000E+01           0.37654321E-04
   0.11700000E+01           0.27425044E-04
   0.11800000E+01           0.22398589E-04
   0.11900000E+01           0.16578483E-04
   0.12000000E+01           0.89947090E-05
   0.12100000E+01           0.69664903E-05
   0.12200000E+01           0.82892416E-05
   0.12300000E+01           0.56437390E-05
   0.12400000E+01           0.37037037E-05
   0.12500000E+01           0.46737213E-05
   0.12600000E+01           0.18518519E-05
   0.12700000E+01           0.17636684E-05
   0.12800000E+01           0.19400353E-05
   0.12900000E+01           0.14109347E-05
   0.13000000E+01           0.88183422E-06
   0.13100000E+01           0.61728395E-06
   0.13200000E+01           0.17636684E-06
   0.13300000E+01           0.61728395E-06
   0.13400000E+01           0.35273369E-06
   0.13500000E+01           0.88183422E-07
   0.13600000E+01           0.26455026E-06
   0.13700000E+01           0.88183422E-07
   0.13800000E+01           0.00000000E+00
   0.13900000E+01           0.00000000E+00
   0.14000000E+01           0.00000000E+00
   0.14100000E+01           0.88183422E-07
   0.14200000E+01           0.00000000E+00
   0.14300000E+01           0.00000000E+00
   0.14400000E+01           0.00000000E+00
   0.14500000E+01           0.88183422E-07
   0.14600000E+01           0.00000000E+00
   0.14700000E+01           0.00000000E+00
   0.14800000E+01           0.00000000E+00
   0.14900000E+01           0.00000000E+00
   0.15000000E+01           0.00000000E+00
   0.15100000E+01           0.00000000E+00
   0.15200000E+01           0.00000000E+00
   0.15300000E+01           0.00000000E+00
   0.15400000E+01           0.00000000E+00
   0.15500000E+01           0.00000000E+00
   0.15600000E+01           0.00000000E+00
   0.15700000E+01           0.00000000E+00
   0.15800000E+01           0.00000000E+00
   0.15900000E+01           0.00000000E+00
   0.16000000E+01           0.00000000E+00
   0.16100000E+01           0.00000000E+00
   0.16200000E+01           0.00000000E+00
   0.16300000E+01           0.00000000E+00
   0.16400000E+01           0.00000000E+00
   0.16500000E+01           0.00000000E+00
   0.16600000E+01           0.00000000E+00
   0.16700000E+01           0.00000000E+00
   0.16800000E+01           0.00000000E+00
   0.16900000E+01           0.00000000E+00
   0.17000000E+01           0.00000000E+00
   0.17100000E+01           0.00000000E+00
   0.17200000E+01           0.00000000E+00
   0.17300000E+01           0.00000000E+00
   0.17400000E+01           0.00000000E+00
   0.17500000E+01           0.00000000E+00
   0.17600000E+01           0.00000000E+00
   0.17700000E+01           0.00000000E+00
   0.17800000E+01           0.00000000E+00
   0.17900000E+01           0.00000000E+00
   0.18000000E+01           0.00000000E+00
   0.18100000E+01           0.00000000E+00
   0.18200000E+01           0.00000000E+00
   0.18300000E+01           0.00000000E+00
   0.18400000E+01           0.00000000E+00
   0.18500000E+01           0.00000000E+00
   0.18600000E+01           0.00000000E+00
   0.18700000E+01           0.00000000E+00
   0.18800000E+01           0.00000000E+00
   0.18900000E+01           0.00000000E+00
   0.19000000E+01           0.00000000E+00
   0.19100000E+01           0.00000000E+00
   0.19200000E+01           0.00000000E+00
   0.19300000E+01           0.00000000E+00
   0.19400000E+01           0.00000000E+00
   0.19500000E+01           0.00000000E+00
   0.19600000E+01           0.00000000E+00
   0.19700000E+01           0.00000000E+00
   0.19800000E+01           0.00000000E+00
   0.19900000E+01           0.00000000E+00
   0.20000000E+01           0.00000000E+00
 #T=     6.0000
  -0.20000000E+01           0.00000000E+00
  -0.19900000E+01           0.00000000E+00
  -0.19800000E+01           0.00000000E+00
  -0.19700000E+01           0.00000000E+00
  -0.19600000E+01           0.00000000E+00
  -0.19500000E+01           0.00000000E+00
  -0.19400000E+01           0.00000000E+00
  -0.19300000E+01           0.00000000E+00
  -0.19200000E+01           0.00000000E+00
  -0.19100000E+01           0.00000000E+00
  -0.19000000E+01           0.00000000E+00
  -0.18900000E+01           0.00000000E+00
  -0.18800000E+01           0.00000000E+00
  -0.18700000E+01           0.00000000E+00
  -0.18600000E+01           0.00000000E+00
  -0.18500000E+01           0.00000000E+00
  -0.18400000E+01           0.00000000E+00
  -0.18300000E+01           0.00000000E+00
  -0.18200000E+01           0.00000000E+00
  -0.18100000E+01           0.00000000E+00
  -0.18000000E+01           0.00000000E+00
  -0.17900000E+01           0.00000000E+00
  -0.17800000E+01           0.00000000E+00
  -0.17700000E+01           0.00000000E+00
  -0.17600000E+01           0.00000000E+00
  -0.17500000E+01           0.00000000E+00
  -0.17400000E+01           0.00000000E+00
  -0.17300000E+01           0.00000000E+00
  -0.17200000E+01           0.00000000E+00
  -0.17100000E+01           0.00000000E+00
  -0.17000000E+01           0.00000000E+00
  -0.16900000E+01           0.00000000E+00
  -0.16800000E+01           0.00000000E+00
  -0.16700000E+01           0.00000000E+00
  -0.16600000E+01           0.00000000E+00
  -0.16500000E+01           0.00000000E+00
  -0.16400000E+01           0.00000000E+00
  -0.16300000E+01           0.00000000E+00
  -0.16200000E+01           0.00000000E+00
  -0.16100000E+01           0.00000000E+00
  -0.16000000E+01           0.00000000E+00
  -0.15900000E+01           0.00000000E+00
  -0.15800000E+01           0.00000000E+00
  -0.15700000E+01           0.00000000E+00
  -0.15600000E+01           0.00000000E+00
  -0.15500000E+01           0.00000000E+00
  -0.15400000E+01           0.00000000E+00
  -0.15300000E+01           0.00000000E+00
  -0.15200000E+01           0.00000000E+00
  -0.15100000E+01           0.00000000E+00
  -0.15000000E+01           0.00000000E+00
  -0.14900000E+01           0.00000000E+00
  -0.14800000E+01           0.00000000E+00
  -0.14700000E+01           0.00000000E+00
  -0.14600000E+01           0.00000000E+00
  -0.14500000E+01           0.00000000E+00
  -0.14400000E+01           0.00000000E+00
  -0.14300000E+01           0.00000000E+00
  -0.14200000E+01           0.00000000E+00
  -0.14100000E+01           0.00000000E+00
  -0.14000000E+01           0.00000000E+00
  -0.13900000E+01           0.00000000E+00
  -0.13800000E+01           0.00000000E+00
  -0.13700000E+01           0.00000000E+00
  -0.13600000E+01           0.00000000E+00
  -0.13500000E+01           0.00000000E+00
  -0.13400000E+01           0.00000000E+00
  -0.13300000E+01           0.00000000E+00
  -0.13200000E+01           0.00000000E+00
  -0.13100000E+01           0.00000000E+00
  -0.13000000E+01           0.00000000E+00
  -0.12900000E+01           0.00000000E+00
  -0.12800000E+01           0.00000000E+00
  -0.12700000E+01           0.00000000E+00
  -0.12600000E+01           0.00000000E+00
  -0.12500000E+01           0.00000000E+00
  -0.12400000E+01           0.00000000E+00
  -0.12300000E+01           0.00000000E+00
  -0.12200000E+01           0.00000000E+00
  -0.12100000E+01           0.00000000E+00
  -0.12000000E+01           0.00000000E+00
  -0.11900000E+01           0.00000000E+00
  -0.11800000E+01           0.00000000E+00
  -0.11700000E+01           0.00000000E+00
  -0.11600000E+01           0.00000000E+00
  -0.11500000E+01           0.00000000E+00
  -0.11400000E+01           0.00000000E+00
  -0.11300000E+01           0.00000000E+00
  -0.11200000E+01           0.00000000E+00
  -0.11100000E+01           0.00000000E+00
  -0.11000000E+01           0.00000000E+00
  -0.10900000E+01           0.00000000E+00
  -0.10800000E+01           0.00000000E+00
  -0.10700000E+01           0.00000000E+00
  -0.10600000E+01           0.00000000E+00
  -0.10500000E+01           0.00000000E+00
  -0.10400000E+01           0.00000000E+00
  -0.10300000E+01           0.00000000E+00
  -0.10200000E+01           0.00000000E+00
  -0.10100000E+01           0.00000000E+00
  -0.10000000E+01           0.00000000E+00
  -0.99000000E+00           0.00000000E+00
  -0.98000000E+00           0.00000000E+00
  -0.97000000E+00           0.00000000E+00
  -0.96000000E+00           0.00000000E+00
  -0.95000000E+00           0.00000000E+00
  -0.94000000E+00           0.00000000E+00
  -0.93000000E+00           0.00000000E+00
  -0.92000000E+00           0.00000000E+00
  -0.91000000E+00           0.00000000E+00
  -0.90000000E+00           0.00000000E+00
  -0.89000000E+00           0.00000000E+00
  -0.88000000E+00           0.00000000E+00
  -0.87000000E+00           0.00000000E+00
  -0.86000000E+00           0.00000000E+00
  -0.85000000E+00           0.00000000E+00
  -0.84000000E+00           0.00000000E+00
  -0.83000000E+00           0.00000000E+00
  -0.82000000E+00           0.00000000E+00
  -0.81000000E+00           0.00000000E+00
  -0.80000000E+00           0.00000000E+00
  -0.79000000E+00           0.00000000E+00
  -0.78000000E+00           0.00000000E+00
  -0.77000000E+00           0.00000000E+00
  -0.76000000E+00           0.00000000E+00
  -0.75000000E+00           0.00000000E+00
  -0.74000000E+00           0.00000000E+00
  -0.73000000E+00           0.00000000E+00
  -0.72000000E+00           0.00000000E+00
  -0.71000000E+00           0.00000000E+00
  -0.70000000E+00           0.00000000E+00
  -0.69000000E+00           0.00000000E+00
  -0.68000000E+00           0.00000000E+00
  -0.67000000E+00           0.00000000E+00
  -0.66000000E+00           0.00000000E+00
  -0.65000000E+00           0.00000000E+00
  -0.64000000E+00           0.00000000E+00
  -0.63000000E+00           0.00000000E+00
  -0.62000000E+00           0.00000000E+00
  -0.61000000E+00           0.00000000E+00
  -0.60000000E+00           0.00000000E+00
  -0.59000000E+00           0.00000000E+00
  -0.58000000E+00           0.00000000E+00
  -0.57000000E+00           0.00000000E+00
  -0.56000000E+00           0.00000000E+00
  -0.55000000E+00           0.00000000E+00
  -0.54000000E+00           0.00000000E+00
  -0.53000000E+00           0.00000000E+00
  -0.52000000E+00           0.00000000E+00
  -0.51000000E+00           0.00000000E+00
  -0.50000000E+00           0.00000000E+00
  -0.49000000E+00           0.00000000E+00
  -0.48000000E+00           0.00000000E+00
  -0.47000000E+00           0.00000000E+00
  -0.46000000E+00           0.00000000E+00
  -0.45000000E+00           0.00000000E+00
  -0.44000000E+00           0.00000000E+00
  -0.43000000E+00           0.00000000E+00
  -0.42000000E+00           0.00000000E+00
  -0.41000000E+00           0.00000000E+00
  -0.40000000E+00           0.00000000E+00
  -0.39000000E+00           0.00000000E+00
  -0.38000000E+00           0.00000000E+00
  -0.37000000E+00           0.00000000E+00
  -0.36000000E+00           0.00000000E+00
  -0.35000000E+00           0.00000000E+00
  -0.34000000E+00           0.00000000E+00
  -0.33000000E+00           0.00000000E+00
  -0.32000000E+00           0.00000000E+00
  -0.31000000E+00           0.00000000E+00
  -0.30000000E+00           0.00000000E+00
  -0.29000000E+00           0.00000000E+00
  -0.28000000E+00           0.00000000E+00
  -0.27000000E+00           0.00000000E+00
  -0.26000000E+00           0.00000000E+00
  -0.25000000E+00           0.00000000E+00
  -0.24000000E+00           0.00000000E+00
  -0.23000000E+00           0.00000000E+00
  -0.22000000E+00           0.00000000E+00
  -0.21000000E+00           0.00000000E+00
  -0.20000000E+00           0.00000000E+00
  -0.19000000E+00           0.00000000E+00
  -0.18000000E+00           0.00000000E+00
  -0.17000000E+00           0.00000000E+00
  -0.16000000E+00           0.00000000E+00
  -0.15000000E+00           0.00000000E+00
  -0.14000000E+00           0.00000000E+00
  -0.13000000E+00           0.00000000E+00
  -0.12000000E+00           0.00000000E+00
  -0.11000000E+00           0.00000000E+00
  -0.10000000E+00           0.00000000E+00
  -0.90000000E-01           0.00000000E+00
  -0.80000000E-01           0.00000000E+00
  -0.70000000E-01           0.00000000E+00
  -0.60000000E-01           0.00000000E+00
  -0.50000000E-01           0.00000000E+00
  -0.40000000E-01           0.00000000E+00
  -0.30000000E-01           0.00000000E+00
  -0.20000000E-01           0.00000000E+00
  -0.10000000E-01           0.00000000E+00
   0.00000000E+00           0.18771340E-01
   0.10000000E-01           0.15171102E+00
   0.20000000E-01           0.30440582E+00
   0.30000000E-01           0.45395476E+00
   0.40000000E-01           0.60102152E+00
   0.50000000E-01           0.74601376E+00
   0.60000000E-01           0.88925035E+00
   0.70000000E-01           0.10266368E+01
   0.80000000E-01           0.11603326E+01
   0.90000000E-01           0.12891628E+01
   0.10000000E+00           0.14123460E+01
   0.11000000E+00           0.15286865E+01
   0.12000000E+00           0.16385822E+01
   0.13000000E+00           0.17445408E+01
   0.14000000E+00           0.18386797E+01
   0.15000000E+00           0.19257538E+01
   0.16000000E+00           0.20102510E+01
   0.17000000E+00           0.20813929E+01
   0.18000000E+00           0.21449818E+01
   0.19000000E+00           0.22049504E+01
   0.20000000E+00           0.22563848E+01
   0.21000000E+00           0.22950004E+01
   0.22000000E+00           0.23262150E+01
   0.23000000E+00           0.23523687E+01
   0.24000000E+00           0.23677901E+01
   0.25000000E+00           0.23751422E+01
   0.26000000E+00           0.23816351E+01
   0.27000000E+00           0.23726425E+01
   0.28000000E+00           0.23619701E+01
   0.29000000E+00           0.23422391E+01
   0.30000000E+00           0.23183412E+01
   0.31000000E+00           0.22883633E+01
   0.32000000E+00           0.22508878E+01
   0.33000000E+00           0.22096453E+01
   0.34000000E+00           0.21655149E+01
   0.35000000E+00           0.21137882E+01
   0.36000000E+00           0.20595222E+01
   0.37000000E+00           0.19998139E+01
   0.38000000E+00           0.19424559E+01
   0.39000000E+00           0.18798196E+01
   0.40000000E+00           0.18141391E+01
   0.41000000E+00           0.17473809E+01
   0.42000000E+00           0.16804933E+01
   0.43000000E+00           0.16134623E+01
   0.44000000E+00           0.15443714E+01
   0.45000000E+00           0.14755898E+01
   0.46000000E+00           0.14056726E+01
   0.47000000E+00           0.13369340E+01
   0.48000000E+00           0.12689578E+01
   0.49000000E+00           0.12025726E+01
   0.50000000E+00           0.11381732E+01
   0.51000000E+00           0.10724118E+01
   0.52000000E+00           0.10096460E+01
   0.53000000E+00           0.94931958E+00
   0.54000000E+00           0.89036111E+00
   0.55000000E+00           0.83249974E+00
   0.56000000E+00           0.77762707E+00
   0.57000000E+00           0.72492160E+00
   0.58000000E+00           0.67474250E+00
   0.59000000E+00           0.62683236E+00
   0.60000000E+00           0.58002381E+00
   0.61000000E+00           0.53738104E+00
   0.62000000E+00           0.49587584E+00
   0.63000000E+00           0.45616755E+00
   0.64000000E+00           0.41979295E+00
   0.65000000E+00           0.38485088E+00
   0.66000000E+00           0.35275441E+00
   0.67000000E+00           0.32216305E+00
   0.68000000E+00           0.29359541E+00
   0.69000000E+00           0.26777072E+00
   0.70000000E+00           0.24250644E+00
   0.71000000E+00           0.22097610E+00
   0.72000000E+00           0.19962866E+00
   0.73000000E+00           0.18040441E+00
   0.74000000E+00           0.16198880E+00
   0.75000000E+00           0.14571640E+00
   0.76000000E+00           0.13112284E+00
   0.77000000E+00           0.11738774E+00
   0.78000000E+00           0.10497998E+00
   0.79000000E+00           0.93372222E-01
   0.80000000E+00           0.83384480E-01
   0.81000000E+00           0.74096649E-01
   0.82000000E+00           0.65372928E-01
   0.83000000E+00           0.58058377E-01
   0.84000000E+00           0.51354409E-01
   0.85000000E+00           0.45436949E-01
   0.86000000E+00           0.39872487E-01
   0.87000000E+00           0.34778131E-01
   0.88000000E+00           0.30604233E-01
   0.89000000E+00           0.26690388E-01
   0.90000000E+00           0.23183422E-01
   0.91000000E+00           0.20246914E-01
   0.92000000E+00           0.17497090E-01
   0.93000000E+00           0.15184832E-01
   0.94000000E+00           0.13097443E-01
   0.95000000E+00           0.11427513E-01
   0.96000000E+00           0.97373016E-02
   0.97000000E+00           0.84562610E-02
   0.98000000E+00           0.71722222E-02
   0.99000000E+00           0.60927690E-02
   0.10000000E+01           0.52397707E-02
   0.10100000E+01           0.44760141E-02
   0.10200000E+01           0.37047619E-02
   0.10300000E+01           0.32208995E-02
   0.10400000E+01           0.26388007E-02
   0.10500000E+01           0.22816578E-02
   0.10600000E+01           0.18868607E-02
   0.10700000E+01           0.16016755E-02
   0.10800000E+01           0.13597002E-02
   0.10900000E+01           0.11071429E-02
   0.11000000E+01           0.93589065E-03
   0.11100000E+01           0.80061728E-03
   0.11200000E+01           0.63148148E-03
   0.11300000E+01           0.51684303E-03
   0.11400000E+01           0.43668430E-03
   0.11500000E+01           0.36455026E-03
   0.11600000E+01           0.28968254E-03
   0.11700000E+01           0.24118166E-03
   0.11800000E+01           0.19250441E-03
   0.11900000E+01           0.16190476E-03
   0.12000000E+01           0.12760141E-03
   0.12100000E+01           0.10255732E-03
   0.12200000E+01           0.89858907E-04
   0.12300000E+01           0.66666667E-04
   0.12400000E+01           0.49735450E-04
   0.12500000E+01           0.40652557E-04
   0.12600000E+01           0.40299824E-04
   0.12700000E+01           0.25925926E-04
   0.12800000E+01           0.19312169E-04
   0.12900000E+01           0.14550265E-04
   0.13000000E+01           0.12874780E-04
   0.13100000E+01           0.10052910E-04
   0.13200000E+01           0.81128748E-05
   0.13300000E+01           0.57319224E-05
   0.13400000E+01           0.54673721E-05
   0.13500000E+01           0.21164021E-05
   0.13600000E+01           0.23809524E-05
   0.13700000E+01           0.18518519E-05
   0.13800000E+01           0.13227513E-05
   0.13900000E+01           0.88183422E-06
   0.14000000E+01           0.10582011E-05
   0.14100000E+01           0.88183422E-06
   0.14200000E+01           0.79365079E-06
   0.14300000E+01           0.88183422E-07
   0.14400000E+01           0.26455026E-06
   0.14500000E+01           0.35273369E-06
   0.14600000E+01           0.26455026E-06
   0.14700000E+01           0.00000000E+00
   0.14800000E+01           0.26455026E-06
   0.14900000E+01           0.17636684E-06
   0.15000000E+01           0.88183422E-07
   0.15100000E+01           0.00000000E+00
   0.15200000E+01           0.00000000E+00
   0.15300000E+01           0.00000000E+00
   0.15400000E+01           0.00000000E+00
   0.15500000E+01           0.00000000E+00
   0.15600000E+01           0.00000000E+00
   0.15700000E+01           0.00000000E+00
   0.15800000E+01           0.00000000E+00
   0.15900000E+01           0.00000000E+00
   0.16000000E+01           0.00000000E+00
   0.16100000E+01           0.00000000E+00
   0.16200000E+01           0.00000000E+00
   0.16300000E+01           0.00000000E+00
   0.16400000E+01           0.00000000E+00
   0.16500000E+01           0.00000000E+00
   0.16600000E+01           0.00000000E+00
   0.16700000E+01           0.00000000E+00
   0.16800000E+01           0.00000000E+00
   0.16900000E+01           0.00000000E+00
   0.17000000E+01           0.00000000E+00
   0.17100000E+01           0.00000000E+00
   0.17200000E+01           0.00000000E+00
   0.17300000E+01           0.00000000E+00
   0.17400000E+01           0.00000000E+00
   0.17500000E+01           0.00000000E+00
   0.17600000E+01           0.00000000E+00
   0.17700000E+01           0.00000000E+00
   0.17800000E+01           0.00000000E+00
   0.17900000E+01           0.00000000E+00
   0.18000000E+01           0.00000000E+00
   0.18100000E+01           0.00000000E+00
   0.18200000E+01           0.00000000E+00
   0.18300000E+01           0.00000000E+00
   0.18400000E+01           0.00000000E+00
   0.18500000E+01           0.00000000E+00
   0.18600000E+01           0.00000000E+00
   0.18700000E+01           0.00000000E+00
   0.18800000E+01           0.00000000E+00
   0.18900000E+01           0.00000000E+00
   0.19000000E+01           0.00000000E+00
   0.19100000E+01           0.00000000E+00
   0.19200000E+01           0.00000000E+00
   0.19300000E+01           0.00000000E+00
   0.19400000E+01           0.00000000E+00
   0.19500000E+01           0.00000000E+00
   0.19600000E+01           0.00000000E+00
   0.19700000E+01           0.00000000E+00
   0.19800000E+01           0.00000000E+00
   0.19900000E+01           0.00000000E+00
   0.20000000E+01           0.00000000E+00
 #T=     7.0000
  -0.20000000E+01           0.00000000E+00
  -0.19900000E+01           0.00000000E+00
  -0.19800000E+01           0.00000000E+00
  -0.19700000E+01           0.00000000E+00
  -0.19600000E+01           0.00000000E+00
  -0.19500000E+01           0.00000000E+00
  -0.19400000E+01           0.00000000E+00
  -0.19300000E+01           0.00000000E+00
  -0.19200000E+01           0.00000000E+00
  -0.19100000E+01           0.00000000E+00
  -0.19000000E+01           0.00000000E+00
  -0.18900000E+01           0.00000000E+00
  -0.18800000E+01           0.00000000E+00
  -0.18700000E+01           0.00000000E+00
  -0.18600000E+01           0.00000000E+00
  -0.18500000E+01           0.00000000E+00
  -0.18400000E+01           0.00000000E+00
  -0.18300000E+01           0.00000000E+00
  -0.18200000E+01           0.00000000E+00
  -0.18100000E+01           0.00000000E+00
  -0.18000000E+01           0.00000000E+00
  -0.17900000E+01           0.00000000E+00
  -0.17800000E+01           0.00000000E+00
  -0.17700000E+01           0.00000000E+00
  -0.17600000E+01           0.00000000E+00
  -0.17500000E+01           0.00000000E+00
  -0.17400000E+01           0.00000000E+00
  -0.17300000E+01           0.00000000E+00
  -0.17200000E+01           0.00000000E+00
  -0.17100000E+01           0.00000000E+00
  -0.17000000E+01           0.00000000E+00
  -0.16900000E+01           0.00000000E+00
  -0.16800000E+01           0.00000000E+00
  -0.16700000E+01           0.00000000E+00
  -0.16600000E+01           0.00000000E+00
  -0.16500000E+01           0.00000000E+00
  -0.16400000E+01           0.00000000E+00
  -0.16300000E+01           0.00000000E+00
  -0.16200000E+01           0.00000000E+00
  -0.16100000E+01           0.00000000E+00
  -0.16000000E+01           0.00000000E+00
  -0.15900000E+01           0.00000000E+00
  -0.15800000E+01           0.00000000E+00
  -0.15700000E+01           0.00000000E+00
  -0.15600000E+01           0.00000000E+00
  -0.15500000E+01           0.00000000E+00
  -0.15400000E+01           0.00000000E+00
  -0.15300000E+01           0.00000000E+00
  -0.15200000E+01           0.00000000E+00
  -0.15100000E+01           0.00000000E+00
  -0.15000000E+01           0.00000000E+00
  -0.14900000E+01           0.00000000E+00
  -0.14800000E+01           0.00000000E+00
  -0.14700000E+01           0.00000000E+00
  -0.14600000E+01           0.00000000E+00
  -0.14500000E+01           0.00000000E+00
  -0.14400000E+01           0.00000000E+00
  -0.14300000E+01           0.00000000E+00
  -0.14200000E+01           0.00000000E+00
  -0.14100000E+01           0.00000000E+00
  -0.14000000E+01           0.00000000E+00
  -0.13900000E+01           0.00000000E+00
  -0.13800000E+01           0.00000000E+00
  -0.13700000E+01           0.00000000E+00
  -0.13600000E+01           0.00000000E+00
  -0.13500000E+01           0.00000000E+00
  -0.13400000E+01           0.00000000E+00
  -0.13300000E+01           0.00000000E+00
  -0.13200000E+01           0.00000000E+00
  -0.13100000E+01           0.00000000E+00
  -0.13000000E+01           0.00000000E+00
  -0.12900000E+01           0.00000000E+00
  -0.12800000E+01           0.00000000E+00
  -0.12700000E+01           0.00000000E+00
  -0.12600000E+01           0.00000000E+00
  -0.12500000E+01           0.00000000E+00
  -0.12400000E+01           0.00000000E+00
  -0.12300000E+01           0.00000000E+00
  -0.12200000E+01           0.00000000E+00
  -0.12100000E+01           0.00000000E+00
  -0.12000000E+01           0.00000000E+00
  -0.11900000E+01           0.00000000E+00
  -0.11800000E+01           0.00000000E+00
  -0.11700000E+01           0.00000000E+00
  -0.11600000E+01           0.00000000E+00
  -0.11500000E+01           0.00000000E+00
  -0.11400000E+01           0.00000000E+00
  -0.11300000E+01           0.00000000E+00
  -0.11200000E+01           0.00000000E+00
  -0.11100000E+01           0.00000000E+00
  -0.11000000E+01           0.00000000E+00
  -0.10900000E+01           0.00000000E+00
  -0.10800000E+01           0.00000000E+00
  -0.10700000E+01           0.00000000E+00
  -0.10600000E+01           0.00000000E+00
  -0.10500000E+01           0.00000000E+00
  -0.10400000E+01           0.00000000E+00
  -0.10300000E+01           0.00000000E+00
  -0.10200000E+01           0.00000000E+00
  -0.10100000E+01           0.00000000E+00
  -0.10000000E+01           0.00000000E+00
  -0.99000000E+00           0.00000000E+00
  -0.98000000E+00           0.00000000E+00
  -0.97000000E+00           0.00000000E+00
  -0.96000000E+00           0.00000000E+00
  -0.95000000E+00           0.00000000E+00
  -0.94000000E+00           0.00000000E+00
  -0.93000000E+00           0.00000000E+00
  -0.92000000E+00           0.00000000E+00
  -0.91000000E+00           0.00000000E+00
  -0.90000000E+00           0.00000000E+00
  -0.89000000E+00           0.00000000E+00
  -0.88000000E+00           0.00000000E+00
  -0.87000000E+00           0.00000000E+00
  -0.86000000E+00           0.00000000E+00
  -0.85000000E+00           0.00000000E+00
  -0.84000000E+00           0.00000000E+00
  -0.83000000E+00           0.00000000E+00
  -0.82000000E+00           0.00000000E+00
  -0.81000000E+00           0.00000000E+00
  -0.80000000E+00           0.00000000E+00
  -0.79000000E+00           0.00000000E+00
  -0.78000000E+00           0.00000000E+00
  -0.77000000E+00           0.00000000E+00
  -0.76000000E+00           0.00000000E+00
  -0.75000000E+00           0.00000000E+00
  -0.74000000E+00           0.00000000E+00
  -0.73000000E+00           0.00000000E+00
  -0.72000000E+00           0.00000000E+00
  -0.71000000E+00           0.00000000E+00
  -0.70000000E+00           0.00000000E+00
  -0.69000000E+00           0.00000000E+00
  -0.68000000E+00           0.00000000E+00
  -0.67000000E+00           0.00000000E+00
  -0.66000000E+00           0.00000000E+00
  -0.65000000E+00           0.00000000E+00
  -0.64000000E+00           0.00000000E+00
  -0.63000000E+00           0.00000000E+00
  -0.62000000E+00           0.00000000E+00
  -0.61000000E+00           0.00000000E+00
  -0.60000000E+00           0.00000000E+00
  -0.59000000E+00           0.00000000E+00
  -0.58000000E+00           0.00000000E+00
  -0.57000000E+00           0.00000000E+00
  -0.56000000E+00           0.00000000E+00
  -0.55000000E+00           0.00000000E+00
  -0.54000000E+00           0.00000000E+00
  -0.53000000E+00           0.00000000E+00
  -0.52000000E+00           0.00000000E+00
  -0.51000000E+00           0.00000000E+00
  -0.50000000E+00           0.00000000E+00
  -0.49000000E+00           0.00000000E+00
  -0.48000000E+00           0.00000000E+00
  -0.47000000E+00           0.00000000E+00
  -0.46000000E+00           0.00000000E+00
  -0.45000000E+00           0.00000000E+00
  -0.44000000E+00           0.00000000E+00
  -0.43000000E+00           0.00000000E+00
  -0.42000000E+00           0.00000000E+00
  -0.41000000E+00           0.00000000E+00
  -0.40000000E+00           0.00000000E+00
  -0.39000000E+00           0.00000000E+00
  -0.38000000E+00           0.00000000E+00
  -0.37000000E+00           0.00000000E+00
  -0.36000000E+00           0.00000000E+00
  -0.35000000E+00           0.00000000E+00
  -0.34000000E+00           0.00000000E+00
  -0.33000000E+00           0.00000000E+00
  -0.32000000E+00           0.00000000E+00
  -0.31000000E+00           0.00000000E+00
  -0.30000000E+00           0.00000000E+00
  -0.29000000E+00           0.00000000E+00
  -0.28000000E+00           0.00000000E+00
  -0.27000000E+00           0.00000000E+00
  -0.26000000E+00           0.00000000E+00
  -0.25000000E+00           0.00000000E+00
  -0.24000000E+00           0.00000000E+00
  -0.23000000E+00           0.00000000E+00
  -0.22000000E+00           0.00000000E+00
  -0.21000000E+00           0.00000000E+00
  -0.20000000E+00           0.00000000E+00
  -0.19000000E+00           0.00000000E+00
  -0.18000000E+00           0.00000000E+00
  -0.17000000E+00           0.00000000E+00
  -0.16000000E+00           0.00000000E+00
  -0.15000000E+00           0.00000000E+00
  -0.14000000E+00           0.00000000E+00
  -0.13000000E+00           0.00000000E+00
  -0.12000000E+00           0.00000000E+00
  -0.11000000E+00           0.00000000E+00
  -0.10000000E+00           0.00000000E+00
  -0.90000000E-01           0.00000000E+00
  -0.80000000E-01           0.00000000E+00
  -0.70000000E-01           0.00000000E+00
  -0.60000000E-01           0.00000000E+00
  -0.50000000E-01           0.00000000E+00
  -0.40000000E-01           0.00000000E+00
  -0.30000000E-01           0.00000000E+00
  -0.20000000E-01           0.00000000E+00
  -0.10000000E-01           0.00000000E+00
   0.00000000E+00           0.16044974E-01
   0.10000000E-01           0.13001631E+00
   0.20000000E-01           0.25943677E+00
   0.30000000E-01           0.38695608E+00
   0.40000000E-01           0.51295079E+00
   0.50000000E-01           0.63736764E+00
   0.60000000E-01           0.76008369E+00
   0.70000000E-01           0.87938748E+00
   0.80000000E-01           0.99684074E+00
   0.90000000E-01           0.11067457E+01
   0.10000000E+00           0.12169906E+01
   0.11000000E+00           0.13195525E+01
   0.12000000E+00           0.14192957E+01
   0.13000000E+00           0.15151750E+01
   0.14000000E+00           0.16032945E+01
   0.15000000E+00           0.16848952E+01
   0.16000000E+00           0.17653872E+01
   0.17000000E+00           0.18349646E+01
   0.18000000E+00           0.18973357E+01
   0.19000000E+00           0.19589935E+01
   0.20000000E+00           0.20091733E+01
   0.21000000E+00           0.20560167E+01
   0.22000000E+00           0.20938789E+01
   0.23000000E+00           0.21291817E+01
   0.24000000E+00           0.21546206E+01
   0.25000000E+00           0.21728623E+01
   0.26000000E+00           0.21885229E+01
   0.27000000E+00           0.21971059E+01
   0.28000000E+00           0.21995911E+01
   0.29000000E+00           0.21943308E+01
   0.30000000E+00           0.21890829E+01
   0.31000000E+00           0.21704851E+01
   0.32000000E+00           0.21533299E+01
   0.33000000E+00           0.21291040E+01
   0.34000000E+00           0.21003780E+01
   0.35000000E+00           0.20691995E+01
   0.36000000E+00           0.20328034E+01
   0.37000000E+00           0.19906801E+01
   0.38000000E+00           0.19500795E+01
   0.39000000E+00           0.19032535E+01
   0.40000000E+00           0.18538520E+01
   0.41000000E+00           0.18032675E+01
   0.42000000E+00           0.17507376E+01
   0.43000000E+00           0.16964632E+01
   0.44000000E+00           0.16393528E+01
   0.45000000E+00           0.15818004E+01
   0.46000000E+00           0.15242338E+01
   0.47000000E+00           0.14643721E+01
   0.48000000E+00           0.14075752E+01
   0.49000000E+00           0.13484530E+01
   0.50000000E+00           0.12892900E+01
   0.51000000E+00           0.12310386E+01
   0.52000000E+00           0.11706534E+01
   0.53000000E+00           0.11147464E+01
   0.54000000E+00           0.10608250E+01
   0.55000000E+00           0.10037863E+01
   0.56000000E+00           0.94960556E+00
   0.57000000E+00           0.89559533E+00
   0.58000000E+00           0.84613113E+00
   0.59000000E+00           0.79629877E+00
   0.60000000E+00           0.74859868E+00
   0.61000000E+00           0.70097143E+00
   0.62000000E+00           0.65786102E+00
   0.63000000E+00           0.61366596E+00
   0.64000000E+00           0.57423536E+00
   0.65000000E+00           0.53410362E+00
   0.66000000E+00           0.49732804E+00
   0.67000000E+00           0.46203915E+00
   0.68000000E+00           0.42753818E+00
   0.69000000E+00           0.39570688E+00
   0.70000000E+00           0.36531499E+00
   0.71000000E+00           0.33737178E+00
   0.72000000E+00           0.31004233E+00
   0.73000000E+00           0.28482504E+00
   0.74000000E+00           0.26070459E+00
   0.75000000E+00           0.23959788E+00
   0.76000000E+00           0.21868783E+00
   0.77000000E+00           0.19965450E+00
   0.78000000E+00           0.18171270E+00
   0.79000000E+00           0.16543907E+00
   0.80000000E+00           0.14952381E+00
   0.81000000E+00           0.13591526E+00
   0.82000000E+00           0.12286843E+00
   0.83000000E+00           0.11118404E+00
   0.84000000E+00           0.10001041E+00
   0.85000000E+00           0.90179894E-01
   0.86000000E+00           0.80748325E-01
   0.87000000E+00           0.72468607E-01
   0.88000000E+00           0.64969665E-01
   0.89000000E+00           0.58077601E-01
   0.90000000E+00           0.51642769E-01
   0.91000000E+00           0.46088183E-01
   0.92000000E+00           0.40837213E-01
   0.93000000E+00           0.36078307E-01
   0.94000000E+00           0.31909877E-01
   0.95000000E+00           0.28268783E-01
   0.96000000E+00           0.24922134E-01
   0.97000000E+00           0.21912787E-01
   0.98000000E+00           0.19222575E-01
   0.99000000E+00           0.16935185E-01
   0.10000000E+01           0.14745944E-01
   0.10100000E+01           0.12915873E-01
   0.10200000E+01           0.11219048E-01
   0.10300000E+01           0.97778660E-02
   0.10400000E+01           0.84519400E-02
   0.10500000E+01           0.73389771E-02
   0.10600000E+01           0.63679894E-02
   0.10700000E+01           0.55036155E-02
   0.10800000E+01           0.46722222E-02
   0.10900000E+01           0.40605820E-02
   0.11000000E+01           0.34449735E-02
   0.11100000E+01           0.29847443E-02
   0.11200000E+01           0.24607584E-02
   0.11300000E+01           0.21704586E-02
   0.11400000E+01           0.18363316E-02
   0.11500000E+01           0.15697531E-02
   0.11600000E+01           0.12950617E-02
   0.11700000E+01           0.10941799E-02
   0.11800000E+01           0.90317460E-03
   0.11900000E+01           0.79091711E-03
   0.12000000E+01           0.67592593E-03
   0.12100000E+01           0.54629630E-03
   0.12200000E+01           0.45070547E-03
   0.12300000E+01           0.38562610E-03
   0.12400000E+01           0.32363316E-03
   0.12500000E+01           0.24523810E-03
   0.12600000E+01           0.21940035E-03
   0.12700000E+01           0.16887125E-03
   0.12800000E+01           0.13703704E-03
   0.12900000E+01           0.11410935E-03
   0.13000000E+01           0.10132275E-03
   0.13100000E+01           0.70811287E-04
   0.13200000E+01           0.65343915E-04
   0.13300000E+01           0.54232804E-04
   0.13400000E+01           0.40828924E-04
   0.13500000E+01           0.29894180E-04
   0.13600000E+01           0.27425044E-04
   0.13700000E+01           0.22222222E-04
   0.13800000E+01           0.18871252E-04
   0.13900000E+01           0.12081129E-04
   0.14000000E+01           0.10405644E-04
   0.14100000E+01           0.90828924E-05
   0.14200000E+01           0.68783069E-05
   0.14300000E+01           0.61728395E-05
   0.14400000E+01           0.34391534E-05
   0.14500000E+01           0.29100529E-05
   0.14600000E+01           0.29100529E-05
   0.14700000E+01           0.12345679E-05
   0.14800000E+01           0.20282187E-05
   0.14900000E+01           0.11463845E-05
   0.15000000E+01           0.88183422E-06
   0.15100000E+01           0.44091711E-06
   0.15200000E+01           0.70546737E-06
   0.15300000E+01           0.79365079E-06
   0.15400000E+01           0.35273369E-06
   0.15500000E+01           0.88183422E-07
   0.15600000E+01           0.26455026E-06
   0.15700000E+01           0.26455026E-06
   0.15800000E+01           0.88183422E-07
   0.15900000E+01           0.00000000E+00
   0.16000000E+01           0.00000000E+00
   0.16100000E+01           0.00000000E+00
   0.16200000E+01           0.00000000E+00
   0.16300000E+01           0.00000000E+00
   0.16400000E+01           0.00000000E+00
   0.16500000E+01           0.00000000E+00
   0.16600000E+01           0.00000000E+00
   0.16700000E+01           0.00000000E+00
   0.16800000E+01           0.00000000E+00
   0.16900000E+01           0.00000000E+00
   0.17000000E+01           0.00000000E+00
   0.17100000E+01           0.00000000E+00
   0.17200000E+01           0.00000000E+00
   0.17300000E+01           0.00000000E+00
   0.17400000E+01           0.00000000E+00
   0.17500000E+01           0.00000000E+00
   0.17600000E+01           0.00000000E+00
   0.17700000E+01           0.00000000E+00
   0.17800000E+01           0.00000000E+00
   0.17900000E+01           0.00000000E+00
   0.18000000E+01           0.00000000E+00
   0.18100000E+01           0.00000000E+00
   0.18200000E+01           0.00000000E+00
   0.18300000E+01           0.88183422E-07
   0.18400000E+01           0.00000000E+00
   0.18500000E+01           0.00000000E+00
   0.18600000E+01           0.00000000E+00
   0.18700000E+01           0.00000000E+00
   0.18800000E+01           0.00000000E+00
   0.18900000E+01           0.00000000E+00
   0.19000000E+01           0.00000000E+00
   0.19100000E+01           0.00000000E+00
   0.19200000E+01           0.00000000E+00
   0.19300000E+01           0.00000000E+00
   0.19400000E+01           0.00000000E+00
   0.19500000E+01           0.00000000E+00
   0.19600000E+01           0.00000000E+00
   0.19700000E+01           0.00000000E+00
   0.19800000E+01           0.00000000E+00
   0.19900000E+01           0.00000000E+00
   0.20000000E+01           0.00000000E+00
 #T=     8.0000
  -0.20000000E+01           0.00000000E+00
  -0.19900000E+01           0.00000000E+00
  -0.19800000E+01           0.00000000E+00
  -0.19700000E+01           0.00000000E+00
  -0.19600000E+01           0.00000000E+00
  -0.19500000E+01           0.00000000E+00
  -0.19400000E+01           0.00000000E+00
  -0.19300000E+01           0.00000000E+00
  -0.19200000E+01           0.00000000E+00
  -0.19100000E+01           0.00000000E+00
  -0.19000000E+01           0.00000000E+00
  -0.18900000E+01           0.00000000E+00
  -0.18800000E+01           0.00000000E+00
  -0.18700000E+01           0.00000000E+00
  -0.18600000E+01           0.00000000E+00
  -0.18500000E+01           0.00000000E+00
  -0.18400000E+01           0.00000000E+00
  -0.18300000E+01           0.00000000E+00
  -0.18200000E+01           0.00000000E+00
  -0.18100000E+01           0.00000000E+00
  -0.18000000E+01           0.00000000E+00
  -0.17900000E+01           0.00000000E+00
  -0.17800000E+01           0.00000000E+00
  -0.17700000E+01           0.00000000E+00
  -0.17600000E+01           0.00000000E+00
  -0.17500000E+01           0.00000000E+00
  -0.17400000E+01           0.00000000E+00
  -0.17300000E+01           0.00000000E+00
  -0.17200000E+01           0.00000000E+00
  -0.17100000E+01           0.00000000E+00
  -0.17000000E+01           0.00000000E+00
  -0.16900000E+01           0.00000000E+00
  -0.16800000E+01           0.00000000E+00
  -0.16700000E+01           0.00000000E+00
  -0.16600000E+01           0.00000000E+00
  -0.16500000E+01           0.00000000E+00
  -0.16400000E+01           0.00000000E+00
  -0.16300000E+01           0.00000000E+00
  -0.16200000E+01           0.00000000E+00
  -0.16100000E+01           0.00000000E+00
  -0.16000000E+01           0.00000000E+00
  -0.15900000E+01           0.00000000E+00
  -0.15800000E+01           0.00000000E+00
  -0.15700000E+01           0.00000000E+00
  -0.15600000E+01           0.00000000E+00
  -0.15500000E+01           0.00000000E+00
  -0.15400000E+01           0.00000000E+00
  -0.15300000E+01           0.00000000E+00
  -0.15200000E+01           0.00000000E+00
  -0.15100000E+01           0.00000000E+00
  -0.15000000E+01           0.00000000E+00
  -0.14900000E+01           0.00000000E+00
  -0.14800000E+01           0.00000000E+00
  -0.14700000E+01           0.00000000E+00
  -0.14600000E+01           0.00000000E+00
  -0.14500000E+01           0.00000000E+00
  -0.14400000E+01           0.00000000E+00
  -0.14300000E+01           0.00000000E+00
  -0.14200000E+01           0.00000000E+00
  -0.14100000E+01           0.00000000E+00
  -0.14000000E+01           0.00000000E+00
  -0.13900000E+01           0.00000000E+00
  -0.13800000E+01           0.00000000E+00
  -0.13700000E+01           0.00000000E+00
  -0.13600000E+01           0.00000000E+00
  -0.13500000E+01           0.00000000E+00
  -0.13400000E+01           0.00000000E+00
  -0.13300000E+01           0.00000000E+00
  -0.13200000E+01           0.00000000E+00
  -0.13100000E+01           0.00000000E+00
  -0.13000000E+01           0.00000000E+00
  -0.12900000E+01           0.00000000E+00
  -0.12800000E+01           0.00000000E+00
  -0.12700000E+01           0.00000000E+00
  -0.12600000E+01           0.00000000E+00
  -0.12500000E+01           0.00000000E+00
  -0.12400000E+01           0.00000000E+00
  -0.12300000E+01           0.00000000E+00
  -0.12200000E+01           0.00000000E+00
  -0.12100000E+01           0.00000000E+00
  -0.12000000E+01           0.00000000E+00
  -0.11900000E+01           0.00000000E+00
  -0.11800000E+01           0.00000000E+00
  -0.11700000E+01           0.00000000E+00
  -0.11600000E+01           0.00000000E+00
  -0.11500000E+01           0.00000000E+00
  -0.11400000E+01           0.00000000E+00
  -0.11300000E+01           0.00000000E+00
  -0.11200000E+01           0.00000000E+00
  -0.11100000E+01           0.00000000E+00
  -0.11000000E+01           0.00000000E+00
  -0.10900000E+01           0.00000000E+00
  -0.10800000E+01           0.00000000E+00
  -0.10700000E+01           0.00000000E+00
  -0.10600000E+01           0.00000000E+00
  -0.10500000E+01           0.00000000E+00
  -0.10400000E+01           0.00000000E+00
  -0.10300000E+01           0.00000000E+00
  -0.10200000E+01           0.00000000E+00
  -0.10100000E+01           0.00000000E+00
  -0.10000000E+01           0.00000000E+00
  -0.99000000E+00           0.00000000E+00
  -0.98000000E+00           0.00000000E+00
  -0.97000000E+00           0.00000000E+00
  -0.96000000E+00           0.00000000E+00
  -0.95000000E+00           0.00000000E+00
  -0.94000000E+00           0.00000000E+00
  -0.93000000E+00           0.00000000E+00
  -0.92000000E+00           0.00000000E+00
  -0.91000000E+00           0.00000000E+00
  -0.90000000E+00           0.00000000E+00
  -0.89000000E+00           0.00000000E+00
  -0.88000000E+00           0.00000000E+00
  -0.87000000E+00           0.00000000E+00
  -0.86000000E+00           0.00000000E+00
  -0.85000000E+00           0.00000000E+00
  -0.84000000E+00           0.00000000E+00
  -0.83000000E+00           0.00000000E+00
  -0.82000000E+00           0.00000000E+00
  -0.81000000E+00           0.00000000E+00
  -0.80000000E+00           0.00000000E+00
  -0.79000000E+00           0.00000000E+00
  -0.78000000E+00           0.00000000E+00
  -0.77000000E+00           0.00000000E+00
  -0.76000000E+00           0.00000000E+00
  -0.75000000E+00           0.00000000E+00
  -0.74000000E+00           0.00000000E+00
  -0.73000000E+00           0.00000000E+00
  -0.72000000E+00           0.00000000E+00
  -0.71000000E+00           0.00000000E+00
  -0.70000000E+00           0.00000000E+00
  -0.69000000E+00           0.00000000E+00
  -0.68000000E+00           0.00000000E+00
  -0.67000000E+00           0.00000000E+00
  -0.66000000E+00           0.00000000E+00
  -0.65000000E+00           0.00000000E+00
  -0.64000000E+00           0.00000000E+00
  -0.63000000E+00           0.00000000E+00
  -0.62000000E+00           0.00000000E+00
  -0.61000000E+00           0.00000000E+00
  -0.60000000E+00           0.00000000E+00
  -0.59000000E+00           0.00000000E+00
  -0.58000000E+00           0.00000000E+00
  -0.57000000E+00           0.00000000E+00
  -0.56000000E+00           0.00000000E+00
  -0.55000000E+00           0.00000000E+00
  -0.54000000E+00           0.00000000E+00
  -0.53000000E+00           0.00000000E+00
  -0.52000000E+00           0.00000000E+00
  -0.51000000E+00           0.00000000E+00
  -0.50000000E+00           0.00000000E+00
  -0.49000000E+00           0.00000000E+00
  -0.48000000E+00           0.00000000E+00
  -0.47000000E+00           0.00000000E+00
  -0.46000000E+00           0.00000000E+00
  -0.45000000E+00           0.00000000E+00
  -0.44000000E+00           0.00000000E+00
  -0.43000000E+00           0.00000000E+00
  -0.42000000E+00           0.00000000E+00
  -0.41000000E+00           0.00000000E+00
  -0.40000000E+00           0.00000000E+00
  -0.39000000E+00           0.00000000E+00
  -0.38000000E+00           0.00000000E+00
  -0.37000000E+00           0.00000000E+00
  -0.36000000E+00           0.00000000E+00
  -0.35000000E+00           0.00000000E+00
  -0.34000000E+00           0.00000000E+00
  -0.33000000E+00           0.00000000E+00
  -0.32000000E+00           0.00000000E+00
  -0.31000000E+00           0.00000000E+00
  -0.30000000E+00           0.00000000E+00
  -0.29000000E+00           0.00000000E+00
  -0.28000000E+00           0.00000000E+00
  -0.27000000E+00           0.00000000E+00
  -0.26000000E+00           0.00000000E+00
  -0.25000000E+00           0.00000000E+00
  -0.24000000E+00           0.00000000E+00
  -0.23000000E+00           0.00000000E+00
  -0.22000000E+00           0.00000000E+00
  -0.21000000E+00           0.00000000E+00
  -0.20000000E+00           0.00000000E+00
  -0.19000000E+00           0.00000000E+00
  -0.18000000E+00           0.00000000E+00
  -0.17000000E+00           0.00000000E+00
  -0.16000000E+00           0.00000000E+00
  -0.15000000E+00           0.00000000E+00
  -0.14000000E+00           0.00000000E+00
  -0.13000000E+00           0.00000000E+00
  -0.12000000E+00           0.00000000E+00
  -0.11000000E+00           0.00000000E+00
  -0.10000000E+00           0.00000000E+00
  -0.90000000E-01           0.00000000E+00
  -0.80000000E-01           0.00000000E+00
  -0.70000000E-01           0.00000000E+00
  -0.60000000E-01           0.00000000E+00
  -0.50000000E-01           0.00000000E+00
  -0.40000000E-01           0.00000000E+00
  -0.30000000E-01           0.00000000E+00
  -0.20000000E-01           0.00000000E+00
  -0.10000000E-01           0.00000000E+00
   0.00000000E+00           0.14014638E-01
   0.10000000E-01           0.11222134E+00
   0.20000000E-01           0.22564630E+00
   0.30000000E-01           0.33744206E+00
   0.40000000E-01           0.44706958E+00
   0.50000000E-01           0.55587769E+00
   0.60000000E-01           0.66373933E+00
   0.70000000E-01           0.76896420E+00
   0.80000000E-01           0.87098871E+00
   0.90000000E-01           0.97117460E+00
   0.10000000E+00           0.10677110E+01
   0.11000000E+00           0.11618802E+01
   0.12000000E+00           0.12508891E+01
   0.13000000E+00           0.13383929E+01
   0.14000000E+00           0.14174216E+01
   0.15000000E+00           0.14919933E+01
   0.16000000E+00           0.15653458E+01
   0.17000000E+00           0.16343056E+01
   0.18000000E+00           0.16994915E+01
   0.19000000E+00           0.17540034E+01
   0.20000000E+00           0.18090523E+01
   0.21000000E+00           0.18567970E+01
   0.22000000E+00           0.18988182E+01
   0.23000000E+00           0.19373533E+01
   0.24000000E+00           0.19664392E+01
   0.25000000E+00           0.19933762E+01
   0.26000000E+00           0.20128688E+01
   0.27000000E+00           0.20311658E+01
   0.28000000E+00           0.20427231E+01
   0.29000000E+00           0.20500533E+01
   0.30000000E+00           0.20542515E+01
   0.31000000E+00           0.20510856E+01
   0.32000000E+00           0.20446002E+01
   0.33000000E+00           0.20320261E+01
   0.34000000E+00           0.20155083E+01
   0.35000000E+00           0.19975861E+01
   0.36000000E+00           0.19738989E+01
   0.37000000E+00           0.19488998E+01
   0.38000000E+00           0.19159473E+01
   0.39000000E+00           0.18855883E+01
   0.40000000E+00           0.18487535E+01
   0.41000000E+00           0.18103422E+01
   0.42000000E+00           0.17691200E+01
   0.43000000E+00           0.17283256E+01
   0.44000000E+00           0.16826438E+01
   0.45000000E+00           0.16361137E+01
   0.46000000E+00           0.15878621E+01
   0.47000000E+00           0.15407759E+01
   0.48000000E+00           0.14907206E+01
   0.49000000E+00           0.14396802E+01
   0.50000000E+00           0.13892258E+01
   0.51000000E+00           0.13365014E+01
   0.52000000E+00           0.12854011E+01
   0.53000000E+00           0.12354568E+01
   0.54000000E+00           0.11824077E+01
   0.55000000E+00           0.11331365E+01
   0.56000000E+00           0.10804275E+01
   0.57000000E+00           0.10320109E+01
   0.58000000E+00           0.98273192E+00
   0.59000000E+00           0.93428607E+00
   0.60000000E+00           0.88763051E+00
   0.61000000E+00           0.84235088E+00
   0.62000000E+00           0.79623060E+00
   0.63000000E+00           0.75336023E+00
   0.64000000E+00           0.71114489E+00
   0.65000000E+00           0.67014850E+00
   0.66000000E+00           0.63002989E+00
   0.67000000E+00           0.59187143E+00
   0.68000000E+00           0.55511526E+00
   0.69000000E+00           0.52023765E+00
   0.70000000E+00           0.48679092E+00
   0.71000000E+00           0.45394489E+00
   0.72000000E+00           0.42380944E+00
   0.73000000E+00           0.39422910E+00
   0.74000000E+00           0.36689215E+00
   0.75000000E+00           0.34028580E+00
   0.76000000E+00           0.31541940E+00
   0.77000000E+00           0.29164180E+00
   0.78000000E+00           0.26961728E+00
   0.79000000E+00           0.24882998E+00
   0.80000000E+00           0.22901446E+00
   0.81000000E+00           0.21095459E+00
   0.82000000E+00           0.19338413E+00
   0.83000000E+00           0.17695556E+00
   0.84000000E+00           0.16214012E+00
   0.85000000E+00           0.14814400E+00
   0.86000000E+00           0.13519453E+00
   0.87000000E+00           0.12322108E+00
   0.88000000E+00           0.11168959E+00
   0.89000000E+00           0.10166005E+00
   0.90000000E+00           0.92421781E-01
   0.91000000E+00           0.83458995E-01
   0.92000000E+00           0.75678748E-01
   0.93000000E+00           0.68070635E-01
   0.94000000E+00           0.61125485E-01
   0.95000000E+00           0.54965344E-01
   0.96000000E+00           0.49472575E-01
   0.97000000E+00           0.44081481E-01
   0.98000000E+00           0.39501764E-01
   0.99000000E+00           0.35428836E-01
   0.10000000E+01           0.31555644E-01
   0.10100000E+01           0.28136420E-01
   0.10200000E+01           0.24885802E-01
   0.10300000E+01           0.22263228E-01
   0.10400000E+01           0.19543827E-01
   0.10500000E+01           0.17332363E-01
   0.10600000E+01           0.15374074E-01
   0.10700000E+01           0.13410141E-01
   0.10800000E+01           0.11861552E-01
   0.10900000E+01           0.10396473E-01
   0.11000000E+01           0.91243386E-02
   0.11100000E+01           0.79354497E-02
   0.11200000E+01           0.69028219E-02
   0.11300000E+01           0.60179894E-02
   0.11400000E+01           0.52592593E-02
   0.11500000E+01           0.44788360E-02
   0.11600000E+01           0.39081129E-02
   0.11700000E+01           0.34040564E-02
   0.11800000E+01           0.29200176E-02
   0.11900000E+01           0.25048501E-02
   0.12000000E+01           0.21634921E-02
   0.12100000E+01           0.18626984E-02
   0.12200000E+01           0.15826279E-02
   0.12300000E+01           0.13582011E-02
   0.12400000E+01           0.11704586E-02
   0.12500000E+01           0.97028219E-03
   0.12600000E+01           0.82416226E-03
   0.12700000E+01           0.69567901E-03
   0.12800000E+01           0.58465608E-03
   0.12900000E+01           0.50246914E-03
   0.13000000E+01           0.41657848E-03
   0.13100000E+01           0.35361552E-03
   0.13200000E+01           0.28148148E-03
   0.13300000E+01           0.24285714E-03
   0.13400000E+01           0.20502646E-03
   0.13500000E+01           0.16552028E-03
   0.13600000E+01           0.14241623E-03
   0.13700000E+01           0.11164021E-03
   0.13800000E+01           0.83597884E-04
   0.13900000E+01           0.73633157E-04
   0.14000000E+01           0.58024691E-04
   0.14100000E+01           0.50352734E-04
   0.14200000E+01           0.41975309E-04
   0.14300000E+01           0.35097002E-04
   0.14400000E+01           0.24779541E-04
   0.14500000E+01           0.24514991E-04
   0.14600000E+01           0.16225750E-04
   0.14700000E+01           0.12345679E-04
   0.14800000E+01           0.12081129E-04
   0.14900000E+01           0.85537919E-05
   0.15000000E+01           0.74074074E-05
   0.15100000E+01           0.47619048E-05
   0.15200000E+01           0.41446208E-05
   0.15300000E+01           0.32627866E-05
   0.15400000E+01           0.28218695E-05
   0.15500000E+01           0.15873016E-05
   0.15600000E+01           0.13227513E-05
   0.15700000E+01           0.97001764E-06
   0.15800000E+01           0.70546737E-06
   0.15900000E+01           0.35273369E-06
   0.16000000E+01           0.35273369E-06
   0.16100000E+01           0.10582011E-05
   0.16200000E+01           0.52910053E-06
   0.16300000E+01           0.88183422E-07
   0.16400000E+01           0.88183422E-07
   0.16500000E+01           0.17636684E-06
   0.16600000E+01           0.00000000E+00
   0.16700000E+01           0.88183422E-07
   0.16800000E+01           0.88183422E-07
   0.16900000E+01           0.17636684E-06
   0.17000000E+01           0.17636684E-06
   0.17100000E+01           0.00000000E+00
   0.17200000E+01           0.00000000E+00
   0.17300000E+01           0.00000000E+00
   0.17400000E+01           0.00000000E+00
   0.17500000E+01           0.00000000E+00
   0.17600000E+01           0.88183422E-07
   0.17700000E+01           0.00000000E+00
   0.17800000E+01           0.00000000E+00
   0.17900000E+01           0.00000000E+00
   0.18000000E+01           0.00000000E+00
   0.18100000E+01           0.00000000E+00
   0.18200000E+01           0.00000000E+00
   0.18300000E+01           0.00000000E+00
   0.18400000E+01           0.00000000E+00
   0.18500000E+01           0.00000000E+00
   0.18600000E+01           0.00000000E+00
   0.18700000E+01           0.00000000E+00
   0.18800000E+01           0.00000000E+00
   0.18900000E+01           0.00000000E+00
   0.19000000E+01           0.00000000E+00
   0.19100000E+01           0.00000000E+00
   0.19200000E+01           0.00000000E+00
   0.19300000E+01           0.00000000E+00
   0.19400000E+01           0.00000000E+00
   0.19500000E+01           0.00000000E+00
   0.19600000E+01           0.00000000E+00
   0.19700000E+01           0.00000000E+00
   0.19800000E+01           0.00000000E+00
   0.19900000E+01           0.00000000E+00
   0.20000000E+01           0.00000000E+00
 #T=     9.0000
  -0.20000000E+01           0.00000000E+00
  -0.19900000E+01           0.00000000E+00
  -0.19800000E+01           0.00000000E+00
  -0.19700000E+01           0.00000000E+00
  -0.19600000E+01           0.00000000E+00
  -0.19500000E+01           0.00000000E+00
  -0.19400000E+01           0.00000000E+00
  -0.19300000E+01           0.00000000E+00
  -0.19200000E+01           0.00000000E+00
  -0.19100000E+01           0.00000000E+00
  -0.19000000E+01           0.00000000E+00
  -0.18900000E+01           0.00000000E+00
  -0.18800000E+01           0.00000000E+00
  -0.18700000E+01           0.00000000E+00
  -0.18600000E+01           0.00000000E+00
  -0.18500000E+01           0.00000000E+00
  -0.18400000E+01           0.00000000E+00
  -0.18300000E+01           0.00000000E+00
  -0.18200000E+01           0.00000000E+00
  -0.18100000E+01           0.00000000E+00
  -0.18000000E+01           0.00000000E+00
  -0.17900000E+01           0.00000000E+00
  -0.17800000E+01           0.00000000E+00
  -0.17700000E+01           0.00000000E+00
  -0.17600000E+01           0.00000000E+00
  -0.17500000E+01           0.00000000E+00
  -0.17400000E+01           0.00000000E+00
  -0.17300000E+01           0.00000000E+00
  -0.17200000E+01           0.00000000E+00
  -0.17100000E+01           0.00000000E+00
  -0.17000000E+01           0.00000000E+00
  -0.16900000E+01           0.00000000E+00
  -0.16800000E+01           0.00000000E+00
  -0.16700000E+01           0.00000000E+00
  -0.16600000E+01           0.00000000E+00
  -0.16500000E+01           0.00000000E+00
  -0.16400000E+01           0.00000000E+00
  -0.16300000E+01           0.00000000E+00
  -0.16200000E+01           0.00000000E+00
  -0.16100000E+01           0.00000000E+00
  -0.16000000E+01           0.00000000E+00
  -0.15900000E+01           0.00000000E+00
  -0.15800000E+01           0.00000000E+00
  -0.15700000E+01           0.00000000E+00
  -0.15600000E+01           0.00000000E+00
  -0.15500000E+01           0.00000000E+00
  -0.15400000E+01           0.00000000E+00
  -0.15300000E+01           0.00000000E+00
  -0.15200000E+01           0.00000000E+00
  -0.15100000E+01           0.00000000E+00
  -0.15000000E+01           0.00000000E+00
  -0.14900000E+01           0.00000000E+00
  -0.14800000E+01           0.00000000E+00
  -0.14700000E+01           0.00000000E+00
  -0.14600000E+01           0.00000000E+00
  -0.14500000E+01           0.00000000E+00
  -0.14400000E+01           0.00000000E+00
  -0.14300000E+01           0.00000000E+00
  -0.14200000E+01           0.00000000E+00
  -0.14100000E+01           0.00000000E+00
  -0.14000000E+01           0.00000000E+00
  -0.13900000E+01           0.00000000E+00
  -0.13800000E+01           0.00000000E+00
  -0.13700000E+01           0.00000000E+00
  -0.13600000E+01           0.00000000E+00
  -0.13500000E+01           0.00000000E+00
  -0.13400000E+01           0.00000000E+00
  -0.13300000E+01           0.00000000E+00
  -0.13200000E+01           0.00000000E+00
  -0.13100000E+01           0.00000000E+00
  -0.13000000E+01           0.00000000E+00
  -0.12900000E+01           0.00000000E+00
  -0.12800000E+01           0.00000000E+00
  -0.12700000E+01           0.00000000E+00
  -0.12600000E+01           0.00000000E+00
  -0.12500000E+01           0.00000000E+00
  -0.12400000E+01           0.00000000E+00
  -0.12300000E+01           0.00000000E+00
  -0.12200000E+01           0.00000000E+00
  -0.12100000E+01           0.00000000E+00
  -0.12000000E+01           0.00000000E+00
  -0.11900000E+01           0.00000000E+00
  -0.11800000E+01           0.00000000E+00
  -0.11700000E+01           0.00000000E+00
  -0.11600000E+01           0.00000000E+00
  -0.11500000E+01           0.00000000E+00
  -0.11400000E+01           0.00000000E+00
  -0.11300000E+01           0.00000000E+00
  -0.11200000E+01           0.00000000E+00
  -0.11100000E+01           0.00000000E+00
  -0.11000000E+01           0.00000000E+00
  -0.10900000E+01           0.00000000E+00
  -0.10800000E+01           0.00000000E+00
  -0.10700000E+01           0.00000000E+00
  -0.10600000E+01           0.00000000E+00
  -0.10500000E+01           0.00000000E+00
  -0.10400000E+01           0.00000000E+00
  -0.10300000E+01           0.00000000E+00
  -0.10200000E+01           0.00000000E+00
  -0.10100000E+01           0.00000000E+00
  -0.10000000E+01           0.00000000E+00
  -0.99000000E+00           0.00000000E+00
  -0.98000000E+00           0.00000000E+00
  -0.97000000E+00           0.00000000E+00
  -0.96000000E+00           0.00000000E+00
  -0.95000000E+00           0.00000000E+00
  -0.94000000E+00           0.00000000E+00
  -0.93000000E+00           0.00000000E+00
  -0.92000000E+00           0.00000000E+00
  -0.91000000E+00           0.00000000E+00
  -0.90000000E+00           0.00000000E+00
  -0.89000000E+00           0.00000000E+00
  -0.88000000E+00           0.00000000E+00
  -0.87000000E+00           0.00000000E+00
  -0.86000000E+00           0.00000000E+00
  -0.85000000E+00           0.00000000E+00
  -0.84000000E+00           0.00000000E+00
  -0.83000000E+00           0.00000000E+00
  -0.82000000E+00           0.00000000E+00
  -0.81000000E+00           0.00000000E+00
  -0.80000000E+00           0.00000000E+00
  -0.79000000E+00           0.00000000E+00
  -0.78000000E+00           0.00000000E+00
  -0.77000000E+00           0.00000000E+00
  -0.76000000E+00           0.00000000E+00
  -0.75000000E+00           0.00000000E+00
  -0.74000000E+00           0.00000000E+00
  -0.73000000E+00           0.00000000E+00
  -0.72000000E+00           0.00000000E+00
  -0.71000000E+00           0.00000000E+00
  -0.70000000E+00           0.00000000E+00
  -0.69000000E+00           0.00000000E+00
  -0.68000000E+00           0.00000000E+00
  -0.67000000E+00           0.00000000E+00
  -0.66000000E+00           0.00000000E+00
  -0.65000000E+00           0.00000000E+00
  -0.64000000E+00           0.00000000E+00
  -0.63000000E+00           0.00000000E+00
  -0.62000000E+00           0.00000000E+00
  -0.61000000E+00           0.00000000E+00
  -0.60000000E+00           0.00000000E+00
  -0.59000000E+00           0.00000000E+00
  -0.58000000E+00           0.00000000E+00
  -0.57000000E+00           0.00000000E+00
  -0.56000000E+00           0.00000000E+00
  -0.55000000E+00           0.00000000E+00
  -0.54000000E+00           0.00000000E+00
  -0.53000000E+00           0.00000000E+00
  -0.52000000E+00           0.00000000E+00
  -0.51000000E+00           0.00000000E+00
  -0.50000000E+00           0.00000000E+00
  -0.49000000E+00           0.00000000E+00
  -0.48000000E+00           0.00000000E+00
  -0.47000000E+00           0.00000000E+00
  -0.46000000E+00           0.00000000E+00
  -0.45000000E+00           0.00000000E+00
  -0.44000000E+00           0.00000000E+00
  -0.43000000E+00           0.00000000E+00
  -0.42000000E+00           0.00000000E+00
  -0.41000000E+00           0.00000000E+00
  -0.40000000E+00           0.00000000E+00
  -0.39000000E+00           0.00000000E+00
  -0.38000000E+00           0.00000000E+00
  -0.37000000E+00           0.00000000E+00
  -0.36000000E+00           0.00000000E+00
  -0.35000000E+00           0.00000000E+00
  -0.34000000E+00           0.00000000E+00
  -0.33000000E+00           0.00000000E+00
  -0.32000000E+00           0.00000000E+00
  -0.31000000E+00           0.00000000E+00
  -0.30000000E+00           0.00000000E+00
  -0.29000000E+00           0.00000000E+00
  -0.28000000E+00           0.00000000E+00
  -0.27000000E+00           0.00000000E+00
  -0.26000000E+00           0.00000000E+00
  -0.25000000E+00           0.00000000E+00
  -0.24000000E+00           0.00000000E+00
  -0.23000000E+00           0.00000000E+00
  -0.22000000E+00           0.00000000E+00
  -0.21000000E+00           0.00000000E+00
  -0.20000000E+00           0.00000000E+00
  -0.19000000E+00           0.00000000E+00
  -0.18000000E+00           0.00000000E+00
  -0.17000000E+00           0.00000000E+00
  -0.16000000E+00           0.00000000E+00
  -0.15000000E+00           0.00000000E+00
  -0.14000000E+00           0.00000000E+00
  -0.13000000E+00           0.00000000E+00
  -0.12000000E+00           0.00000000E+00
  -0.11000000E+00           0.00000000E+00
  -0.10000000E+00           0.00000000E+00
  -0.90000000E-01           0.00000000E+00
  -0.80000000E-01           0.00000000E+00
  -0.70000000E-01           0.00000000E+00
  -0.60000000E-01           0.00000000E+00
  -0.50000000E-01           0.00000000E+00
  -0.40000000E-01           0.00000000E+00
  -0.30000000E-01           0.00000000E+00
  -0.20000000E-01           0.00000000E+00
  -0.10000000E-01           0.00000000E+00
   0.00000000E+00           0.12513933E-01
   0.10000000E-01           0.99060847E-01
   0.20000000E-01           0.19808404E+00
   0.30000000E-01           0.29805503E+00
   0.40000000E-01           0.39582848E+00
   0.50000000E-01           0.49210132E+00
   0.60000000E-01           0.58635600E+00
   0.70000000E-01           0.68068695E+00
   0.80000000E-01           0.77218466E+00
   0.90000000E-01           0.86306905E+00
   0.10000000E+00           0.94955432E+00
   0.11000000E+00           0.10335496E+01
   0.12000000E+00           0.11158884E+01
   0.13000000E+00           0.11929587E+01
   0.14000000E+00           0.12677854E+01
   0.15000000E+00           0.13389705E+01
   0.16000000E+00           0.14069285E+01
   0.17000000E+00           0.14708056E+01
   0.18000000E+00           0.15312218E+01
   0.19000000E+00           0.15887356E+01
   0.20000000E+00           0.16400326E+01
   0.21000000E+00           0.16873967E+01
   0.22000000E+00           0.17313484E+01
   0.23000000E+00           0.17709837E+01
   0.24000000E+00           0.18056271E+01
   0.25000000E+00           0.18355858E+01
   0.26000000E+00           0.18618894E+01
   0.27000000E+00           0.18846077E+01
   0.28000000E+00           0.19005625E+01
   0.29000000E+00           0.19151426E+01
   0.30000000E+00           0.19259205E+01
   0.31000000E+00           0.19303519E+01
   0.32000000E+00           0.19320508E+01
   0.33000000E+00           0.19301775E+01
   0.34000000E+00           0.19214564E+01
   0.35000000E+00           0.19128469E+01
   0.36000000E+00           0.19013138E+01
   0.37000000E+00           0.18823787E+01
   0.38000000E+00           0.18627770E+01
   0.39000000E+00           0.18406497E+01
   0.40000000E+00           0.18161760E+01
   0.41000000E+00           0.17879153E+01
   0.42000000E+00           0.17587374E+01
   0.43000000E+00           0.17264147E+01
   0.44000000E+00           0.16912408E+01
   0.45000000E+00           0.16551638E+01
   0.46000000E+00           0.16165639E+01
   0.47000000E+00           0.15744947E+01
   0.48000000E+00           0.15357522E+01
   0.49000000E+00           0.14927130E+01
[...]
   0.13800000E+01           0.69201102E+00
   0.13900000E+01           0.69486746E+00
   0.14000000E+01           0.69799735E+00
   0.14100000E+01           0.70047743E+00
   0.14200000E+01           0.70387310E+00
   0.14300000E+01           0.70678201E+00
   0.14400000E+01           0.71029444E+00
   0.14500000E+01           0.71274541E+00
   0.14600000E+01           0.71571190E+00
   0.14700000E+01           0.71864780E+00
   0.14800000E+01           0.72143765E+00
   0.14900000E+01           0.72431243E+00
   0.15000000E+01           0.72673395E+00
   0.15100000E+01           0.72948792E+00
   0.15200000E+01           0.73215829E+00
   0.15300000E+01           0.73498210E+00
   0.15400000E+01           0.73809224E+00
   0.15500000E+01           0.73996155E+00
   0.15600000E+01           0.74290511E+00
   0.15700000E+01           0.74501614E+00
   0.15800000E+01           0.74760776E+00
   0.15900000E+01           0.74977707E+00
   0.16000000E+01           0.75273051E+00
   0.16100000E+01           0.75423051E+00
   0.16200000E+01           0.75662751E+00
   0.16300000E+01           0.75913042E+00
   0.16400000E+01           0.76115397E+00
   0.16500000E+01           0.76368783E+00
   0.16600000E+01           0.76638607E+00
   0.16700000E+01           0.76824674E+00
   0.16800000E+01           0.76996684E+00
   0.16900000E+01           0.77193351E+00
   0.17000000E+01           0.77420635E+00
   0.17100000E+01           0.77614109E+00
   0.17200000E+01           0.77762469E+00
   0.17300000E+01           0.78043183E+00
   0.17400000E+01           0.78174691E+00
   0.17500000E+01           0.78399339E+00
   0.17600000E+01           0.78565265E+00
   0.17700000E+01           0.78743422E+00
   0.17800000E+01           0.78917081E+00
   0.17900000E+01           0.79056182E+00
   0.18000000E+01           0.79199145E+00
   0.18100000E+01           0.79398192E+00
   0.18200000E+01           0.79611975E+00
   0.18300000E+01           0.79713148E+00
   0.18400000E+01           0.79817125E+00
   0.18500000E+01           0.79978792E+00
   0.18600000E+01           0.80146975E+00
   0.18700000E+01           0.80278404E+00
   0.18800000E+01           0.80408501E+00
   0.18900000E+01           0.80564586E+00
   0.19000000E+01           0.80672496E+00
   0.19100000E+01           0.80825300E+00
   0.19200000E+01           0.80929392E+00
   0.19300000E+01           0.81039400E+00
   0.19400000E+01           0.81156905E+00
   0.19500000E+01           0.81257751E+00
   0.19600000E+01           0.81360503E+00
   0.19700000E+01           0.81498166E+00
   0.19800000E+01           0.81549012E+00
   0.19900000E+01           0.81652593E+00
   0.20000000E+01           0.40856825E+00
 #T=    84.0000
  -0.20000000E+01           0.00000000E+00
  -0.19900000E+01           0.00000000E+00
  -0.19800000E+01           0.00000000E+00
  -0.19700000E+01           0.00000000E+00
  -0.19600000E+01           0.00000000E+00
  -0.19500000E+01           0.00000000E+00
  -0.19400000E+01           0.00000000E+00
  -0.19300000E+01           0.00000000E+00
  -0.19200000E+01           0.00000000E+00
  -0.19100000E+01           0.00000000E+00
  -0.19000000E+01           0.00000000E+00
  -0.18900000E+01           0.00000000E+00
  -0.18800000E+01           0.00000000E+00
  -0.18700000E+01           0.00000000E+00
  -0.18600000E+01           0.00000000E+00
  -0.18500000E+01           0.00000000E+00
  -0.18400000E+01           0.00000000E+00
  -0.18300000E+01           0.00000000E+00
  -0.18200000E+01           0.00000000E+00
  -0.18100000E+01           0.00000000E+00
  -0.18000000E+01           0.00000000E+00
  -0.17900000E+01           0.00000000E+00
  -0.17800000E+01           0.00000000E+00
  -0.17700000E+01           0.00000000E+00
  -0.17600000E+01           0.00000000E+00
  -0.17500000E+01           0.00000000E+00
  -0.17400000E+01           0.00000000E+00
  -0.17300000E+01           0.00000000E+00
  -0.17200000E+01           0.00000000E+00
  -0.17100000E+01           0.00000000E+00
  -0.17000000E+01           0.00000000E+00
  -0.16900000E+01           0.00000000E+00
  -0.16800000E+01           0.00000000E+00
  -0.16700000E+01           0.00000000E+00
  -0.16600000E+01           0.00000000E+00
  -0.16500000E+01           0.00000000E+00
  -0.16400000E+01           0.00000000E+00
  -0.16300000E+01           0.00000000E+00
  -0.16200000E+01           0.00000000E+00
  -0.16100000E+01           0.00000000E+00
  -0.16000000E+01           0.00000000E+00
  -0.15900000E+01           0.00000000E+00
  -0.15800000E+01           0.00000000E+00
  -0.15700000E+01           0.00000000E+00
  -0.15600000E+01           0.00000000E+00
  -0.15500000E+01           0.00000000E+00
  -0.15400000E+01           0.00000000E+00
  -0.15300000E+01           0.00000000E+00
  -0.15200000E+01           0.00000000E+00
  -0.15100000E+01           0.00000000E+00
  -0.15000000E+01           0.00000000E+00
  -0.14900000E+01           0.00000000E+00
  -0.14800000E+01           0.00000000E+00
  -0.14700000E+01           0.00000000E+00
  -0.14600000E+01           0.00000000E+00
  -0.14500000E+01           0.00000000E+00
  -0.14400000E+01           0.00000000E+00
  -0.14300000E+01           0.00000000E+00
  -0.14200000E+01           0.00000000E+00
  -0.14100000E+01           0.00000000E+00
  -0.14000000E+01           0.00000000E+00
  -0.13900000E+01           0.00000000E+00
  -0.13800000E+01           0.00000000E+00
  -0.13700000E+01           0.00000000E+00
  -0.13600000E+01           0.00000000E+00
  -0.13500000E+01           0.00000000E+00
  -0.13400000E+01           0.00000000E+00
  -0.13300000E+01           0.00000000E+00
  -0.13200000E+01           0.00000000E+00
  -0.13100000E+01           0.00000000E+00
  -0.13000000E+01           0.00000000E+00
  -0.12900000E+01           0.00000000E+00
  -0.12800000E+01           0.00000000E+00
  -0.12700000E+01           0.00000000E+00
  -0.12600000E+01           0.00000000E+00
  -0.12500000E+01           0.00000000E+00
  -0.12400000E+01           0.00000000E+00
  -0.12300000E+01           0.00000000E+00
  -0.12200000E+01           0.00000000E+00
  -0.12100000E+01           0.00000000E+00
  -0.12000000E+01           0.00000000E+00
  -0.11900000E+01           0.00000000E+00
  -0.11800000E+01           0.00000000E+00
  -0.11700000E+01           0.00000000E+00
  -0.11600000E+01           0.00000000E+00
  -0.11500000E+01           0.00000000E+00
  -0.11400000E+01           0.00000000E+00
  -0.11300000E+01           0.00000000E+00
  -0.11200000E+01           0.00000000E+00
  -0.11100000E+01           0.00000000E+00
  -0.11000000E+01           0.00000000E+00
  -0.10900000E+01           0.00000000E+00
  -0.10800000E+01           0.00000000E+00
  -0.10700000E+01           0.00000000E+00
  -0.10600000E+01           0.00000000E+00
  -0.10500000E+01           0.00000000E+00
  -0.10400000E+01           0.00000000E+00
  -0.10300000E+01           0.00000000E+00
  -0.10200000E+01           0.00000000E+00
  -0.10100000E+01           0.00000000E+00
  -0.10000000E+01           0.00000000E+00
  -0.99000000E+00           0.00000000E+00
  -0.98000000E+00           0.00000000E+00
  -0.97000000E+00           0.00000000E+00
  -0.96000000E+00           0.00000000E+00
  -0.95000000E+00           0.00000000E+00
  -0.94000000E+00           0.00000000E+00
  -0.93000000E+00           0.00000000E+00
  -0.92000000E+00           0.00000000E+00
  -0.91000000E+00           0.00000000E+00
  -0.90000000E+00           0.00000000E+00
  -0.89000000E+00           0.00000000E+00
  -0.88000000E+00           0.00000000E+00
  -0.87000000E+00           0.00000000E+00
  -0.86000000E+00           0.00000000E+00
  -0.85000000E+00           0.00000000E+00
  -0.84000000E+00           0.00000000E+00
  -0.83000000E+00           0.00000000E+00
  -0.82000000E+00           0.00000000E+00
  -0.81000000E+00           0.00000000E+00
  -0.80000000E+00           0.00000000E+00
  -0.79000000E+00           0.00000000E+00
  -0.78000000E+00           0.00000000E+00
  -0.77000000E+00           0.00000000E+00
  -0.76000000E+00           0.00000000E+00
  -0.75000000E+00           0.00000000E+00
  -0.74000000E+00           0.00000000E+00
  -0.73000000E+00           0.00000000E+00
  -0.72000000E+00           0.00000000E+00
  -0.71000000E+00           0.00000000E+00
  -0.70000000E+00           0.00000000E+00
  -0.69000000E+00           0.00000000E+00
  -0.68000000E+00           0.00000000E+00
  -0.67000000E+00           0.00000000E+00
  -0.66000000E+00           0.00000000E+00
  -0.65000000E+00           0.00000000E+00
  -0.64000000E+00           0.00000000E+00
  -0.63000000E+00           0.00000000E+00
  -0.62000000E+00           0.00000000E+00
  -0.61000000E+00           0.00000000E+00
  -0.60000000E+00           0.00000000E+00
  -0.59000000E+00           0.00000000E+00
  -0.58000000E+00           0.00000000E+00
  -0.57000000E+00           0.00000000E+00
  -0.56000000E+00           0.00000000E+00
  -0.55000000E+00           0.00000000E+00
  -0.54000000E+00           0.00000000E+00
  -0.53000000E+00           0.00000000E+00
  -0.52000000E+00           0.00000000E+00
  -0.51000000E+00           0.00000000E+00
  -0.50000000E+00           0.00000000E+00
  -0.49000000E+00           0.00000000E+00
  -0.48000000E+00           0.00000000E+00
  -0.47000000E+00           0.00000000E+00
  -0.46000000E+00           0.00000000E+00
  -0.45000000E+00           0.00000000E+00
  -0.44000000E+00           0.00000000E+00
  -0.43000000E+00           0.00000000E+00
  -0.42000000E+00           0.00000000E+00
  -0.41000000E+00           0.00000000E+00
  -0.40000000E+00           0.00000000E+00
  -0.39000000E+00           0.00000000E+00
  -0.38000000E+00           0.00000000E+00
  -0.37000000E+00           0.00000000E+00
  -0.36000000E+00           0.00000000E+00
  -0.35000000E+00           0.00000000E+00
  -0.34000000E+00           0.00000000E+00
  -0.33000000E+00           0.00000000E+00
  -0.32000000E+00           0.00000000E+00
  -0.31000000E+00           0.00000000E+00
  -0.30000000E+00           0.00000000E+00
  -0.29000000E+00           0.00000000E+00
  -0.28000000E+00           0.00000000E+00
  -0.27000000E+00           0.00000000E+00
  -0.26000000E+00           0.00000000E+00
  -0.25000000E+00           0.00000000E+00
  -0.24000000E+00           0.00000000E+00
  -0.23000000E+00           0.00000000E+00
  -0.22000000E+00           0.00000000E+00
  -0.21000000E+00           0.00000000E+00
  -0.20000000E+00           0.00000000E+00
  -0.19000000E+00           0.00000000E+00
  -0.18000000E+00           0.00000000E+00
  -0.17000000E+00           0.00000000E+00
  -0.16000000E+00           0.00000000E+00
  -0.15000000E+00           0.00000000E+00
  -0.14000000E+00           0.00000000E+00
  -0.13000000E+00           0.00000000E+00
  -0.12000000E+00           0.00000000E+00
  -0.11000000E+00           0.00000000E+00
  -0.10000000E+00           0.00000000E+00
  -0.90000000E-01           0.00000000E+00
  -0.80000000E-01           0.00000000E+00
  -0.70000000E-01           0.00000000E+00
  -0.60000000E-01           0.00000000E+00
  -0.50000000E-01           0.00000000E+00
  -0.40000000E-01           0.00000000E+00
  -0.30000000E-01           0.00000000E+00
  -0.20000000E-01           0.00000000E+00
  -0.10000000E-01           0.00000000E+00
   0.00000000E+00           0.74232804E-03
   0.10000000E-01           0.60158730E-02
   0.20000000E-01           0.12069224E-01
   0.30000000E-01           0.18047266E-01
   0.40000000E-01           0.24136861E-01
   0.50000000E-01           0.30089947E-01
   0.60000000E-01           0.36164021E-01
   0.70000000E-01           0.42141623E-01
   0.80000000E-01           0.48238624E-01
   0.90000000E-01           0.54167901E-01
   0.10000000E+00           0.60229541E-01
   0.11000000E+00           0.66051323E-01
   0.12000000E+00           0.72163757E-01
   0.13000000E+00           0.78149030E-01
   0.14000000E+00           0.84193915E-01
   0.15000000E+00           0.90220635E-01
   0.16000000E+00           0.96203792E-01
   0.17000000E+00           0.10214303E+00
   0.18000000E+00           0.10812610E+00
   0.19000000E+00           0.11408633E+00
   0.20000000E+00           0.12003086E+00
   0.21000000E+00           0.12588386E+00
   0.22000000E+00           0.13205670E+00
   0.23000000E+00           0.13785467E+00
   0.24000000E+00           0.14378201E+00
   0.25000000E+00           0.14978439E+00
   0.26000000E+00           0.15550952E+00
   0.27000000E+00           0.16146023E+00
   0.28000000E+00           0.16714586E+00
   0.29000000E+00           0.17328651E+00
   0.30000000E+00           0.17895062E+00
   0.31000000E+00           0.18495935E+00
   0.32000000E+00           0.19084718E+00
   0.33000000E+00           0.19674374E+00
   0.34000000E+00           0.20248915E+00
   0.35000000E+00           0.20841861E+00
   0.36000000E+00           0.21430520E+00
   0.37000000E+00           0.21999101E+00
   0.38000000E+00           0.22581323E+00
   0.39000000E+00           0.23146323E+00
   0.40000000E+00           0.23747751E+00
   0.41000000E+00           0.24289092E+00
   0.42000000E+00           0.24887610E+00
   0.43000000E+00           0.25434815E+00
   0.44000000E+00           0.25991887E+00
   0.45000000E+00           0.26580265E+00
   0.46000000E+00           0.27134621E+00
   0.47000000E+00           0.27730335E+00
   0.48000000E+00           0.28285926E+00
   0.49000000E+00           0.28813607E+00
   0.50000000E+00           0.29408342E+00
   0.51000000E+00           0.29945802E+00
   0.52000000E+00           0.30513951E+00
   0.53000000E+00           0.31083527E+00
   0.54000000E+00           0.31585018E+00
   0.55000000E+00           0.32159268E+00
   0.56000000E+00           0.32679850E+00
   0.57000000E+00           0.33274533E+00
   0.58000000E+00           0.33788113E+00
   0.59000000E+00           0.34361226E+00
   0.60000000E+00           0.34948298E+00
   0.61000000E+00           0.35433175E+00
   0.62000000E+00           0.35975679E+00
   0.63000000E+00           0.36562787E+00
   0.64000000E+00           0.37044171E+00
   0.65000000E+00           0.37586869E+00
   0.66000000E+00           0.38122310E+00
   0.67000000E+00           0.38639101E+00
   0.68000000E+00           0.39171649E+00
   0.69000000E+00           0.39716508E+00
   0.70000000E+00           0.40221711E+00
   0.71000000E+00           0.40746817E+00
   0.72000000E+00           0.41260212E+00
   0.73000000E+00           0.41766093E+00
   0.74000000E+00           0.42299453E+00
   0.75000000E+00           0.42788051E+00
   0.76000000E+00           0.43278730E+00
   0.77000000E+00           0.43751825E+00
   0.78000000E+00           0.44281437E+00
   0.79000000E+00           0.44787337E+00
   0.80000000E+00           0.45285670E+00
   0.81000000E+00           0.45792504E+00
   0.82000000E+00           0.46280150E+00
   0.83000000E+00           0.46766446E+00
   0.84000000E+00           0.47285573E+00
   0.85000000E+00           0.47751931E+00
   0.86000000E+00           0.48250035E+00
   0.87000000E+00           0.48730035E+00
   0.88000000E+00           0.49170785E+00
   0.89000000E+00           0.49683095E+00
   0.90000000E+00           0.50127601E+00
   0.91000000E+00           0.50609788E+00
   0.92000000E+00           0.51073545E+00
   0.93000000E+00           0.51485026E+00
   0.94000000E+00           0.52009647E+00
   0.95000000E+00           0.52434674E+00
   0.96000000E+00           0.52902875E+00
   0.97000000E+00           0.53345229E+00
   0.98000000E+00           0.53807601E+00
   0.99000000E+00           0.54240423E+00
   0.10000000E+01           0.54670899E+00
   0.10100000E+01           0.55106252E+00
   0.10200000E+01           0.55531561E+00
   0.10300000E+01           0.56003316E+00
   0.10400000E+01           0.56449153E+00
   0.10500000E+01           0.56860035E+00
   0.10600000E+01           0.57311032E+00
   0.10700000E+01           0.57733483E+00
   0.10800000E+01           0.58094206E+00
   0.10900000E+01           0.58563545E+00
   0.11000000E+01           0.58974974E+00
   0.11100000E+01           0.59379480E+00
   0.11200000E+01           0.59776614E+00
   0.11300000E+01           0.60187196E+00
   0.11400000E+01           0.60555088E+00
   0.11500000E+01           0.60955009E+00
   0.11600000E+01           0.61341473E+00
   0.11700000E+01           0.61724656E+00
   0.11800000E+01           0.62124462E+00
   0.11900000E+01           0.62508880E+00
   0.12000000E+01           0.62916287E+00
   0.12100000E+01           0.63275467E+00
   0.12200000E+01           0.63656702E+00
   0.12300000E+01           0.64004171E+00
   0.12400000E+01           0.64371296E+00
   0.12500000E+01           0.64739524E+00
   0.12600000E+01           0.65159074E+00
   0.12700000E+01           0.65474594E+00
   0.12800000E+01           0.65851984E+00
   0.12900000E+01           0.66149056E+00
   0.13000000E+01           0.66514929E+00
   0.13100000E+01           0.66880150E+00
   0.13200000E+01           0.67176296E+00
   0.13300000E+01           0.67587910E+00
   0.13400000E+01           0.67888907E+00
   0.13500000E+01           0.68271781E+00
   0.13600000E+01           0.68513924E+00
   0.13700000E+01           0.68847152E+00
   0.13800000E+01           0.69167284E+00
   0.13900000E+01           0.69538333E+00
   0.14000000E+01           0.69785185E+00
   0.14100000E+01           0.70096825E+00
   0.14200000E+01           0.70412778E+00
   0.14300000E+01           0.70728977E+00
   0.14400000E+01           0.71010591E+00
   0.14500000E+01           0.71306279E+00
   0.14600000E+01           0.71616825E+00
   0.14700000E+01           0.71920229E+00
   0.14800000E+01           0.72193924E+00
   0.14900000E+01           0.72525732E+00
   0.15000000E+01           0.72719850E+00
   0.15100000E+01           0.73025026E+00
   0.15200000E+01           0.73297160E+00
   0.15300000E+01           0.73602469E+00
   0.15400000E+01           0.73863510E+00
   0.15500000E+01           0.74065159E+00
   0.15600000E+01           0.74332945E+00
   0.15700000E+01           0.74602540E+00
   0.15800000E+01           0.74838422E+00
   0.15900000E+01           0.75083422E+00
   0.16000000E+01           0.75342901E+00
   0.16100000E+01           0.75631755E+00
   0.16200000E+01           0.75857575E+00
   0.16300000E+01           0.76032152E+00
   0.16400000E+01           0.76294312E+00
   0.16500000E+01           0.76496834E+00
   0.16600000E+01           0.76712451E+00
   0.16700000E+01           0.76953483E+00
   0.16800000E+01           0.77200388E+00
   0.16900000E+01           0.77369489E+00
   0.17000000E+01           0.77556490E+00
   0.17100000E+01           0.77786984E+00
   0.17200000E+01           0.77963474E+00
   0.17300000E+01           0.78143342E+00
   0.17400000E+01           0.78337681E+00
   0.17500000E+01           0.78574965E+00
   0.17600000E+01           0.78759903E+00
   0.17700000E+01           0.78930450E+00
   0.17800000E+01           0.79101138E+00
   0.17900000E+01           0.79266534E+00
   0.18000000E+01           0.79393492E+00
   0.18100000E+01           0.79604012E+00
   0.18200000E+01           0.79744533E+00
   0.18300000E+01           0.79938545E+00
   0.18400000E+01           0.80108633E+00
   0.18500000E+01           0.80212046E+00
   0.18600000E+01           0.80347134E+00
   0.18700000E+01           0.80513730E+00
   0.18800000E+01           0.80633042E+00
   0.18900000E+01           0.80751146E+00
   0.19000000E+01           0.80917787E+00
   0.19100000E+01           0.81099533E+00
   0.19200000E+01           0.81226755E+00
   0.19300000E+01           0.81337681E+00
   0.19400000E+01           0.81430132E+00
   0.19500000E+01           0.81560282E+00
   0.19600000E+01           0.81702187E+00
   0.19700000E+01           0.81803554E+00
   0.19800000E+01           0.81849374E+00
   0.19900000E+01           0.82070961E+00
   0.20000000E+01           0.41053060E+00
