 #written on  8Aug2024 at 16:12:33 
 #----------------- MONTECARLO -------------------#
 #        M                      P(M)             #
 #------------------------------------------------#
 #T=   206.0000
  -0.20000000E+01           0.00000000E+00
  -0.19900000E+01           0.00000000E+00
  -0.19800000E+01           0.00000000E+00
  -0.19700000E+01           0.00000000E+00
  -0.19600000E+01           0.00000000E+00
  -0.19500000E+01           0.00000000E+00
  -0.19400000E+01           0.00000000E+00
  -0.19300000E+01           0.00000000E+00
  -0.19200000E+01           0.00000000E+00
  -0.19100000E+01           0.00000000E+00
  -0.19000000E+01           0.00000000E+00
  -0.18900000E+01           0.00000000E+00
  -0.18800000E+01           0.00000000E+00
  -0.18700000E+01           0.00000000E+00
  -0.18600000E+01           0.00000000E+00
  -0.18500000E+01           0.00000000E+00
  -0.18400000E+01           0.00000000E+00
  -0.18300000E+01           0.00000000E+00
  -0.18200000E+01           0.00000000E+00
  -0.18100000E+01           0.00000000E+00
  -0.18000000E+01           0.00000000E+00
  -0.17900000E+01           0.00000000E+00
  -0.17800000E+01           0.00000000E+00
  -0.17700000E+01           0.00000000E+00
  -0.17600000E+01           0.00000000E+00
  -0.17500000E+01           0.00000000E+00
  -0.17400000E+01           0.00000000E+00
  -0.17300000E+01           0.00000000E+00
  -0.17200000E+01           0.00000000E+00
  -0.17100000E+01           0.00000000E+00
  -0.17000000E+01           0.00000000E+00
  -0.16900000E+01           0.00000000E+00
  -0.16800000E+01           0.00000000E+00
  -0.16700000E+01           0.00000000E+00
  -0.16600000E+01           0.00000000E+00
  -0.16500000E+01           0.00000000E+00
  -0.16400000E+01           0.00000000E+00
  -0.16300000E+01           0.00000000E+00
  -0.16200000E+01           0.00000000E+00
  -0.16100000E+01           0.00000000E+00
  -0.16000000E+01           0.00000000E+00
  -0.15900000E+01           0.00000000E+00
  -0.15800000E+01           0.00000000E+00
  -0.15700000E+01           0.00000000E+00
  -0.15600000E+01           0.00000000E+00
  -0.15500000E+01           0.00000000E+00
  -0.15400000E+01           0.00000000E+00
  -0.15300000E+01           0.00000000E+00
  -0.15200000E+01           0.00000000E+00
  -0.15100000E+01           0.00000000E+00
  -0.15000000E+01           0.00000000E+00
  -0.14900000E+01           0.00000000E+00
  -0.14800000E+01           0.00000000E+00
  -0.14700000E+01           0.00000000E+00
  -0.14600000E+01           0.00000000E+00
  -0.14500000E+01           0.00000000E+00
  -0.14400000E+01           0.00000000E+00
  -0.14300000E+01           0.00000000E+00
  -0.14200000E+01           0.00000000E+00
  -0.14100000E+01           0.00000000E+00
  -0.14000000E+01           0.00000000E+00
  -0.13900000E+01           0.00000000E+00
  -0.13800000E+01           0.00000000E+00
  -0.13700000E+01           0.00000000E+00
  -0.13600000E+01           0.00000000E+00
  -0.13500000E+01           0.00000000E+00
  -0.13400000E+01           0.00000000E+00
  -0.13300000E+01           0.00000000E+00
  -0.13200000E+01           0.00000000E+00
  -0.13100000E+01           0.00000000E+00
  -0.13000000E+01           0.00000000E+00
  -0.12900000E+01           0.00000000E+00
  -0.12800000E+01           0.00000000E+00
  -0.12700000E+01           0.00000000E+00
  -0.12600000E+01           0.00000000E+00
  -0.12500000E+01           0.00000000E+00
  -0.12400000E+01           0.00000000E+00
  -0.12300000E+01           0.00000000E+00
  -0.12200000E+01           0.00000000E+00
  -0.12100000E+01           0.00000000E+00
  -0.12000000E+01           0.00000000E+00
  -0.11900000E+01           0.00000000E+00
  -0.11800000E+01           0.00000000E+00
  -0.11700000E+01           0.00000000E+00
  -0.11600000E+01           0.00000000E+00
  -0.11500000E+01           0.00000000E+00
  -0.11400000E+01           0.00000000E+00
  -0.11300000E+01           0.00000000E+00
  -0.11200000E+01           0.00000000E+00
  -0.11100000E+01           0.00000000E+00
  -0.11000000E+01           0.00000000E+00
  -0.10900000E+01           0.00000000E+00
  -0.10800000E+01           0.00000000E+00
  -0.10700000E+01           0.00000000E+00
  -0.10600000E+01           0.00000000E+00
  -0.10500000E+01           0.00000000E+00
  -0.10400000E+01           0.00000000E+00
  -0.10300000E+01           0.00000000E+00
  -0.10200000E+01           0.00000000E+00
  -0.10100000E+01           0.00000000E+00
  -0.10000000E+01           0.00000000E+00
  -0.99000000E+00           0.00000000E+00
  -0.98000000E+00           0.00000000E+00
  -0.97000000E+00           0.00000000E+00
  -0.96000000E+00           0.00000000E+00
  -0.95000000E+00           0.00000000E+00
  -0.94000000E+00           0.00000000E+00
  -0.93000000E+00           0.00000000E+00
  -0.92000000E+00           0.00000000E+00
  -0.91000000E+00           0.00000000E+00
  -0.90000000E+00           0.00000000E+00
  -0.89000000E+00           0.00000000E+00
  -0.88000000E+00           0.00000000E+00
  -0.87000000E+00           0.00000000E+00
  -0.86000000E+00           0.00000000E+00
  -0.85000000E+00           0.00000000E+00
  -0.84000000E+00           0.00000000E+00
  -0.83000000E+00           0.00000000E+00
  -0.82000000E+00           0.00000000E+00
  -0.81000000E+00           0.00000000E+00
  -0.80000000E+00           0.00000000E+00
  -0.79000000E+00           0.00000000E+00
  -0.78000000E+00           0.00000000E+00
  -0.77000000E+00           0.00000000E+00
  -0.76000000E+00           0.00000000E+00
  -0.75000000E+00           0.00000000E+00
  -0.74000000E+00           0.00000000E+00
  -0.73000000E+00           0.00000000E+00
  -0.72000000E+00           0.00000000E+00
  -0.71000000E+00           0.00000000E+00
  -0.70000000E+00           0.00000000E+00
  -0.69000000E+00           0.00000000E+00
  -0.68000000E+00           0.00000000E+00
  -0.67000000E+00           0.00000000E+00
  -0.66000000E+00           0.00000000E+00
  -0.65000000E+00           0.00000000E+00
  -0.64000000E+00           0.00000000E+00
  -0.63000000E+00           0.00000000E+00
  -0.62000000E+00           0.00000000E+00
  -0.61000000E+00           0.00000000E+00
  -0.60000000E+00           0.00000000E+00
  -0.59000000E+00           0.00000000E+00
  -0.58000000E+00           0.00000000E+00
  -0.57000000E+00           0.00000000E+00
  -0.56000000E+00           0.00000000E+00
  -0.55000000E+00           0.00000000E+00
  -0.54000000E+00           0.00000000E+00
  -0.53000000E+00           0.00000000E+00
  -0.52000000E+00           0.00000000E+00
  -0.51000000E+00           0.00000000E+00
  -0.50000000E+00           0.00000000E+00
  -0.49000000E+00           0.00000000E+00
  -0.48000000E+00           0.00000000E+00
  -0.47000000E+00           0.00000000E+00
  -0.46000000E+00           0.00000000E+00
  -0.45000000E+00           0.00000000E+00
  -0.44000000E+00           0.00000000E+00
  -0.43000000E+00           0.00000000E+00
  -0.42000000E+00           0.00000000E+00
  -0.41000000E+00           0.00000000E+00
  -0.40000000E+00           0.00000000E+00
  -0.39000000E+00           0.00000000E+00
  -0.38000000E+00           0.00000000E+00
  -0.37000000E+00           0.00000000E+00
  -0.36000000E+00           0.00000000E+00
  -0.35000000E+00           0.00000000E+00
  -0.34000000E+00           0.00000000E+00
  -0.33000000E+00           0.00000000E+00
  -0.32000000E+00           0.00000000E+00
  -0.31000000E+00           0.00000000E+00
  -0.30000000E+00           0.00000000E+00
  -0.29000000E+00           0.00000000E+00
  -0.28000000E+00           0.00000000E+00
  -0.27000000E+00           0.00000000E+00
  -0.26000000E+00           0.00000000E+00
  -0.25000000E+00           0.00000000E+00
  -0.24000000E+00           0.00000000E+00
  -0.23000000E+00           0.00000000E+00
  -0.22000000E+00           0.00000000E+00
  -0.21000000E+00           0.00000000E+00
  -0.20000000E+00           0.00000000E+00
  -0.19000000E+00           0.00000000E+00
  -0.18000000E+00           0.00000000E+00
  -0.17000000E+00           0.00000000E+00
  -0.16000000E+00           0.00000000E+00
  -0.15000000E+00           0.00000000E+00
  -0.14000000E+00           0.00000000E+00
  -0.13000000E+00           0.00000000E+00
  -0.12000000E+00           0.00000000E+00
  -0.11000000E+00           0.00000000E+00
  -0.10000000E+00           0.00000000E+00
  -0.90000000E-01           0.00000000E+00
  -0.80000000E-01           0.00000000E+00
  -0.70000000E-01           0.00000000E+00
  -0.60000000E-01           0.00000000E+00
  -0.50000000E-01           0.00000000E+00
  -0.40000000E-01           0.00000000E+00
  -0.30000000E-01           0.00000000E+00
  -0.20000000E-01           0.00000000E+00
  -0.10000000E-01           0.00000000E+00
   0.00000000E+00           0.27301587E-02
   0.10000000E-01           0.21858631E-01
   0.20000000E-01           0.43635417E-01
   0.30000000E-01           0.65413095E-01
   0.40000000E-01           0.87239286E-01
   0.50000000E-01           0.10891131E+00
   0.60000000E-01           0.13056131E+00
   0.70000000E-01           0.15191121E+00
   0.80000000E-01           0.17350893E+00
   0.90000000E-01           0.19483462E+00
   0.10000000E+00           0.21583492E+00
   0.11000000E+00           0.23743125E+00
   0.12000000E+00           0.25790377E+00
   0.13000000E+00           0.27896558E+00
   0.14000000E+00           0.29939583E+00
   0.15000000E+00           0.31976954E+00
   0.16000000E+00           0.33991458E+00
   0.17000000E+00           0.35995605E+00
   0.18000000E+00           0.37966528E+00
   0.19000000E+00           0.39925496E+00
   0.20000000E+00           0.41860942E+00
   0.21000000E+00           0.43793780E+00
   0.22000000E+00           0.45707450E+00
   0.23000000E+00           0.47560357E+00
   0.24000000E+00           0.49338968E+00
   0.25000000E+00           0.51171071E+00
   0.26000000E+00           0.52921448E+00
   0.27000000E+00           0.54598373E+00
   0.28000000E+00           0.56347827E+00
   0.29000000E+00           0.57967877E+00
   0.30000000E+00           0.59665685E+00
   0.31000000E+00           0.61175605E+00
   0.32000000E+00           0.62826746E+00
   0.33000000E+00           0.64284236E+00
   0.34000000E+00           0.65836835E+00
   0.35000000E+00           0.67212034E+00
   0.36000000E+00           0.68607976E+00
   0.37000000E+00           0.70033234E+00
   0.38000000E+00           0.71413750E+00
   0.39000000E+00           0.72644722E+00
   0.40000000E+00           0.73913760E+00
   0.41000000E+00           0.75089117E+00
   0.42000000E+00           0.76272312E+00
   0.43000000E+00           0.77382450E+00
   0.44000000E+00           0.78478085E+00
   0.45000000E+00           0.79517073E+00
   0.46000000E+00           0.80497192E+00
   0.47000000E+00           0.81415308E+00
   0.48000000E+00           0.82350962E+00
   0.49000000E+00           0.83231200E+00
   0.50000000E+00           0.84036845E+00
   0.51000000E+00           0.84859365E+00
   0.52000000E+00           0.85535456E+00
   0.53000000E+00           0.86271022E+00
   0.54000000E+00           0.86797123E+00
   0.55000000E+00           0.87490605E+00
   0.56000000E+00           0.88014276E+00
   0.57000000E+00           0.88559702E+00
   0.58000000E+00           0.89043204E+00
   0.59000000E+00           0.89447877E+00
   0.60000000E+00           0.89806835E+00
   0.61000000E+00           0.90213214E+00
   0.62000000E+00           0.90499117E+00
   0.63000000E+00           0.90705813E+00
   0.64000000E+00           0.90927073E+00
   0.65000000E+00           0.91135040E+00
   0.66000000E+00           0.91236200E+00
   0.67000000E+00           0.91321786E+00
   0.68000000E+00           0.91359048E+00
   0.69000000E+00           0.91396419E+00
   0.70000000E+00           0.91352560E+00
   0.71000000E+00           0.91282401E+00
   0.72000000E+00           0.91199663E+00
   0.73000000E+00           0.90980427E+00
   0.74000000E+00           0.90828363E+00
   0.75000000E+00           0.90682659E+00
   0.76000000E+00           0.90385665E+00
   0.77000000E+00           0.90080585E+00
   0.78000000E+00           0.89766359E+00
   0.79000000E+00           0.89449206E+00
   0.80000000E+00           0.88993065E+00
   0.81000000E+00           0.88602698E+00
   0.82000000E+00           0.88159435E+00
   0.83000000E+00           0.87733581E+00
   0.84000000E+00           0.87168294E+00
   0.85000000E+00           0.86550268E+00
   0.86000000E+00           0.86061438E+00
   0.87000000E+00           0.85490377E+00
   0.88000000E+00           0.84831389E+00
   0.89000000E+00           0.84175556E+00
   0.90000000E+00           0.83545248E+00
   0.91000000E+00           0.82799673E+00
   0.92000000E+00           0.82055228E+00
   0.93000000E+00           0.81357877E+00
   0.94000000E+00           0.80583492E+00
   0.95000000E+00           0.79832460E+00
   0.96000000E+00           0.79001389E+00
   0.97000000E+00           0.78134782E+00
   0.98000000E+00           0.77362867E+00
   0.99000000E+00           0.76446181E+00
   0.10000000E+01           0.75642242E+00
   0.10100000E+01           0.74733522E+00
   0.10200000E+01           0.73824246E+00
   0.10300000E+01           0.72878393E+00
   0.10400000E+01           0.72035129E+00
   0.10500000E+01           0.71050764E+00
   0.10600000E+01           0.70062659E+00
   0.10700000E+01           0.69096399E+00
   0.10800000E+01           0.68183175E+00
   0.10900000E+01           0.67218968E+00
   0.11000000E+01           0.66155010E+00
   0.11100000E+01           0.65194762E+00
   0.11200000E+01           0.64186508E+00
   0.11300000E+01           0.63192847E+00
   0.11400000E+01           0.62237887E+00
   0.11500000E+01           0.61174563E+00
   0.11600000E+01           0.60195476E+00
   0.11700000E+01           0.59153591E+00
   0.11800000E+01           0.58176438E+00
   0.11900000E+01           0.57150179E+00
   0.12000000E+01           0.56088700E+00
   0.12100000E+01           0.55047153E+00
   0.12200000E+01           0.54052877E+00
   0.12300000E+01           0.53037063E+00
   0.12400000E+01           0.52003105E+00
   0.12500000E+01           0.51030536E+00
   0.12600000E+01           0.50011627E+00
   0.12700000E+01           0.48982073E+00
   0.12800000E+01           0.48015784E+00
   0.12900000E+01           0.46984673E+00
   0.13000000E+01           0.46015565E+00
   0.13100000E+01           0.45033046E+00
   0.13200000E+01           0.44042798E+00
   0.13300000E+01           0.43100813E+00
   0.13400000E+01           0.42139950E+00
   0.13500000E+01           0.41177798E+00
   0.13600000E+01           0.40232946E+00
   0.13700000E+01           0.39285030E+00
   0.13800000E+01           0.38369494E+00
   0.13900000E+01           0.37473998E+00
   0.14000000E+01           0.36554395E+00
   0.14100000E+01           0.35634147E+00
   0.14200000E+01           0.34748661E+00
   0.14300000E+01           0.33873373E+00
   0.14400000E+01           0.32998849E+00
   0.14500000E+01           0.32181637E+00
   0.14600000E+01           0.31285536E+00
   0.14700000E+01           0.30452569E+00
   0.14800000E+01           0.29693403E+00
   0.14900000E+01           0.28850833E+00
   0.15000000E+01           0.28081964E+00
   0.15100000E+01           0.27298790E+00
   0.15200000E+01           0.26515883E+00
   0.15300000E+01           0.25741657E+00
   0.15400000E+01           0.25003095E+00
   0.15500000E+01           0.24299653E+00
   0.15600000E+01           0.23565486E+00
   0.15700000E+01           0.22863095E+00
   0.15800000E+01           0.22194077E+00
   0.15900000E+01           0.21497986E+00
   0.16000000E+01           0.20836339E+00
   0.16100000E+01           0.20164276E+00
   0.16200000E+01           0.19513482E+00
   0.16300000E+01           0.18912688E+00
   0.16400000E+01           0.18290694E+00
   0.16500000E+01           0.17672609E+00
   0.16600000E+01           0.17107391E+00
   0.16700000E+01           0.16509841E+00
   0.16800000E+01           0.15975327E+00
   0.16900000E+01           0.15436548E+00
   0.17000000E+01           0.14889732E+00
   0.17100000E+01           0.14365625E+00
   0.17200000E+01           0.13854603E+00
   0.17300000E+01           0.13348403E+00
   0.17400000E+01           0.12856875E+00
   0.17500000E+01           0.12389702E+00
   0.17600000E+01           0.11941905E+00
   0.17700000E+01           0.11494464E+00
   0.17800000E+01           0.11048006E+00
   0.17900000E+01           0.10628780E+00
   0.18000000E+01           0.10183095E+00
   0.18100000E+01           0.98068353E-01
   0.18200000E+01           0.94163690E-01
   0.18300000E+01           0.90470833E-01
   0.18400000E+01           0.86788492E-01
   0.18500000E+01           0.83045040E-01
   0.18600000E+01           0.79780159E-01
   0.18700000E+01           0.76270635E-01
   0.18800000E+01           0.73077877E-01
   0.18900000E+01           0.69976687E-01
   0.19000000E+01           0.66878075E-01
   0.19100000E+01           0.63995139E-01
   0.19200000E+01           0.61155556E-01
   0.19300000E+01           0.58374702E-01
   0.19400000E+01           0.55738988E-01
   0.19500000E+01           0.53074702E-01
   0.19600000E+01           0.50541468E-01
   0.19700000E+01           0.48321528E-01
   0.19800000E+01           0.45947421E-01
   0.19900000E+01           0.43751190E-01
   0.20000000E+01           0.20995238E-01
 #T=   207.0000
  -0.20000000E+01           0.00000000E+00
  -0.19900000E+01           0.00000000E+00
  -0.19800000E+01           0.00000000E+00
  -0.19700000E+01           0.00000000E+00
  -0.19600000E+01           0.00000000E+00
  -0.19500000E+01           0.00000000E+00
  -0.19400000E+01           0.00000000E+00
  -0.19300000E+01           0.00000000E+00
  -0.19200000E+01           0.00000000E+00
  -0.19100000E+01           0.00000000E+00
  -0.19000000E+01           0.00000000E+00
  -0.18900000E+01           0.00000000E+00
  -0.18800000E+01           0.00000000E+00
  -0.18700000E+01           0.00000000E+00
  -0.18600000E+01           0.00000000E+00
  -0.18500000E+01           0.00000000E+00
  -0.18400000E+01           0.00000000E+00
  -0.18300000E+01           0.00000000E+00
  -0.18200000E+01           0.00000000E+00
  -0.18100000E+01           0.00000000E+00
  -0.18000000E+01           0.00000000E+00
  -0.17900000E+01           0.00000000E+00
  -0.17800000E+01           0.00000000E+00
  -0.17700000E+01           0.00000000E+00
  -0.17600000E+01           0.00000000E+00
  -0.17500000E+01           0.00000000E+00
  -0.17400000E+01           0.00000000E+00
  -0.17300000E+01           0.00000000E+00
  -0.17200000E+01           0.00000000E+00
  -0.17100000E+01           0.00000000E+00
  -0.17000000E+01           0.00000000E+00
  -0.16900000E+01           0.00000000E+00
  -0.16800000E+01           0.00000000E+00
  -0.16700000E+01           0.00000000E+00
  -0.16600000E+01           0.00000000E+00
  -0.16500000E+01           0.00000000E+00
  -0.16400000E+01           0.00000000E+00
  -0.16300000E+01           0.00000000E+00
  -0.16200000E+01           0.00000000E+00
  -0.16100000E+01           0.00000000E+00
  -0.16000000E+01           0.00000000E+00
  -0.15900000E+01           0.00000000E+00
  -0.15800000E+01           0.00000000E+00
  -0.15700000E+01           0.00000000E+00
  -0.15600000E+01           0.00000000E+00
  -0.15500000E+01           0.00000000E+00
  -0.15400000E+01           0.00000000E+00
  -0.15300000E+01           0.00000000E+00
  -0.15200000E+01           0.00000000E+00
  -0.15100000E+01           0.00000000E+00
  -0.15000000E+01           0.00000000E+00
  -0.14900000E+01           0.00000000E+00
  -0.14800000E+01           0.00000000E+00
  -0.14700000E+01           0.00000000E+00
  -0.14600000E+01           0.00000000E+00
  -0.14500000E+01           0.00000000E+00
  -0.14400000E+01           0.00000000E+00
  -0.14300000E+01           0.00000000E+00
  -0.14200000E+01           0.00000000E+00
  -0.14100000E+01           0.00000000E+00
  -0.14000000E+01           0.00000000E+00
  -0.13900000E+01           0.00000000E+00
  -0.13800000E+01           0.00000000E+00
  -0.13700000E+01           0.00000000E+00
  -0.13600000E+01           0.00000000E+00
  -0.13500000E+01           0.00000000E+00
  -0.13400000E+01           0.00000000E+00
  -0.13300000E+01           0.00000000E+00
  -0.13200000E+01           0.00000000E+00
  -0.13100000E+01           0.00000000E+00
  -0.13000000E+01           0.00000000E+00
  -0.12900000E+01           0.00000000E+00
  -0.12800000E+01           0.00000000E+00
  -0.12700000E+01           0.00000000E+00
  -0.12600000E+01           0.00000000E+00
  -0.12500000E+01           0.00000000E+00
  -0.12400000E+01           0.00000000E+00
  -0.12300000E+01           0.00000000E+00
  -0.12200000E+01           0.00000000E+00
  -0.12100000E+01           0.00000000E+00
  -0.12000000E+01           0.00000000E+00
  -0.11900000E+01           0.00000000E+00
  -0.11800000E+01           0.00000000E+00
  -0.11700000E+01           0.00000000E+00
  -0.11600000E+01           0.00000000E+00
  -0.11500000E+01           0.00000000E+00
  -0.11400000E+01           0.00000000E+00
  -0.11300000E+01           0.00000000E+00
  -0.11200000E+01           0.00000000E+00
  -0.11100000E+01           0.00000000E+00
  -0.11000000E+01           0.00000000E+00
  -0.10900000E+01           0.00000000E+00
  -0.10800000E+01           0.00000000E+00
  -0.10700000E+01           0.00000000E+00
  -0.10600000E+01           0.00000000E+00
  -0.10500000E+01           0.00000000E+00
  -0.10400000E+01           0.00000000E+00
  -0.10300000E+01           0.00000000E+00
  -0.10200000E+01           0.00000000E+00
  -0.10100000E+01           0.00000000E+00
  -0.10000000E+01           0.00000000E+00
  -0.99000000E+00           0.00000000E+00
  -0.98000000E+00           0.00000000E+00
  -0.97000000E+00           0.00000000E+00
  -0.96000000E+00           0.00000000E+00
  -0.95000000E+00           0.00000000E+00
  -0.94000000E+00           0.00000000E+00
  -0.93000000E+00           0.00000000E+00
  -0.92000000E+00           0.00000000E+00
  -0.91000000E+00           0.00000000E+00
  -0.90000000E+00           0.00000000E+00
  -0.89000000E+00           0.00000000E+00
  -0.88000000E+00           0.00000000E+00
  -0.87000000E+00           0.00000000E+00
  -0.86000000E+00           0.00000000E+00
  -0.85000000E+00           0.00000000E+00
  -0.84000000E+00           0.00000000E+00
  -0.83000000E+00           0.00000000E+00
  -0.82000000E+00           0.00000000E+00
  -0.81000000E+00           0.00000000E+00
  -0.80000000E+00           0.00000000E+00
  -0.79000000E+00           0.00000000E+00
  -0.78000000E+00           0.00000000E+00
  -0.77000000E+00           0.00000000E+00
  -0.76000000E+00           0.00000000E+00
  -0.75000000E+00           0.00000000E+00
  -0.74000000E+00           0.00000000E+00
  -0.73000000E+00           0.00000000E+00
  -0.72000000E+00           0.00000000E+00
  -0.71000000E+00           0.00000000E+00
  -0.70000000E+00           0.00000000E+00
  -0.69000000E+00           0.00000000E+00
  -0.68000000E+00           0.00000000E+00
  -0.67000000E+00           0.00000000E+00
  -0.66000000E+00           0.00000000E+00
  -0.65000000E+00           0.00000000E+00
  -0.64000000E+00           0.00000000E+00
  -0.63000000E+00           0.00000000E+00
  -0.62000000E+00           0.00000000E+00
  -0.61000000E+00           0.00000000E+00
  -0.60000000E+00           0.00000000E+00
  -0.59000000E+00           0.00000000E+00
  -0.58000000E+00           0.00000000E+00
  -0.57000000E+00           0.00000000E+00
  -0.56000000E+00           0.00000000E+00
  -0.55000000E+00           0.00000000E+00
  -0.54000000E+00           0.00000000E+00
  -0.53000000E+00           0.00000000E+00
  -0.52000000E+00           0.00000000E+00
  -0.51000000E+00           0.00000000E+00
  -0.50000000E+00           0.00000000E+00
  -0.49000000E+00           0.00000000E+00
  -0.48000000E+00           0.00000000E+00
  -0.47000000E+00           0.00000000E+00
  -0.46000000E+00           0.00000000E+00
  -0.45000000E+00           0.00000000E+00
  -0.44000000E+00           0.00000000E+00
  -0.43000000E+00           0.00000000E+00
  -0.42000000E+00           0.00000000E+00
  -0.41000000E+00           0.00000000E+00
  -0.40000000E+00           0.00000000E+00
  -0.39000000E+00           0.00000000E+00
  -0.38000000E+00           0.00000000E+00
  -0.37000000E+00           0.00000000E+00
  -0.36000000E+00           0.00000000E+00
  -0.35000000E+00           0.00000000E+00
  -0.34000000E+00           0.00000000E+00
  -0.33000000E+00           0.00000000E+00
  -0.32000000E+00           0.00000000E+00
  -0.31000000E+00           0.00000000E+00
  -0.30000000E+00           0.00000000E+00
  -0.29000000E+00           0.00000000E+00
  -0.28000000E+00           0.00000000E+00
  -0.27000000E+00           0.00000000E+00
  -0.26000000E+00           0.00000000E+00
  -0.25000000E+00           0.00000000E+00
  -0.24000000E+00           0.00000000E+00
  -0.23000000E+00           0.00000000E+00
  -0.22000000E+00           0.00000000E+00
  -0.21000000E+00           0.00000000E+00
  -0.20000000E+00           0.00000000E+00
  -0.19000000E+00           0.00000000E+00
  -0.18000000E+00           0.00000000E+00
  -0.17000000E+00           0.00000000E+00
  -0.16000000E+00           0.00000000E+00
  -0.15000000E+00           0.00000000E+00
  -0.14000000E+00           0.00000000E+00
  -0.13000000E+00           0.00000000E+00
  -0.12000000E+00           0.00000000E+00
  -0.11000000E+00           0.00000000E+00
  -0.10000000E+00           0.00000000E+00
  -0.90000000E-01           0.00000000E+00
  -0.80000000E-01           0.00000000E+00
  -0.70000000E-01           0.00000000E+00
  -0.60000000E-01           0.00000000E+00
  -0.50000000E-01           0.00000000E+00
  -0.40000000E-01           0.00000000E+00
  -0.30000000E-01           0.00000000E+00
  -0.20000000E-01           0.00000000E+00
  -0.10000000E-01           0.00000000E+00
   0.00000000E+00           0.26985119E-02
   0.10000000E-01           0.21641667E-01
   0.20000000E-01           0.43250794E-01
   0.30000000E-01           0.64953571E-01
   0.40000000E-01           0.86530952E-01
   0.50000000E-01           0.10806002E+00
   0.60000000E-01           0.12930933E+00
   0.70000000E-01           0.15083690E+00
   0.80000000E-01           0.17220685E+00
   0.90000000E-01           0.19329385E+00
   0.10000000E+00           0.21438304E+00
   0.11000000E+00           0.23538978E+00
   0.12000000E+00           0.25647698E+00
   0.13000000E+00           0.27705794E+00
   0.14000000E+00           0.29713710E+00
   0.15000000E+00           0.31767044E+00
   0.16000000E+00           0.33738512E+00
   0.17000000E+00           0.35739692E+00
   0.18000000E+00           0.37715367E+00
   0.19000000E+00           0.39657619E+00
   0.20000000E+00           0.41565476E+00
   0.21000000E+00           0.43456687E+00
   0.22000000E+00           0.45349365E+00
   0.23000000E+00           0.47148313E+00
   0.24000000E+00           0.48970486E+00
   0.25000000E+00           0.50767361E+00
   0.26000000E+00           0.52502073E+00
   0.27000000E+00           0.54209593E+00
   0.28000000E+00           0.55929008E+00
   0.29000000E+00           0.57579802E+00
   0.30000000E+00           0.59248611E+00
   0.31000000E+00           0.60775764E+00
   0.32000000E+00           0.62364921E+00
   0.33000000E+00           0.63880595E+00
   0.34000000E+00           0.65402341E+00
   0.35000000E+00           0.66799960E+00
   0.36000000E+00           0.68196399E+00
   0.37000000E+00           0.69567173E+00
   0.38000000E+00           0.70877093E+00
   0.39000000E+00           0.72148224E+00
   0.40000000E+00           0.73363482E+00
   0.41000000E+00           0.74625149E+00
   0.42000000E+00           0.75718800E+00
   0.43000000E+00           0.76877788E+00
   0.44000000E+00           0.78001210E+00
   0.45000000E+00           0.79011498E+00
   0.46000000E+00           0.80040883E+00
   0.47000000E+00           0.80936766E+00
   0.48000000E+00           0.81861349E+00
   0.49000000E+00           0.82747599E+00
   0.50000000E+00           0.83575119E+00
   0.51000000E+00           0.84328800E+00
   0.52000000E+00           0.85104435E+00
   0.53000000E+00           0.85745903E+00
   0.54000000E+00           0.86426855E+00
   0.55000000E+00           0.87041369E+00
   0.56000000E+00           0.87600337E+00
   0.57000000E+00           0.88126290E+00
   0.58000000E+00           0.88607857E+00
   0.59000000E+00           0.89000685E+00
   0.60000000E+00           0.89435288E+00
   0.61000000E+00           0.89791379E+00
   0.62000000E+00           0.90062569E+00
   0.63000000E+00           0.90362877E+00
   0.64000000E+00           0.90547788E+00
   0.65000000E+00           0.90734286E+00
   0.66000000E+00           0.90869960E+00
   0.67000000E+00           0.90926200E+00
   0.68000000E+00           0.91013065E+00
   0.69000000E+00           0.91026696E+00
   0.70000000E+00           0.91015714E+00
   0.71000000E+00           0.91045536E+00
   0.72000000E+00           0.90902649E+00
   0.73000000E+00           0.90721488E+00
   0.74000000E+00           0.90592946E+00
   0.75000000E+00           0.90367341E+00
   0.76000000E+00           0.90110446E+00
   0.77000000E+00           0.89802966E+00
   0.78000000E+00           0.89551815E+00
   0.79000000E+00           0.89201032E+00
   0.80000000E+00           0.88834385E+00
   0.81000000E+00           0.88454484E+00
   0.82000000E+00           0.88006925E+00
   0.83000000E+00           0.87480506E+00
   0.84000000E+00           0.87034444E+00
   0.85000000E+00           0.86498780E+00
   0.86000000E+00           0.85922044E+00
   0.87000000E+00           0.85302351E+00
   0.88000000E+00           0.84741548E+00
   0.89000000E+00           0.84099286E+00
   0.90000000E+00           0.83449921E+00
   0.91000000E+00           0.82750060E+00
   0.92000000E+00           0.82078115E+00
   0.93000000E+00           0.81313135E+00
   0.94000000E+00           0.80604911E+00
   0.95000000E+00           0.79808254E+00
   0.96000000E+00           0.79021161E+00
   0.97000000E+00           0.78214067E+00
   0.98000000E+00           0.77326161E+00
   0.99000000E+00           0.76518254E+00
   0.10000000E+01           0.75664911E+00
   0.10100000E+01           0.74776310E+00
   0.10200000E+01           0.73906181E+00
   0.10300000E+01           0.72993909E+00
   0.10400000E+01           0.72109236E+00
   0.10500000E+01           0.71183343E+00
   0.10600000E+01           0.70246002E+00
   0.10700000E+01           0.69258720E+00
   0.10800000E+01           0.68310813E+00
   0.10900000E+01           0.67376339E+00
   0.11000000E+01           0.66386627E+00
   0.11100000E+01           0.65395516E+00
   0.11200000E+01           0.64471488E+00
   0.11300000E+01           0.63426488E+00
   0.11400000E+01           0.62411915E+00
   0.11500000E+01           0.61449187E+00
   0.11600000E+01           0.60465764E+00
   0.11700000E+01           0.59411121E+00
   0.11800000E+01           0.58406210E+00
   0.11900000E+01           0.57379772E+00
   0.12000000E+01           0.56434415E+00
   0.12100000E+01           0.55431022E+00
   0.12200000E+01           0.54367966E+00
   0.12300000E+01           0.53373829E+00
   0.12400000E+01           0.52353770E+00
   0.12500000E+01           0.51350893E+00
   0.12600000E+01           0.50331022E+00
   0.12700000E+01           0.49297669E+00
   0.12800000E+01           0.48310575E+00
   0.12900000E+01           0.47349435E+00
   0.13000000E+01           0.46340060E+00
   0.13100000E+01           0.45365030E+00
   0.13200000E+01           0.44421250E+00
   0.13300000E+01           0.43422560E+00
   0.13400000E+01           0.42516498E+00
   0.13500000E+01           0.41525298E+00
   0.13600000E+01           0.40607312E+00
   0.13700000E+01           0.39660536E+00
   0.13800000E+01           0.38732073E+00
   0.13900000E+01           0.37821974E+00
   0.14000000E+01           0.36895913E+00
   0.14100000E+01           0.36037341E+00
   0.14200000E+01           0.35164504E+00
   0.14300000E+01           0.34217063E+00
   0.14400000E+01           0.33401815E+00
   0.14500000E+01           0.32532143E+00
   0.14600000E+01           0.31705496E+00
   0.14700000E+01           0.30848552E+00
   0.14800000E+01           0.30014534E+00
   0.14900000E+01           0.29269464E+00
   0.15000000E+01           0.28440506E+00
   0.15100000E+01           0.27637113E+00
   0.15200000E+01           0.26898611E+00
   0.15300000E+01           0.26141101E+00
   0.15400000E+01           0.25372569E+00
   0.15500000E+01           0.24658740E+00
   0.15600000E+01           0.23952411E+00
   0.15700000E+01           0.23233363E+00
   0.15800000E+01           0.22523204E+00
   0.15900000E+01           0.21848720E+00
   0.16000000E+01           0.21171786E+00
   0.16100000E+01           0.20523175E+00
   0.16200000E+01           0.19896161E+00
   0.16300000E+01           0.19245565E+00
   0.16400000E+01           0.18610456E+00
   0.16500000E+01           0.18023075E+00
   0.16600000E+01           0.17419296E+00
   0.16700000E+01           0.16840198E+00
   0.16800000E+01           0.16296389E+00
   0.16900000E+01           0.15765516E+00
   0.17000000E+01           0.15188026E+00
   0.17100000E+01           0.14671171E+00
   0.17200000E+01           0.14147956E+00
   0.17300000E+01           0.13667669E+00
   0.17400000E+01           0.13172589E+00
   0.17500000E+01           0.12671954E+00
   0.17600000E+01           0.12239494E+00
   0.17700000E+01           0.11757480E+00
   0.17800000E+01           0.11323819E+00
   0.17900000E+01           0.10891647E+00
   0.18000000E+01           0.10481498E+00
   0.18100000E+01           0.10064266E+00
   0.18200000E+01           0.96801488E-01
   0.18300000E+01           0.92785714E-01
   0.18400000E+01           0.89057540E-01
   0.18500000E+01           0.85586508E-01
   0.18600000E+01           0.82119940E-01
   0.18700000E+01           0.78740079E-01
   0.18800000E+01           0.75407242E-01
   0.18900000E+01           0.72196032E-01
   0.19000000E+01           0.69127877E-01
   0.19100000E+01           0.65986607E-01
   0.19200000E+01           0.63251885E-01
   0.19300000E+01           0.60347024E-01
   0.19400000E+01           0.57558929E-01
   0.19500000E+01           0.55077083E-01
   0.19600000E+01           0.52455456E-01
   0.19700000E+01           0.49969643E-01
   0.19800000E+01           0.47617857E-01
   0.19900000E+01           0.45352877E-01
   0.20000000E+01           0.21874206E-01
 #T=   208.0000
  -0.20000000E+01           0.00000000E+00
  -0.19900000E+01           0.00000000E+00
  -0.19800000E+01           0.00000000E+00
  -0.19700000E+01           0.00000000E+00
  -0.19600000E+01           0.00000000E+00
  -0.19500000E+01           0.00000000E+00
  -0.19400000E+01           0.00000000E+00
  -0.19300000E+01           0.00000000E+00
  -0.19200000E+01           0.00000000E+00
  -0.19100000E+01           0.00000000E+00
  -0.19000000E+01           0.00000000E+00
  -0.18900000E+01           0.00000000E+00
  -0.18800000E+01           0.00000000E+00
  -0.18700000E+01           0.00000000E+00
  -0.18600000E+01           0.00000000E+00
  -0.18500000E+01           0.00000000E+00
  -0.18400000E+01           0.00000000E+00
  -0.18300000E+01           0.00000000E+00
  -0.18200000E+01           0.00000000E+00
  -0.18100000E+01           0.00000000E+00
  -0.18000000E+01           0.00000000E+00
  -0.17900000E+01           0.00000000E+00
  -0.17800000E+01           0.00000000E+00
  -0.17700000E+01           0.00000000E+00
  -0.17600000E+01           0.00000000E+00
  -0.17500000E+01           0.00000000E+00
  -0.17400000E+01           0.00000000E+00
  -0.17300000E+01           0.00000000E+00
  -0.17200000E+01           0.00000000E+00
  -0.17100000E+01           0.00000000E+00
  -0.17000000E+01           0.00000000E+00
  -0.16900000E+01           0.00000000E+00
  -0.16800000E+01           0.00000000E+00
  -0.16700000E+01           0.00000000E+00
  -0.16600000E+01           0.00000000E+00
  -0.16500000E+01           0.00000000E+00
  -0.16400000E+01           0.00000000E+00
  -0.16300000E+01           0.00000000E+00
  -0.16200000E+01           0.00000000E+00
  -0.16100000E+01           0.00000000E+00
  -0.16000000E+01           0.00000000E+00
  -0.15900000E+01           0.00000000E+00
  -0.15800000E+01           0.00000000E+00
  -0.15700000E+01           0.00000000E+00
  -0.15600000E+01           0.00000000E+00
  -0.15500000E+01           0.00000000E+00
  -0.15400000E+01           0.00000000E+00
  -0.15300000E+01           0.00000000E+00
  -0.15200000E+01           0.00000000E+00
  -0.15100000E+01           0.00000000E+00
  -0.15000000E+01           0.00000000E+00
  -0.14900000E+01           0.00000000E+00
  -0.14800000E+01           0.00000000E+00
  -0.14700000E+01           0.00000000E+00
  -0.14600000E+01           0.00000000E+00
  -0.14500000E+01           0.00000000E+00
  -0.14400000E+01           0.00000000E+00
  -0.14300000E+01           0.00000000E+00
  -0.14200000E+01           0.00000000E+00
  -0.14100000E+01           0.00000000E+00
  -0.14000000E+01           0.00000000E+00
  -0.13900000E+01           0.00000000E+00
  -0.13800000E+01           0.00000000E+00
  -0.13700000E+01           0.00000000E+00
  -0.13600000E+01           0.00000000E+00
  -0.13500000E+01           0.00000000E+00
  -0.13400000E+01           0.00000000E+00
  -0.13300000E+01           0.00000000E+00
  -0.13200000E+01           0.00000000E+00
  -0.13100000E+01           0.00000000E+00
  -0.13000000E+01           0.00000000E+00
  -0.12900000E+01           0.00000000E+00
  -0.12800000E+01           0.00000000E+00
  -0.12700000E+01           0.00000000E+00
  -0.12600000E+01           0.00000000E+00
  -0.12500000E+01           0.00000000E+00
  -0.12400000E+01           0.00000000E+00
  -0.12300000E+01           0.00000000E+00
  -0.12200000E+01           0.00000000E+00
  -0.12100000E+01           0.00000000E+00
  -0.12000000E+01           0.00000000E+00
  -0.11900000E+01           0.00000000E+00
  -0.11800000E+01           0.00000000E+00
  -0.11700000E+01           0.00000000E+00
  -0.11600000E+01           0.00000000E+00
  -0.11500000E+01           0.00000000E+00
  -0.11400000E+01           0.00000000E+00
  -0.11300000E+01           0.00000000E+00
  -0.11200000E+01           0.00000000E+00
  -0.11100000E+01           0.00000000E+00
  -0.11000000E+01           0.00000000E+00
  -0.10900000E+01           0.00000000E+00
  -0.10800000E+01           0.00000000E+00
  -0.10700000E+01           0.00000000E+00
  -0.10600000E+01           0.00000000E+00
  -0.10500000E+01           0.00000000E+00
  -0.10400000E+01           0.00000000E+00
  -0.10300000E+01           0.00000000E+00
  -0.10200000E+01           0.00000000E+00
  -0.10100000E+01           0.00000000E+00
  -0.10000000E+01           0.00000000E+00
  -0.99000000E+00           0.00000000E+00
  -0.98000000E+00           0.00000000E+00
  -0.97000000E+00           0.00000000E+00
  -0.96000000E+00           0.00000000E+00
  -0.95000000E+00           0.00000000E+00
  -0.94000000E+00           0.00000000E+00
  -0.93000000E+00           0.00000000E+00
  -0.92000000E+00           0.00000000E+00
  -0.91000000E+00           0.00000000E+00
  -0.90000000E+00           0.00000000E+00
  -0.89000000E+00           0.00000000E+00
  -0.88000000E+00           0.00000000E+00
  -0.87000000E+00           0.00000000E+00
  -0.86000000E+00           0.00000000E+00
  -0.85000000E+00           0.00000000E+00
  -0.84000000E+00           0.00000000E+00
  -0.83000000E+00           0.00000000E+00
  -0.82000000E+00           0.00000000E+00
  -0.81000000E+00           0.00000000E+00
  -0.80000000E+00           0.00000000E+00
  -0.79000000E+00           0.00000000E+00
  -0.78000000E+00           0.00000000E+00
  -0.77000000E+00           0.00000000E+00
  -0.76000000E+00           0.00000000E+00
  -0.75000000E+00           0.00000000E+00
  -0.74000000E+00           0.00000000E+00
  -0.73000000E+00           0.00000000E+00
  -0.72000000E+00           0.00000000E+00
  -0.71000000E+00           0.00000000E+00
  -0.70000000E+00           0.00000000E+00
  -0.69000000E+00           0.00000000E+00
  -0.68000000E+00           0.00000000E+00
  -0.67000000E+00           0.00000000E+00
  -0.66000000E+00           0.00000000E+00
  -0.65000000E+00           0.00000000E+00
  -0.64000000E+00           0.00000000E+00
  -0.63000000E+00           0.00000000E+00
  -0.62000000E+00           0.00000000E+00
  -0.61000000E+00           0.00000000E+00
  -0.60000000E+00           0.00000000E+00
  -0.59000000E+00           0.00000000E+00
  -0.58000000E+00           0.00000000E+00
  -0.57000000E+00           0.00000000E+00
  -0.56000000E+00           0.00000000E+00
  -0.55000000E+00           0.00000000E+00
  -0.54000000E+00           0.00000000E+00
  -0.53000000E+00           0.00000000E+00
  -0.52000000E+00           0.00000000E+00
  -0.51000000E+00           0.00000000E+00
  -0.50000000E+00           0.00000000E+00
  -0.49000000E+00           0.00000000E+00
  -0.48000000E+00           0.00000000E+00
  -0.47000000E+00           0.00000000E+00
  -0.46000000E+00           0.00000000E+00
  -0.45000000E+00           0.00000000E+00
  -0.44000000E+00           0.00000000E+00
  -0.43000000E+00           0.00000000E+00
  -0.42000000E+00           0.00000000E+00
  -0.41000000E+00           0.00000000E+00
  -0.40000000E+00           0.00000000E+00
  -0.39000000E+00           0.00000000E+00
  -0.38000000E+00           0.00000000E+00
  -0.37000000E+00           0.00000000E+00
  -0.36000000E+00           0.00000000E+00
  -0.35000000E+00           0.00000000E+00
  -0.34000000E+00           0.00000000E+00
  -0.33000000E+00           0.00000000E+00
  -0.32000000E+00           0.00000000E+00
  -0.31000000E+00           0.00000000E+00
  -0.30000000E+00           0.00000000E+00
  -0.29000000E+00           0.00000000E+00
  -0.28000000E+00           0.00000000E+00
  -0.27000000E+00           0.00000000E+00
  -0.26000000E+00           0.00000000E+00
  -0.25000000E+00           0.00000000E+00
  -0.24000000E+00           0.00000000E+00
  -0.23000000E+00           0.00000000E+00
  -0.22000000E+00           0.00000000E+00
  -0.21000000E+00           0.00000000E+00
  -0.20000000E+00           0.00000000E+00
  -0.19000000E+00           0.00000000E+00
  -0.18000000E+00           0.00000000E+00
  -0.17000000E+00           0.00000000E+00
  -0.16000000E+00           0.00000000E+00
  -0.15000000E+00           0.00000000E+00
  -0.14000000E+00           0.00000000E+00
  -0.13000000E+00           0.00000000E+00
  -0.12000000E+00           0.00000000E+00
  -0.11000000E+00           0.00000000E+00
  -0.10000000E+00           0.00000000E+00
  -0.90000000E-01           0.00000000E+00
  -0.80000000E-01           0.00000000E+00
  -0.70000000E-01           0.00000000E+00
  -0.60000000E-01           0.00000000E+00
  -0.50000000E-01           0.00000000E+00
  -0.40000000E-01           0.00000000E+00
  -0.30000000E-01           0.00000000E+00
  -0.20000000E-01           0.00000000E+00
  -0.10000000E-01           0.00000000E+00
   0.00000000E+00           0.27056548E-02
   0.10000000E-01           0.21509821E-01
   0.20000000E-01           0.42975694E-01
   0.30000000E-01           0.64489385E-01
   0.40000000E-01           0.85852480E-01
   0.50000000E-01           0.10732530E+00
   0.60000000E-01           0.12859087E+00
   0.70000000E-01           0.14965784E+00
   0.80000000E-01           0.17109802E+00
   0.90000000E-01           0.19184087E+00
   0.10000000E+00           0.21261706E+00
   0.11000000E+00           0.23334683E+00
   0.12000000E+00           0.25410893E+00
   0.13000000E+00           0.27449841E+00
   0.14000000E+00           0.29466478E+00
   0.15000000E+00           0.31504772E+00
   0.16000000E+00           0.33464683E+00
   0.17000000E+00           0.35475575E+00
   0.18000000E+00           0.37416687E+00
   0.19000000E+00           0.39398532E+00
   0.20000000E+00           0.41282421E+00
   0.21000000E+00           0.43167351E+00
   0.22000000E+00           0.45025258E+00
   0.23000000E+00           0.46806369E+00
   0.24000000E+00           0.48637778E+00
   0.25000000E+00           0.50352758E+00
   0.26000000E+00           0.52149921E+00
   0.27000000E+00           0.53861736E+00
   0.28000000E+00           0.55530060E+00
   0.29000000E+00           0.57204077E+00
   0.30000000E+00           0.58796994E+00
   0.31000000E+00           0.60348323E+00
   0.32000000E+00           0.61968056E+00
   0.33000000E+00           0.63446944E+00
   0.34000000E+00           0.64921726E+00
   0.35000000E+00           0.66332560E+00
   0.36000000E+00           0.67758770E+00
   0.37000000E+00           0.69087560E+00
   0.38000000E+00           0.70477897E+00
   0.39000000E+00           0.71698998E+00
   0.40000000E+00           0.72953859E+00
   0.41000000E+00           0.74134851E+00
   0.42000000E+00           0.75305397E+00
   0.43000000E+00           0.76436310E+00
   0.44000000E+00           0.77527768E+00
   0.45000000E+00           0.78548085E+00
   0.46000000E+00           0.79597966E+00
   0.47000000E+00           0.80490188E+00
   0.48000000E+00           0.81417262E+00
   0.49000000E+00           0.82298056E+00
   0.50000000E+00           0.83156915E+00
   0.51000000E+00           0.83911260E+00
   0.52000000E+00           0.84593909E+00
   0.53000000E+00           0.85274593E+00
   0.54000000E+00           0.86029375E+00
   0.55000000E+00           0.86582262E+00
   0.56000000E+00           0.87166002E+00
   0.57000000E+00           0.87756915E+00
   0.58000000E+00           0.88187242E+00
   0.59000000E+00           0.88567083E+00
   0.60000000E+00           0.89014474E+00
   0.61000000E+00           0.89376200E+00
   0.62000000E+00           0.89674097E+00
   0.63000000E+00           0.89903284E+00
   0.64000000E+00           0.90162847E+00
   0.65000000E+00           0.90396558E+00
   0.66000000E+00           0.90488760E+00
   0.67000000E+00           0.90661488E+00
   0.68000000E+00           0.90637897E+00
   0.69000000E+00           0.90691319E+00
   0.70000000E+00           0.90718671E+00
   0.71000000E+00           0.90664812E+00
   0.72000000E+00           0.90637520E+00
   0.73000000E+00           0.90455119E+00
   0.74000000E+00           0.90313700E+00
   0.75000000E+00           0.90121597E+00
   0.76000000E+00           0.89866349E+00
   0.77000000E+00           0.89599087E+00
   0.78000000E+00           0.89315397E+00
   0.79000000E+00           0.89019405E+00
   0.80000000E+00           0.88596290E+00
   0.81000000E+00           0.88225774E+00
   0.82000000E+00           0.87771359E+00
   0.83000000E+00           0.87359266E+00
   0.84000000E+00           0.86821379E+00
   0.85000000E+00           0.86364950E+00
   0.86000000E+00           0.85827073E+00
   0.87000000E+00           0.85269355E+00
   0.88000000E+00           0.84620913E+00
   0.89000000E+00           0.84054613E+00
   0.90000000E+00           0.83356855E+00
   0.91000000E+00           0.82706954E+00
   0.92000000E+00           0.82081607E+00
   0.93000000E+00           0.81257966E+00
   0.94000000E+00           0.80543234E+00
   0.95000000E+00           0.79838224E+00
   0.96000000E+00           0.79035139E+00
   0.97000000E+00           0.78269871E+00
   0.98000000E+00           0.77437262E+00
   0.99000000E+00           0.76507619E+00
   0.10000000E+01           0.75734137E+00
   0.10100000E+01           0.74883294E+00
   0.10200000E+01           0.73978284E+00
   0.10300000E+01           0.73062450E+00
   0.10400000E+01           0.72189296E+00
   0.10500000E+01           0.71272113E+00
   0.10600000E+01           0.70357698E+00
   0.10700000E+01           0.69471538E+00
   0.10800000E+01           0.68522004E+00
   0.10900000E+01           0.67454802E+00
   0.11000000E+01           0.66559474E+00
   0.11100000E+01           0.65634246E+00
   0.11200000E+01           0.64663690E+00
   0.11300000E+01           0.63589583E+00
   0.11400000E+01           0.62625238E+00
   0.11500000E+01           0.61684901E+00
   0.11600000E+01           0.60592817E+00
   0.11700000E+01           0.59613760E+00
   0.11800000E+01           0.58668175E+00
   0.11900000E+01           0.57653750E+00
   0.12000000E+01           0.56677550E+00
   0.12100000E+01           0.55674613E+00
   0.12200000E+01           0.54649206E+00
   0.12300000E+01           0.53618641E+00
   0.12400000E+01           0.52610526E+00
   0.12500000E+01           0.51634871E+00
   0.12600000E+01           0.50643601E+00
   0.12700000E+01           0.49651518E+00
   0.12800000E+01           0.48673879E+00
   0.12900000E+01           0.47624494E+00
   0.13000000E+01           0.46712639E+00
   0.13100000E+01           0.45701687E+00
   0.13200000E+01           0.44756091E+00
   0.13300000E+01           0.43841706E+00
   0.13400000E+01           0.42865645E+00
   0.13500000E+01           0.41930298E+00
   0.13600000E+01           0.40958462E+00
   0.13700000E+01           0.40009544E+00
   0.13800000E+01           0.39080228E+00
   0.13900000E+01           0.38185962E+00
   0.14000000E+01           0.37315863E+00
   0.14100000E+01           0.36414226E+00
   0.14200000E+01           0.35486687E+00
   0.14300000E+01           0.34632867E+00
   0.14400000E+01           0.33759554E+00
   0.14500000E+01           0.32932927E+00
   0.14600000E+01           0.32064772E+00
   0.14700000E+01           0.31267867E+00
   0.14800000E+01           0.30388323E+00
   0.14900000E+01           0.29599405E+00
   0.15000000E+01           0.28805456E+00
   0.15100000E+01           0.28038552E+00
   0.15200000E+01           0.27213135E+00
   0.15300000E+01           0.26522808E+00
   0.15400000E+01           0.25757966E+00
   0.15500000E+01           0.25004315E+00
   0.15600000E+01           0.24284266E+00
   0.15700000E+01           0.23590129E+00
   0.15800000E+01           0.22877173E+00
   0.15900000E+01           0.22196399E+00
   0.16000000E+01           0.21550516E+00
   0.16100000E+01           0.20876994E+00
   0.16200000E+01           0.20232093E+00
   0.16300000E+01           0.19581478E+00
   0.16400000E+01           0.18971786E+00
   0.16500000E+01           0.18363839E+00
   0.16600000E+01           0.17783849E+00
   0.16700000E+01           0.17181488E+00
   0.16800000E+01           0.16611488E+00
   0.16900000E+01           0.16041062E+00
   0.17000000E+01           0.15473095E+00
   0.17100000E+01           0.14984861E+00
   0.17200000E+01           0.14443155E+00
   0.17300000E+01           0.13950327E+00
   0.17400000E+01           0.13473800E+00
   0.17500000E+01           0.12975694E+00
   0.17600000E+01           0.12519742E+00
   0.17700000E+01           0.12052272E+00
   0.17800000E+01           0.11606478E+00
   0.17900000E+01           0.11152490E+00
   0.18000000E+01           0.10751111E+00
   0.18100000E+01           0.10343185E+00
   0.18200000E+01           0.99354365E-01
   0.18300000E+01           0.95610317E-01
   0.18400000E+01           0.91686012E-01
   0.18500000E+01           0.87997222E-01
   0.18600000E+01           0.84632044E-01
   0.18700000E+01           0.80920734E-01
   0.18800000E+01           0.77463194E-01
   0.18900000E+01           0.74076984E-01
   0.19000000E+01           0.71255952E-01
   0.19100000E+01           0.68076389E-01
   0.19200000E+01           0.65120833E-01
   0.19300000E+01           0.62353571E-01
   0.19400000E+01           0.59451587E-01
   0.19500000E+01           0.56894940E-01
   0.19600000E+01           0.54260615E-01
   0.19700000E+01           0.51543651E-01
   0.19800000E+01           0.49274206E-01
   0.19900000E+01           0.47041171E-01
   0.20000000E+01           0.22691369E-01
 #T=   209.0000
  -0.20000000E+01           0.00000000E+00
  -0.19900000E+01           0.00000000E+00
  -0.19800000E+01           0.00000000E+00
  -0.19700000E+01           0.00000000E+00
  -0.19600000E+01           0.00000000E+00
  -0.19500000E+01           0.00000000E+00
  -0.19400000E+01           0.00000000E+00
  -0.19300000E+01           0.00000000E+00
  -0.19200000E+01           0.00000000E+00
  -0.19100000E+01           0.00000000E+00
  -0.19000000E+01           0.00000000E+00
  -0.18900000E+01           0.00000000E+00
  -0.18800000E+01           0.00000000E+00
  -0.18700000E+01           0.00000000E+00
  -0.18600000E+01           0.00000000E+00
  -0.18500000E+01           0.00000000E+00
  -0.18400000E+01           0.00000000E+00
  -0.18300000E+01           0.00000000E+00
  -0.18200000E+01           0.00000000E+00
  -0.18100000E+01           0.00000000E+00
  -0.18000000E+01           0.00000000E+00
  -0.17900000E+01           0.00000000E+00
  -0.17800000E+01           0.00000000E+00
  -0.17700000E+01           0.00000000E+00
  -0.17600000E+01           0.00000000E+00
  -0.17500000E+01           0.00000000E+00
  -0.17400000E+01           0.00000000E+00
  -0.17300000E+01           0.00000000E+00
  -0.17200000E+01           0.00000000E+00
  -0.17100000E+01           0.00000000E+00
  -0.17000000E+01           0.00000000E+00
  -0.16900000E+01           0.00000000E+00
  -0.16800000E+01           0.00000000E+00
  -0.16700000E+01           0.00000000E+00
  -0.16600000E+01           0.00000000E+00
  -0.16500000E+01           0.00000000E+00
  -0.16400000E+01           0.00000000E+00
  -0.16300000E+01           0.00000000E+00
  -0.16200000E+01           0.00000000E+00
  -0.16100000E+01           0.00000000E+00
  -0.16000000E+01           0.00000000E+00
  -0.15900000E+01           0.00000000E+00
  -0.15800000E+01           0.00000000E+00
  -0.15700000E+01           0.00000000E+00
  -0.15600000E+01           0.00000000E+00
  -0.15500000E+01           0.00000000E+00
  -0.15400000E+01           0.00000000E+00
  -0.15300000E+01           0.00000000E+00
  -0.15200000E+01           0.00000000E+00
  -0.15100000E+01           0.00000000E+00
  -0.15000000E+01           0.00000000E+00
  -0.14900000E+01           0.00000000E+00
  -0.14800000E+01           0.00000000E+00
  -0.14700000E+01           0.00000000E+00
  -0.14600000E+01           0.00000000E+00
  -0.14500000E+01           0.00000000E+00
  -0.14400000E+01           0.00000000E+00
  -0.14300000E+01           0.00000000E+00
  -0.14200000E+01           0.00000000E+00
  -0.14100000E+01           0.00000000E+00
  -0.14000000E+01           0.00000000E+00
  -0.13900000E+01           0.00000000E+00
  -0.13800000E+01           0.00000000E+00
  -0.13700000E+01           0.00000000E+00
  -0.13600000E+01           0.00000000E+00
  -0.13500000E+01           0.00000000E+00
  -0.13400000E+01           0.00000000E+00
  -0.13300000E+01           0.00000000E+00
  -0.13200000E+01           0.00000000E+00
  -0.13100000E+01           0.00000000E+00
  -0.13000000E+01           0.00000000E+00
  -0.12900000E+01           0.00000000E+00
  -0.12800000E+01           0.00000000E+00
  -0.12700000E+01           0.00000000E+00
  -0.12600000E+01           0.00000000E+00
  -0.12500000E+01           0.00000000E+00
  -0.12400000E+01           0.00000000E+00
  -0.12300000E+01           0.00000000E+00
  -0.12200000E+01           0.00000000E+00
  -0.12100000E+01           0.00000000E+00
  -0.12000000E+01           0.00000000E+00
  -0.11900000E+01           0.00000000E+00
  -0.11800000E+01           0.00000000E+00
  -0.11700000E+01           0.00000000E+00
  -0.11600000E+01           0.00000000E+00
  -0.11500000E+01           0.00000000E+00
  -0.11400000E+01           0.00000000E+00
  -0.11300000E+01           0.00000000E+00
  -0.11200000E+01           0.00000000E+00
  -0.11100000E+01           0.00000000E+00
  -0.11000000E+01           0.00000000E+00
  -0.10900000E+01           0.00000000E+00
  -0.10800000E+01           0.00000000E+00
  -0.10700000E+01           0.00000000E+00
  -0.10600000E+01           0.00000000E+00
  -0.10500000E+01           0.00000000E+00
  -0.10400000E+01           0.00000000E+00
  -0.10300000E+01           0.00000000E+00
  -0.10200000E+01           0.00000000E+00
  -0.10100000E+01           0.00000000E+00
  -0.10000000E+01           0.00000000E+00
  -0.99000000E+00           0.00000000E+00
  -0.98000000E+00           0.00000000E+00
  -0.97000000E+00           0.00000000E+00
  -0.96000000E+00           0.00000000E+00
  -0.95000000E+00           0.00000000E+00
  -0.94000000E+00           0.00000000E+00
  -0.93000000E+00           0.00000000E+00
  -0.92000000E+00           0.00000000E+00
  -0.91000000E+00           0.00000000E+00
  -0.90000000E+00           0.00000000E+00
  -0.89000000E+00           0.00000000E+00
  -0.88000000E+00           0.00000000E+00
  -0.87000000E+00           0.00000000E+00
  -0.86000000E+00           0.00000000E+00
  -0.85000000E+00           0.00000000E+00
  -0.84000000E+00           0.00000000E+00
  -0.83000000E+00           0.00000000E+00
  -0.82000000E+00           0.00000000E+00
  -0.81000000E+00           0.00000000E+00
  -0.80000000E+00           0.00000000E+00
  -0.79000000E+00           0.00000000E+00
  -0.78000000E+00           0.00000000E+00
  -0.77000000E+00           0.00000000E+00
  -0.76000000E+00           0.00000000E+00
  -0.75000000E+00           0.00000000E+00
  -0.74000000E+00           0.00000000E+00
  -0.73000000E+00           0.00000000E+00
  -0.72000000E+00           0.00000000E+00
  -0.71000000E+00           0.00000000E+00
  -0.70000000E+00           0.00000000E+00
  -0.69000000E+00           0.00000000E+00
  -0.68000000E+00           0.00000000E+00
  -0.67000000E+00           0.00000000E+00
  -0.66000000E+00           0.00000000E+00
  -0.65000000E+00           0.00000000E+00
  -0.64000000E+00           0.00000000E+00
  -0.63000000E+00           0.00000000E+00
  -0.62000000E+00           0.00000000E+00
  -0.61000000E+00           0.00000000E+00
  -0.60000000E+00           0.00000000E+00
  -0.59000000E+00           0.00000000E+00
  -0.58000000E+00           0.00000000E+00
  -0.57000000E+00           0.00000000E+00
  -0.56000000E+00           0.00000000E+00
  -0.55000000E+00           0.00000000E+00
  -0.54000000E+00           0.00000000E+00
  -0.53000000E+00           0.00000000E+00
  -0.52000000E+00           0.00000000E+00
  -0.51000000E+00           0.00000000E+00
  -0.50000000E+00           0.00000000E+00
  -0.49000000E+00           0.00000000E+00
  -0.48000000E+00           0.00000000E+00
  -0.47000000E+00           0.00000000E+00
  -0.46000000E+00           0.00000000E+00
  -0.45000000E+00           0.00000000E+00
  -0.44000000E+00           0.00000000E+00
  -0.43000000E+00           0.00000000E+00
  -0.42000000E+00           0.00000000E+00
  -0.41000000E+00           0.00000000E+00
  -0.40000000E+00           0.00000000E+00
  -0.39000000E+00           0.00000000E+00
  -0.38000000E+00           0.00000000E+00
  -0.37000000E+00           0.00000000E+00
  -0.36000000E+00           0.00000000E+00
  -0.35000000E+00           0.00000000E+00
  -0.34000000E+00           0.00000000E+00
  -0.33000000E+00           0.00000000E+00
  -0.32000000E+00           0.00000000E+00
  -0.31000000E+00           0.00000000E+00
  -0.30000000E+00           0.00000000E+00
  -0.29000000E+00           0.00000000E+00
  -0.28000000E+00           0.00000000E+00
  -0.27000000E+00           0.00000000E+00
  -0.26000000E+00           0.00000000E+00
  -0.25000000E+00           0.00000000E+00
  -0.24000000E+00           0.00000000E+00
  -0.23000000E+00           0.00000000E+00
  -0.22000000E+00           0.00000000E+00
  -0.21000000E+00           0.00000000E+00
  -0.20000000E+00           0.00000000E+00
  -0.19000000E+00           0.00000000E+00
  -0.18000000E+00           0.00000000E+00
  -0.17000000E+00           0.00000000E+00
  -0.16000000E+00           0.00000000E+00
  -0.15000000E+00           0.00000000E+00
  -0.14000000E+00           0.00000000E+00
  -0.13000000E+00           0.00000000E+00
  -0.12000000E+00           0.00000000E+00
  -0.11000000E+00           0.00000000E+00
  -0.10000000E+00           0.00000000E+00
  -0.90000000E-01           0.00000000E+00
  -0.80000000E-01           0.00000000E+00
  -0.70000000E-01           0.00000000E+00
  -0.60000000E-01           0.00000000E+00
  -0.50000000E-01           0.00000000E+00
  -0.40000000E-01           0.00000000E+00
  -0.30000000E-01           0.00000000E+00
  -0.20000000E-01           0.00000000E+00
  -0.10000000E-01           0.00000000E+00
   0.00000000E+00           0.26713294E-02
   0.10000000E-01           0.21395437E-01
   0.20000000E-01           0.42517163E-01
   0.30000000E-01           0.63916865E-01
   0.40000000E-01           0.85174405E-01
   0.50000000E-01           0.10623740E+00
   0.60000000E-01           0.12736577E+00
   0.70000000E-01           0.14876468E+00
   0.80000000E-01           0.16975069E+00
   0.90000000E-01           0.19011052E+00
   0.10000000E+00           0.21110377E+00
   0.11000000E+00           0.23166935E+00
   0.12000000E+00           0.25221587E+00
   0.13000000E+00           0.27250923E+00
   0.14000000E+00           0.29272659E+00
   0.15000000E+00           0.31318313E+00
   0.16000000E+00           0.33267530E+00
   0.17000000E+00           0.35210149E+00
   0.18000000E+00           0.37168244E+00
   0.19000000E+00           0.39028601E+00
   0.20000000E+00           0.40979583E+00
   0.21000000E+00           0.42856587E+00
   0.22000000E+00           0.44655546E+00
   0.23000000E+00           0.46432718E+00
   0.24000000E+00           0.48271855E+00
   0.25000000E+00           0.50055466E+00
   0.26000000E+00           0.51766319E+00
   0.27000000E+00           0.53480665E+00
   0.28000000E+00           0.55121101E+00
   0.29000000E+00           0.56803938E+00
   0.30000000E+00           0.58404028E+00
   0.31000000E+00           0.60000565E+00
   0.32000000E+00           0.61496032E+00
   0.33000000E+00           0.63012569E+00
   0.34000000E+00           0.64454633E+00
   0.35000000E+00           0.65954048E+00
   0.36000000E+00           0.67279782E+00
   0.37000000E+00           0.68720585E+00
   0.38000000E+00           0.69960119E+00
   0.39000000E+00           0.71233750E+00
   0.40000000E+00           0.72512579E+00
   0.41000000E+00           0.73675585E+00
   0.42000000E+00           0.74863046E+00
   0.43000000E+00           0.75956250E+00
   0.44000000E+00           0.77051290E+00
   0.45000000E+00           0.78059782E+00
   0.46000000E+00           0.79099266E+00
   0.47000000E+00           0.80052222E+00
   0.48000000E+00           0.80994266E+00
   0.49000000E+00           0.81818462E+00
   0.50000000E+00           0.82651161E+00
   0.51000000E+00           0.83494831E+00
   0.52000000E+00           0.84174286E+00
   0.53000000E+00           0.84908591E+00
   0.54000000E+00           0.85530159E+00
   0.55000000E+00           0.86107222E+00
   0.56000000E+00           0.86700486E+00
   0.57000000E+00           0.87210704E+00
   0.58000000E+00           0.87693919E+00
   0.59000000E+00           0.88155645E+00
   0.60000000E+00           0.88670000E+00
   0.61000000E+00           0.88932202E+00
   0.62000000E+00           0.89215010E+00
   0.63000000E+00           0.89546726E+00
   0.64000000E+00           0.89723988E+00
   0.65000000E+00           0.89911776E+00
   0.66000000E+00           0.90129802E+00
   0.67000000E+00           0.90250119E+00
   0.68000000E+00           0.90268562E+00
   0.69000000E+00           0.90354573E+00
   0.70000000E+00           0.90375030E+00
   0.71000000E+00           0.90338839E+00
   0.72000000E+00           0.90232411E+00
   0.73000000E+00           0.90135645E+00
   0.74000000E+00           0.90016478E+00
   0.75000000E+00           0.89806171E+00
   0.76000000E+00           0.89574484E+00
   0.77000000E+00           0.89396518E+00
   0.78000000E+00           0.89118353E+00
   0.79000000E+00           0.88697490E+00
   0.80000000E+00           0.88381071E+00
   0.81000000E+00           0.87973661E+00
   0.82000000E+00           0.87619950E+00
   0.83000000E+00           0.87175556E+00
   0.84000000E+00           0.86747589E+00
   0.85000000E+00           0.86233730E+00
   0.86000000E+00           0.85682490E+00
   0.87000000E+00           0.85089187E+00
   0.88000000E+00           0.84499861E+00
   0.89000000E+00           0.83909464E+00
   0.90000000E+00           0.83308839E+00
   0.91000000E+00           0.82626538E+00
   0.92000000E+00           0.81897331E+00
   0.93000000E+00           0.81257044E+00
   0.94000000E+00           0.80557917E+00
   0.95000000E+00           0.79752530E+00
   0.96000000E+00           0.79040020E+00
   0.97000000E+00           0.78272004E+00
   0.98000000E+00           0.77386349E+00
   0.99000000E+00           0.76589921E+00
   0.10000000E+01           0.75793254E+00
   0.10100000E+01           0.74976071E+00
   0.10200000E+01           0.74116498E+00
   0.10300000E+01           0.73220942E+00
   0.10400000E+01           0.72306399E+00
   0.10500000E+01           0.71375347E+00
   0.10600000E+01           0.70524593E+00
   0.10700000E+01           0.69611855E+00
   0.10800000E+01           0.68669484E+00
   0.10900000E+01           0.67723740E+00
   0.11000000E+01           0.66788750E+00
   0.11100000E+01           0.65762768E+00
   0.11200000E+01           0.64833115E+00
   0.11300000E+01           0.63852093E+00
   0.11400000E+01           0.62885754E+00
   0.11500000E+01           0.61909077E+00
   0.11600000E+01           0.60910466E+00
   0.11700000E+01           0.59929901E+00
   0.11800000E+01           0.58946101E+00
   0.11900000E+01           0.57895337E+00
   0.12000000E+01           0.56934573E+00
   0.12100000E+01           0.55913552E+00
   0.12200000E+01           0.54947887E+00
   0.12300000E+01           0.53924683E+00
   0.12400000E+01           0.52938383E+00
   0.12500000E+01           0.51955595E+00
   0.12600000E+01           0.50985546E+00
   0.12700000E+01           0.50000268E+00
   0.12800000E+01           0.48996806E+00
   0.12900000E+01           0.48047897E+00
   0.13000000E+01           0.47011855E+00
   0.13100000E+01           0.46070129E+00
   0.13200000E+01           0.45118284E+00
   0.13300000E+01           0.44146915E+00
   0.13400000E+01           0.43210754E+00
   0.13500000E+01           0.42294435E+00
   0.13600000E+01           0.41359970E+00
   0.13700000E+01           0.40430437E+00
   0.13800000E+01           0.39467758E+00
   0.13900000E+01           0.38565645E+00
   0.14000000E+01           0.37690268E+00
   0.14100000E+01           0.36753105E+00
   0.14200000E+01           0.35885129E+00
   0.14300000E+01           0.34959841E+00
   0.14400000E+01           0.34159127E+00
   0.14500000E+01           0.33306042E+00
   0.14600000E+01           0.32469752E+00
   0.14700000E+01           0.31635794E+00
   0.14800000E+01           0.30819752E+00
   0.14900000E+01           0.29963958E+00
   0.15000000E+01           0.29205655E+00
   0.15100000E+01           0.28400863E+00
   0.15200000E+01           0.27639802E+00
   0.15300000E+01           0.26852629E+00
   0.15400000E+01           0.26107520E+00
   0.15500000E+01           0.25366657E+00
   0.15600000E+01           0.24666528E+00
   0.15700000E+01           0.23944385E+00
   0.15800000E+01           0.23283978E+00
   0.15900000E+01           0.22561885E+00
   0.16000000E+01           0.21890823E+00
   0.16100000E+01           0.21222401E+00
   0.16200000E+01           0.20577431E+00
   0.16300000E+01           0.19923869E+00
   0.16400000E+01           0.19296925E+00
   0.16500000E+01           0.18674901E+00
   0.16600000E+01           0.18075893E+00
   0.16700000E+01           0.17514742E+00
   0.16800000E+01           0.16938681E+00
   0.16900000E+01           0.16376240E+00
   0.17000000E+01           0.15829196E+00
   0.17100000E+01           0.15305913E+00
   0.17200000E+01           0.14776012E+00
   0.17300000E+01           0.14270724E+00
   0.17400000E+01           0.13754821E+00
   0.17500000E+01           0.13283333E+00
   0.17600000E+01           0.12780804E+00
   0.17700000E+01           0.12323730E+00
   0.17800000E+01           0.11862034E+00
   0.17900000E+01           0.11451190E+00
   0.18000000E+01           0.11033839E+00
   0.18100000E+01           0.10593611E+00
   0.18200000E+01           0.10193839E+00
   0.18300000E+01           0.98016567E-01
   0.18400000E+01           0.94227778E-01
   0.18500000E+01           0.90372123E-01
   0.18600000E+01           0.86877083E-01
   0.18700000E+01           0.83269246E-01
   0.18800000E+01           0.79906944E-01
   0.18900000E+01           0.76692758E-01
   0.19000000E+01           0.73279960E-01
   0.19100000E+01           0.70307837E-01
   0.19200000E+01           0.67347321E-01
   0.19300000E+01           0.64410615E-01
   0.19400000E+01           0.61668155E-01
   0.19500000E+01           0.58890377E-01
   0.19600000E+01           0.56266071E-01
   0.19700000E+01           0.53632937E-01
   0.19800000E+01           0.51207143E-01
   0.19900000E+01           0.48869841E-01
   0.20000000E+01           0.23485714E-01
 #T=   210.0000
  -0.20000000E+01           0.00000000E+00
  -0.19900000E+01           0.00000000E+00
  -0.19800000E+01           0.00000000E+00
  -0.19700000E+01           0.00000000E+00
  -0.19600000E+01           0.00000000E+00
  -0.19500000E+01           0.00000000E+00
  -0.19400000E+01           0.00000000E+00
  -0.19300000E+01           0.00000000E+00
  -0.19200000E+01           0.00000000E+00
  -0.19100000E+01           0.00000000E+00
  -0.19000000E+01           0.00000000E+00
  -0.18900000E+01           0.00000000E+00
  -0.18800000E+01           0.00000000E+00
  -0.18700000E+01           0.00000000E+00
  -0.18600000E+01           0.00000000E+00
  -0.18500000E+01           0.00000000E+00
  -0.18400000E+01           0.00000000E+00
  -0.18300000E+01           0.00000000E+00
  -0.18200000E+01           0.00000000E+00
  -0.18100000E+01           0.00000000E+00
  -0.18000000E+01           0.00000000E+00
  -0.17900000E+01           0.00000000E+00
  -0.17800000E+01           0.00000000E+00
  -0.17700000E+01           0.00000000E+00
  -0.17600000E+01           0.00000000E+00
  -0.17500000E+01           0.00000000E+00
  -0.17400000E+01           0.00000000E+00
  -0.17300000E+01           0.00000000E+00
  -0.17200000E+01           0.00000000E+00
  -0.17100000E+01           0.00000000E+00
  -0.17000000E+01           0.00000000E+00
  -0.16900000E+01           0.00000000E+00
  -0.16800000E+01           0.00000000E+00
  -0.16700000E+01           0.00000000E+00
  -0.16600000E+01           0.00000000E+00
  -0.16500000E+01           0.00000000E+00
  -0.16400000E+01           0.00000000E+00
  -0.16300000E+01           0.00000000E+00
  -0.16200000E+01           0.00000000E+00
  -0.16100000E+01           0.00000000E+00
  -0.16000000E+01           0.00000000E+00
  -0.15900000E+01           0.00000000E+00
  -0.15800000E+01           0.00000000E+00
  -0.15700000E+01           0.00000000E+00
  -0.15600000E+01           0.00000000E+00
  -0.15500000E+01           0.00000000E+00
  -0.15400000E+01           0.00000000E+00
  -0.15300000E+01           0.00000000E+00
  -0.15200000E+01           0.00000000E+00
  -0.15100000E+01           0.00000000E+00
  -0.15000000E+01           0.00000000E+00
  -0.14900000E+01           0.00000000E+00
  -0.14800000E+01           0.00000000E+00
  -0.14700000E+01           0.00000000E+00
  -0.14600000E+01           0.00000000E+00
  -0.14500000E+01           0.00000000E+00
  -0.14400000E+01           0.00000000E+00
  -0.14300000E+01           0.00000000E+00
  -0.14200000E+01           0.00000000E+00
  -0.14100000E+01           0.00000000E+00
  -0.14000000E+01           0.00000000E+00
  -0.13900000E+01           0.00000000E+00
  -0.13800000E+01           0.00000000E+00
  -0.13700000E+01           0.00000000E+00
  -0.13600000E+01           0.00000000E+00
  -0.13500000E+01           0.00000000E+00
  -0.13400000E+01           0.00000000E+00
  -0.13300000E+01           0.00000000E+00
  -0.13200000E+01           0.00000000E+00
  -0.13100000E+01           0.00000000E+00
  -0.13000000E+01           0.00000000E+00
  -0.12900000E+01           0.00000000E+00
  -0.12800000E+01           0.00000000E+00
  -0.12700000E+01           0.00000000E+00
  -0.12600000E+01           0.00000000E+00
  -0.12500000E+01           0.00000000E+00
  -0.12400000E+01           0.00000000E+00
  -0.12300000E+01           0.00000000E+00
  -0.12200000E+01           0.00000000E+00
  -0.12100000E+01           0.00000000E+00
  -0.12000000E+01           0.00000000E+00
  -0.11900000E+01           0.00000000E+00
  -0.11800000E+01           0.00000000E+00
  -0.11700000E+01           0.00000000E+00
  -0.11600000E+01           0.00000000E+00
  -0.11500000E+01           0.00000000E+00
  -0.11400000E+01           0.00000000E+00
  -0.11300000E+01           0.00000000E+00
  -0.11200000E+01           0.00000000E+00
  -0.11100000E+01           0.00000000E+00
  -0.11000000E+01           0.00000000E+00
  -0.10900000E+01           0.00000000E+00
  -0.10800000E+01           0.00000000E+00
  -0.10700000E+01           0.00000000E+00
  -0.10600000E+01           0.00000000E+00
  -0.10500000E+01           0.00000000E+00
  -0.10400000E+01           0.00000000E+00
  -0.10300000E+01           0.00000000E+00
  -0.10200000E+01           0.00000000E+00
  -0.10100000E+01           0.00000000E+00
  -0.10000000E+01           0.00000000E+00
  -0.99000000E+00           0.00000000E+00
  -0.98000000E+00           0.00000000E+00
  -0.97000000E+00           0.00000000E+00
  -0.96000000E+00           0.00000000E+00
  -0.95000000E+00           0.00000000E+00
  -0.94000000E+00           0.00000000E+00
  -0.93000000E+00           0.00000000E+00
  -0.92000000E+00           0.00000000E+00
  -0.91000000E+00           0.00000000E+00
  -0.90000000E+00           0.00000000E+00
  -0.89000000E+00           0.00000000E+00
  -0.88000000E+00           0.00000000E+00
  -0.87000000E+00           0.00000000E+00
  -0.86000000E+00           0.00000000E+00
  -0.85000000E+00           0.00000000E+00
  -0.84000000E+00           0.00000000E+00
  -0.83000000E+00           0.00000000E+00
  -0.82000000E+00           0.00000000E+00
  -0.81000000E+00           0.00000000E+00
  -0.80000000E+00           0.00000000E+00
  -0.79000000E+00           0.00000000E+00
  -0.78000000E+00           0.00000000E+00
  -0.77000000E+00           0.00000000E+00
  -0.76000000E+00           0.00000000E+00
  -0.75000000E+00           0.00000000E+00
  -0.74000000E+00           0.00000000E+00
  -0.73000000E+00           0.00000000E+00
  -0.72000000E+00           0.00000000E+00
  -0.71000000E+00           0.00000000E+00
  -0.70000000E+00           0.00000000E+00
  -0.69000000E+00           0.00000000E+00
  -0.68000000E+00           0.00000000E+00
  -0.67000000E+00           0.00000000E+00
  -0.66000000E+00           0.00000000E+00
  -0.65000000E+00           0.00000000E+00
  -0.64000000E+00           0.00000000E+00
  -0.63000000E+00           0.00000000E+00
  -0.62000000E+00           0.00000000E+00
  -0.61000000E+00           0.00000000E+00
  -0.60000000E+00           0.00000000E+00
  -0.59000000E+00           0.00000000E+00
  -0.58000000E+00           0.00000000E+00
  -0.57000000E+00           0.00000000E+00
  -0.56000000E+00           0.00000000E+00
  -0.55000000E+00           0.00000000E+00
  -0.54000000E+00           0.00000000E+00
  -0.53000000E+00           0.00000000E+00
  -0.52000000E+00           0.00000000E+00
  -0.51000000E+00           0.00000000E+00
  -0.50000000E+00           0.00000000E+00
  -0.49000000E+00           0.00000000E+00
  -0.48000000E+00           0.00000000E+00
  -0.47000000E+00           0.00000000E+00
  -0.46000000E+00           0.00000000E+00
  -0.45000000E+00           0.00000000E+00
  -0.44000000E+00           0.00000000E+00
  -0.43000000E+00           0.00000000E+00
  -0.42000000E+00           0.00000000E+00
  -0.41000000E+00           0.00000000E+00
  -0.40000000E+00           0.00000000E+00
  -0.39000000E+00           0.00000000E+00
  -0.38000000E+00           0.00000000E+00
  -0.37000000E+00           0.00000000E+00
  -0.36000000E+00           0.00000000E+00
  -0.35000000E+00           0.00000000E+00
  -0.34000000E+00           0.00000000E+00
  -0.33000000E+00           0.00000000E+00
  -0.32000000E+00           0.00000000E+00
  -0.31000000E+00           0.00000000E+00
  -0.30000000E+00           0.00000000E+00
  -0.29000000E+00           0.00000000E+00
  -0.28000000E+00           0.00000000E+00
  -0.27000000E+00           0.00000000E+00
  -0.26000000E+00           0.00000000E+00
  -0.25000000E+00           0.00000000E+00
  -0.24000000E+00           0.00000000E+00
  -0.23000000E+00           0.00000000E+00
  -0.22000000E+00           0.00000000E+00
  -0.21000000E+00           0.00000000E+00
  -0.20000000E+00           0.00000000E+00
  -0.19000000E+00           0.00000000E+00
  -0.18000000E+00           0.00000000E+00
  -0.17000000E+00           0.00000000E+00
  -0.16000000E+00           0.00000000E+00
  -0.15000000E+00           0.00000000E+00
  -0.14000000E+00           0.00000000E+00
  -0.13000000E+00           0.00000000E+00
  -0.12000000E+00           0.00000000E+00
  -0.11000000E+00           0.00000000E+00
  -0.10000000E+00           0.00000000E+00
  -0.90000000E-01           0.00000000E+00
  -0.80000000E-01           0.00000000E+00
  -0.70000000E-01           0.00000000E+00
  -0.60000000E-01           0.00000000E+00
  -0.50000000E-01           0.00000000E+00
  -0.40000000E-01           0.00000000E+00
  -0.30000000E-01           0.00000000E+00
  -0.20000000E-01           0.00000000E+00
  -0.10000000E-01           0.00000000E+00
   0.00000000E+00           0.26934524E-02
   0.10000000E-01           0.21120139E-01
   0.20000000E-01           0.42225198E-01
   0.30000000E-01           0.63458929E-01
   0.40000000E-01           0.84329960E-01
   0.50000000E-01           0.10561091E+00
   0.60000000E-01           0.12670784E+00
   0.70000000E-01           0.14744514E+00
   0.80000000E-01           0.16818839E+00
   0.90000000E-01           0.18908224E+00
   0.10000000E+00           0.20976250E+00
   0.11000000E+00           0.23015704E+00
   0.12000000E+00           0.25004980E+00
   0.13000000E+00           0.27036637E+00
   0.14000000E+00           0.29049911E+00
   0.15000000E+00           0.31005694E+00
   0.16000000E+00           0.32981925E+00
   0.17000000E+00           0.34974563E+00
   0.18000000E+00           0.36871300E+00
   0.19000000E+00           0.38794663E+00
   0.20000000E+00           0.40685923E+00
   0.21000000E+00           0.42526677E+00
   0.22000000E+00           0.44351538E+00
   0.23000000E+00           0.46135506E+00
   0.24000000E+00           0.47965585E+00
   0.25000000E+00           0.49683651E+00
   0.26000000E+00           0.51388304E+00
   0.27000000E+00           0.53085377E+00
   0.28000000E+00           0.54774236E+00
   0.29000000E+00           0.56355456E+00
   0.30000000E+00           0.58026726E+00
   0.31000000E+00           0.59529861E+00
   0.32000000E+00           0.61119742E+00
   0.33000000E+00           0.62574593E+00
   0.34000000E+00           0.64076429E+00
   0.35000000E+00           0.65438611E+00
   0.36000000E+00           0.66823413E+00
   0.37000000E+00           0.68191548E+00
   0.38000000E+00           0.69509187E+00
   0.39000000E+00           0.70778671E+00
   0.40000000E+00           0.71967897E+00
   0.41000000E+00           0.73186746E+00
   0.42000000E+00           0.74371429E+00
   0.43000000E+00           0.75471379E+00
   0.44000000E+00           0.76608234E+00
   0.45000000E+00           0.77611657E+00
   0.46000000E+00           0.78608046E+00
   0.47000000E+00           0.79541081E+00
   0.48000000E+00           0.80514444E+00
   0.49000000E+00           0.81370913E+00
[...]
   0.13800000E+01           0.60136577E+00
   0.13900000E+01           0.59648849E+00
   0.14000000E+01           0.59215813E+00
   0.14100000E+01           0.58704970E+00
   0.14200000E+01           0.58242212E+00
   0.14300000E+01           0.57735665E+00
   0.14400000E+01           0.57196091E+00
   0.14500000E+01           0.56722272E+00
   0.14600000E+01           0.56228948E+00
   0.14700000E+01           0.55678175E+00
   0.14800000E+01           0.55190327E+00
   0.14900000E+01           0.54698710E+00
   0.15000000E+01           0.54139504E+00
   0.15100000E+01           0.53621835E+00
   0.15200000E+01           0.53117788E+00
   0.15300000E+01           0.52563998E+00
   0.15400000E+01           0.52056071E+00
   0.15500000E+01           0.51510526E+00
   0.15600000E+01           0.50973363E+00
   0.15700000E+01           0.50423591E+00
   0.15800000E+01           0.49868552E+00
   0.15900000E+01           0.49385833E+00
   0.16000000E+01           0.48801111E+00
   0.16100000E+01           0.48238175E+00
   0.16200000E+01           0.47737083E+00
   0.16300000E+01           0.47131716E+00
   0.16400000E+01           0.46644077E+00
   0.16500000E+01           0.46028591E+00
   0.16600000E+01           0.45531101E+00
   0.16700000E+01           0.44937897E+00
   0.16800000E+01           0.44442411E+00
   0.16900000E+01           0.43847411E+00
   0.17000000E+01           0.43295764E+00
   0.17100000E+01           0.42755556E+00
   0.17200000E+01           0.42245466E+00
   0.17300000E+01           0.41663681E+00
   0.17400000E+01           0.41161974E+00
   0.17500000E+01           0.40570188E+00
   0.17600000E+01           0.40041558E+00
   0.17700000E+01           0.39513938E+00
   0.17800000E+01           0.38960893E+00
   0.17900000E+01           0.38443790E+00
   0.18000000E+01           0.37935655E+00
   0.18100000E+01           0.37368998E+00
   0.18200000E+01           0.36842867E+00
   0.18300000E+01           0.36294028E+00
   0.18400000E+01           0.35804762E+00
   0.18500000E+01           0.35248036E+00
   0.18600000E+01           0.34743234E+00
   0.18700000E+01           0.34222560E+00
   0.18800000E+01           0.33704514E+00
   0.18900000E+01           0.33214554E+00
   0.19000000E+01           0.32710992E+00
   0.19100000E+01           0.32169127E+00
   0.19200000E+01           0.31689643E+00
   0.19300000E+01           0.31214385E+00
   0.19400000E+01           0.30707827E+00
   0.19500000E+01           0.30211240E+00
   0.19600000E+01           0.29741994E+00
   0.19700000E+01           0.29220813E+00
   0.19800000E+01           0.28766002E+00
   0.19900000E+01           0.28283234E+00
   0.20000000E+01           0.13963294E+00
 #T=   285.0000
  -0.20000000E+01           0.00000000E+00
  -0.19900000E+01           0.00000000E+00
  -0.19800000E+01           0.00000000E+00
  -0.19700000E+01           0.00000000E+00
  -0.19600000E+01           0.00000000E+00
  -0.19500000E+01           0.00000000E+00
  -0.19400000E+01           0.00000000E+00
  -0.19300000E+01           0.00000000E+00
  -0.19200000E+01           0.00000000E+00
  -0.19100000E+01           0.00000000E+00
  -0.19000000E+01           0.00000000E+00
  -0.18900000E+01           0.00000000E+00
  -0.18800000E+01           0.00000000E+00
  -0.18700000E+01           0.00000000E+00
  -0.18600000E+01           0.00000000E+00
  -0.18500000E+01           0.00000000E+00
  -0.18400000E+01           0.00000000E+00
  -0.18300000E+01           0.00000000E+00
  -0.18200000E+01           0.00000000E+00
  -0.18100000E+01           0.00000000E+00
  -0.18000000E+01           0.00000000E+00
  -0.17900000E+01           0.00000000E+00
  -0.17800000E+01           0.00000000E+00
  -0.17700000E+01           0.00000000E+00
  -0.17600000E+01           0.00000000E+00
  -0.17500000E+01           0.00000000E+00
  -0.17400000E+01           0.00000000E+00
  -0.17300000E+01           0.00000000E+00
  -0.17200000E+01           0.00000000E+00
  -0.17100000E+01           0.00000000E+00
  -0.17000000E+01           0.00000000E+00
  -0.16900000E+01           0.00000000E+00
  -0.16800000E+01           0.00000000E+00
  -0.16700000E+01           0.00000000E+00
  -0.16600000E+01           0.00000000E+00
  -0.16500000E+01           0.00000000E+00
  -0.16400000E+01           0.00000000E+00
  -0.16300000E+01           0.00000000E+00
  -0.16200000E+01           0.00000000E+00
  -0.16100000E+01           0.00000000E+00
  -0.16000000E+01           0.00000000E+00
  -0.15900000E+01           0.00000000E+00
  -0.15800000E+01           0.00000000E+00
  -0.15700000E+01           0.00000000E+00
  -0.15600000E+01           0.00000000E+00
  -0.15500000E+01           0.00000000E+00
  -0.15400000E+01           0.00000000E+00
  -0.15300000E+01           0.00000000E+00
  -0.15200000E+01           0.00000000E+00
  -0.15100000E+01           0.00000000E+00
  -0.15000000E+01           0.00000000E+00
  -0.14900000E+01           0.00000000E+00
  -0.14800000E+01           0.00000000E+00
  -0.14700000E+01           0.00000000E+00
  -0.14600000E+01           0.00000000E+00
  -0.14500000E+01           0.00000000E+00
  -0.14400000E+01           0.00000000E+00
  -0.14300000E+01           0.00000000E+00
  -0.14200000E+01           0.00000000E+00
  -0.14100000E+01           0.00000000E+00
  -0.14000000E+01           0.00000000E+00
  -0.13900000E+01           0.00000000E+00
  -0.13800000E+01           0.00000000E+00
  -0.13700000E+01           0.00000000E+00
  -0.13600000E+01           0.00000000E+00
  -0.13500000E+01           0.00000000E+00
  -0.13400000E+01           0.00000000E+00
  -0.13300000E+01           0.00000000E+00
  -0.13200000E+01           0.00000000E+00
  -0.13100000E+01           0.00000000E+00
  -0.13000000E+01           0.00000000E+00
  -0.12900000E+01           0.00000000E+00
  -0.12800000E+01           0.00000000E+00
  -0.12700000E+01           0.00000000E+00
  -0.12600000E+01           0.00000000E+00
  -0.12500000E+01           0.00000000E+00
  -0.12400000E+01           0.00000000E+00
  -0.12300000E+01           0.00000000E+00
  -0.12200000E+01           0.00000000E+00
  -0.12100000E+01           0.00000000E+00
  -0.12000000E+01           0.00000000E+00
  -0.11900000E+01           0.00000000E+00
  -0.11800000E+01           0.00000000E+00
  -0.11700000E+01           0.00000000E+00
  -0.11600000E+01           0.00000000E+00
  -0.11500000E+01           0.00000000E+00
  -0.11400000E+01           0.00000000E+00
  -0.11300000E+01           0.00000000E+00
  -0.11200000E+01           0.00000000E+00
  -0.11100000E+01           0.00000000E+00
  -0.11000000E+01           0.00000000E+00
  -0.10900000E+01           0.00000000E+00
  -0.10800000E+01           0.00000000E+00
  -0.10700000E+01           0.00000000E+00
  -0.10600000E+01           0.00000000E+00
  -0.10500000E+01           0.00000000E+00
  -0.10400000E+01           0.00000000E+00
  -0.10300000E+01           0.00000000E+00
  -0.10200000E+01           0.00000000E+00
  -0.10100000E+01           0.00000000E+00
  -0.10000000E+01           0.00000000E+00
  -0.99000000E+00           0.00000000E+00
  -0.98000000E+00           0.00000000E+00
  -0.97000000E+00           0.00000000E+00
  -0.96000000E+00           0.00000000E+00
  -0.95000000E+00           0.00000000E+00
  -0.94000000E+00           0.00000000E+00
  -0.93000000E+00           0.00000000E+00
  -0.92000000E+00           0.00000000E+00
  -0.91000000E+00           0.00000000E+00
  -0.90000000E+00           0.00000000E+00
  -0.89000000E+00           0.00000000E+00
  -0.88000000E+00           0.00000000E+00
  -0.87000000E+00           0.00000000E+00
  -0.86000000E+00           0.00000000E+00
  -0.85000000E+00           0.00000000E+00
  -0.84000000E+00           0.00000000E+00
  -0.83000000E+00           0.00000000E+00
  -0.82000000E+00           0.00000000E+00
  -0.81000000E+00           0.00000000E+00
  -0.80000000E+00           0.00000000E+00
  -0.79000000E+00           0.00000000E+00
  -0.78000000E+00           0.00000000E+00
  -0.77000000E+00           0.00000000E+00
  -0.76000000E+00           0.00000000E+00
  -0.75000000E+00           0.00000000E+00
  -0.74000000E+00           0.00000000E+00
  -0.73000000E+00           0.00000000E+00
  -0.72000000E+00           0.00000000E+00
  -0.71000000E+00           0.00000000E+00
  -0.70000000E+00           0.00000000E+00
  -0.69000000E+00           0.00000000E+00
  -0.68000000E+00           0.00000000E+00
  -0.67000000E+00           0.00000000E+00
  -0.66000000E+00           0.00000000E+00
  -0.65000000E+00           0.00000000E+00
  -0.64000000E+00           0.00000000E+00
  -0.63000000E+00           0.00000000E+00
  -0.62000000E+00           0.00000000E+00
  -0.61000000E+00           0.00000000E+00
  -0.60000000E+00           0.00000000E+00
  -0.59000000E+00           0.00000000E+00
  -0.58000000E+00           0.00000000E+00
  -0.57000000E+00           0.00000000E+00
  -0.56000000E+00           0.00000000E+00
  -0.55000000E+00           0.00000000E+00
  -0.54000000E+00           0.00000000E+00
  -0.53000000E+00           0.00000000E+00
  -0.52000000E+00           0.00000000E+00
  -0.51000000E+00           0.00000000E+00
  -0.50000000E+00           0.00000000E+00
  -0.49000000E+00           0.00000000E+00
  -0.48000000E+00           0.00000000E+00
  -0.47000000E+00           0.00000000E+00
  -0.46000000E+00           0.00000000E+00
  -0.45000000E+00           0.00000000E+00
  -0.44000000E+00           0.00000000E+00
  -0.43000000E+00           0.00000000E+00
  -0.42000000E+00           0.00000000E+00
  -0.41000000E+00           0.00000000E+00
  -0.40000000E+00           0.00000000E+00
  -0.39000000E+00           0.00000000E+00
  -0.38000000E+00           0.00000000E+00
  -0.37000000E+00           0.00000000E+00
  -0.36000000E+00           0.00000000E+00
  -0.35000000E+00           0.00000000E+00
  -0.34000000E+00           0.00000000E+00
  -0.33000000E+00           0.00000000E+00
  -0.32000000E+00           0.00000000E+00
  -0.31000000E+00           0.00000000E+00
  -0.30000000E+00           0.00000000E+00
  -0.29000000E+00           0.00000000E+00
  -0.28000000E+00           0.00000000E+00
  -0.27000000E+00           0.00000000E+00
  -0.26000000E+00           0.00000000E+00
  -0.25000000E+00           0.00000000E+00
  -0.24000000E+00           0.00000000E+00
  -0.23000000E+00           0.00000000E+00
  -0.22000000E+00           0.00000000E+00
  -0.21000000E+00           0.00000000E+00
  -0.20000000E+00           0.00000000E+00
  -0.19000000E+00           0.00000000E+00
  -0.18000000E+00           0.00000000E+00
  -0.17000000E+00           0.00000000E+00
  -0.16000000E+00           0.00000000E+00
  -0.15000000E+00           0.00000000E+00
  -0.14000000E+00           0.00000000E+00
  -0.13000000E+00           0.00000000E+00
  -0.12000000E+00           0.00000000E+00
  -0.11000000E+00           0.00000000E+00
  -0.10000000E+00           0.00000000E+00
  -0.90000000E-01           0.00000000E+00
  -0.80000000E-01           0.00000000E+00
  -0.70000000E-01           0.00000000E+00
  -0.60000000E-01           0.00000000E+00
  -0.50000000E-01           0.00000000E+00
  -0.40000000E-01           0.00000000E+00
  -0.30000000E-01           0.00000000E+00
  -0.20000000E-01           0.00000000E+00
  -0.10000000E-01           0.00000000E+00
   0.00000000E+00           0.15274802E-02
   0.10000000E-01           0.12198313E-01
   0.20000000E-01           0.24472421E-01
   0.30000000E-01           0.36559921E-01
   0.40000000E-01           0.48918155E-01
   0.50000000E-01           0.60961012E-01
   0.60000000E-01           0.73395833E-01
   0.70000000E-01           0.85313095E-01
   0.80000000E-01           0.97417361E-01
   0.90000000E-01           0.10940268E+00
   0.10000000E+00           0.12142560E+00
   0.11000000E+00           0.13349514E+00
   0.12000000E+00           0.14540526E+00
   0.13000000E+00           0.15722659E+00
   0.14000000E+00           0.16898413E+00
   0.15000000E+00           0.18115794E+00
   0.16000000E+00           0.19290893E+00
   0.17000000E+00           0.20418571E+00
   0.18000000E+00           0.21592520E+00
   0.19000000E+00           0.22755883E+00
   0.20000000E+00           0.23909673E+00
   0.21000000E+00           0.25055139E+00
   0.22000000E+00           0.26147460E+00
   0.23000000E+00           0.27301597E+00
   0.24000000E+00           0.28443810E+00
   0.25000000E+00           0.29533185E+00
   0.26000000E+00           0.30613155E+00
   0.27000000E+00           0.31717589E+00
   0.28000000E+00           0.32805357E+00
   0.29000000E+00           0.33844048E+00
   0.30000000E+00           0.34924276E+00
   0.31000000E+00           0.35956131E+00
   0.32000000E+00           0.36956835E+00
   0.33000000E+00           0.38006409E+00
   0.34000000E+00           0.39001419E+00
   0.35000000E+00           0.40029960E+00
   0.36000000E+00           0.41045774E+00
   0.37000000E+00           0.42007808E+00
   0.38000000E+00           0.42944425E+00
   0.39000000E+00           0.43874256E+00
   0.40000000E+00           0.44863065E+00
   0.41000000E+00           0.45736310E+00
   0.42000000E+00           0.46655813E+00
   0.43000000E+00           0.47536389E+00
   0.44000000E+00           0.48434901E+00
   0.45000000E+00           0.49259782E+00
   0.46000000E+00           0.50082530E+00
   0.47000000E+00           0.50971280E+00
   0.48000000E+00           0.51779702E+00
   0.49000000E+00           0.52575317E+00
   0.50000000E+00           0.53408978E+00
   0.51000000E+00           0.54164504E+00
   0.52000000E+00           0.54895258E+00
   0.53000000E+00           0.55684107E+00
   0.54000000E+00           0.56359940E+00
   0.55000000E+00           0.57066548E+00
   0.56000000E+00           0.57758294E+00
   0.57000000E+00           0.58408085E+00
   0.58000000E+00           0.59061538E+00
   0.59000000E+00           0.59760069E+00
   0.60000000E+00           0.60379504E+00
   0.61000000E+00           0.61005258E+00
   0.62000000E+00           0.61571022E+00
   0.63000000E+00           0.62097798E+00
   0.64000000E+00           0.62704990E+00
   0.65000000E+00           0.63215982E+00
   0.66000000E+00           0.63727292E+00
   0.67000000E+00           0.64258730E+00
   0.68000000E+00           0.64717133E+00
   0.69000000E+00           0.65153760E+00
   0.70000000E+00           0.65645069E+00
   0.71000000E+00           0.66041478E+00
   0.72000000E+00           0.66492083E+00
   0.73000000E+00           0.66893869E+00
   0.74000000E+00           0.67259653E+00
   0.75000000E+00           0.67644534E+00
   0.76000000E+00           0.67952272E+00
   0.77000000E+00           0.68305526E+00
   0.78000000E+00           0.68585288E+00
   0.79000000E+00           0.68898770E+00
   0.80000000E+00           0.69182976E+00
   0.81000000E+00           0.69454038E+00
   0.82000000E+00           0.69668978E+00
   0.83000000E+00           0.69906151E+00
   0.84000000E+00           0.70078780E+00
   0.85000000E+00           0.70331954E+00
   0.86000000E+00           0.70435536E+00
   0.87000000E+00           0.70599544E+00
   0.88000000E+00           0.70794722E+00
   0.89000000E+00           0.70900833E+00
   0.90000000E+00           0.71013919E+00
   0.91000000E+00           0.71118135E+00
   0.92000000E+00           0.71105446E+00
   0.93000000E+00           0.71227659E+00
   0.94000000E+00           0.71277639E+00
   0.95000000E+00           0.71276151E+00
   0.96000000E+00           0.71283879E+00
   0.97000000E+00           0.71306012E+00
   0.98000000E+00           0.71278621E+00
   0.99000000E+00           0.71227113E+00
   0.10000000E+01           0.71218194E+00
   0.10100000E+01           0.71092113E+00
   0.10200000E+01           0.71076111E+00
   0.10300000E+01           0.70938710E+00
   0.10400000E+01           0.70846835E+00
   0.10500000E+01           0.70678800E+00
   0.10600000E+01           0.70581230E+00
   0.10700000E+01           0.70441339E+00
   0.10800000E+01           0.70277113E+00
   0.10900000E+01           0.70124296E+00
   0.11000000E+01           0.69900437E+00
   0.11100000E+01           0.69681081E+00
   0.11200000E+01           0.69499722E+00
   0.11300000E+01           0.69290476E+00
   0.11400000E+01           0.68962470E+00
   0.11500000E+01           0.68763909E+00
   0.11600000E+01           0.68483810E+00
   0.11700000E+01           0.68211042E+00
   0.11800000E+01           0.67980278E+00
   0.11900000E+01           0.67620863E+00
   0.12000000E+01           0.67309177E+00
   0.12100000E+01           0.67035635E+00
   0.12200000E+01           0.66675506E+00
   0.12300000E+01           0.66330169E+00
   0.12400000E+01           0.66021468E+00
   0.12500000E+01           0.65652212E+00
   0.12600000E+01           0.65257024E+00
   0.12700000E+01           0.64902202E+00
   0.12800000E+01           0.64553730E+00
   0.12900000E+01           0.64136310E+00
   0.13000000E+01           0.63732679E+00
   0.13100000E+01           0.63293929E+00
   0.13200000E+01           0.62863631E+00
   0.13300000E+01           0.62452242E+00
   0.13400000E+01           0.62007698E+00
   0.13500000E+01           0.61589603E+00
   0.13600000E+01           0.61144137E+00
   0.13700000E+01           0.60678423E+00
   0.13800000E+01           0.60246071E+00
   0.13900000E+01           0.59745040E+00
   0.14000000E+01           0.59273512E+00
   0.14100000E+01           0.58810308E+00
   0.14200000E+01           0.58323373E+00
   0.14300000E+01           0.57842063E+00
   0.14400000E+01           0.57316766E+00
   0.14500000E+01           0.56819435E+00
   0.14600000E+01           0.56401250E+00
   0.14700000E+01           0.55849643E+00
   0.14800000E+01           0.55316905E+00
   0.14900000E+01           0.54806190E+00
   0.15000000E+01           0.54297024E+00
   0.15100000E+01           0.53751190E+00
   0.15200000E+01           0.53252004E+00
   0.15300000E+01           0.52722480E+00
   0.15400000E+01           0.52172202E+00
   0.15500000E+01           0.51670536E+00
   0.15600000E+01           0.51096409E+00
   0.15700000E+01           0.50604653E+00
   0.15800000E+01           0.50065288E+00
   0.15900000E+01           0.49496815E+00
   0.16000000E+01           0.48997371E+00
   0.16100000E+01           0.48415079E+00
   0.16200000E+01           0.47876052E+00
   0.16300000E+01           0.47343442E+00
   0.16400000E+01           0.46775079E+00
   0.16500000E+01           0.46270873E+00
   0.16600000E+01           0.45716300E+00
   0.16700000E+01           0.45136240E+00
   0.16800000E+01           0.44592659E+00
   0.16900000E+01           0.44061786E+00
   0.17000000E+01           0.43549157E+00
   0.17100000E+01           0.42962560E+00
   0.17200000E+01           0.42451984E+00
   0.17300000E+01           0.41878393E+00
   0.17400000E+01           0.41312312E+00
   0.17500000E+01           0.40798095E+00
   0.17600000E+01           0.40227708E+00
   0.17700000E+01           0.39736855E+00
   0.17800000E+01           0.39192123E+00
   0.17900000E+01           0.38646935E+00
   0.18000000E+01           0.38110843E+00
   0.18100000E+01           0.37578234E+00
   0.18200000E+01           0.37031488E+00
   0.18300000E+01           0.36515536E+00
   0.18400000E+01           0.36002708E+00
   0.18500000E+01           0.35496726E+00
   0.18600000E+01           0.34964881E+00
   0.18700000E+01           0.34444266E+00
   0.18800000E+01           0.33922371E+00
   0.18900000E+01           0.33406597E+00
   0.19000000E+01           0.32905288E+00
   0.19100000E+01           0.32404683E+00
   0.19200000E+01           0.31898611E+00
   0.19300000E+01           0.31413700E+00
   0.19400000E+01           0.30896419E+00
   0.19500000E+01           0.30420079E+00
   0.19600000E+01           0.29967599E+00
   0.19700000E+01           0.29453214E+00
   0.19800000E+01           0.28991111E+00
   0.19900000E+01           0.28519534E+00
   0.20000000E+01           0.14088581E+00
