 #written on 27Nov2024 at 11:08:34 
 #----------------- MONTECARLO -------------------#
 #        M                      P(M)             #
 #------------------------------------------------#
 #T=     0.5000
  -0.20000000E+01           0.00000000E+00
  -0.19900000E+01           0.00000000E+00
  -0.19800000E+01           0.00000000E+00
  -0.19700000E+01           0.00000000E+00
  -0.19600000E+01           0.00000000E+00
  -0.19500000E+01           0.00000000E+00
  -0.19400000E+01           0.00000000E+00
  -0.19300000E+01           0.00000000E+00
  -0.19200000E+01           0.00000000E+00
  -0.19100000E+01           0.00000000E+00
  -0.19000000E+01           0.00000000E+00
  -0.18900000E+01           0.00000000E+00
  -0.18800000E+01           0.00000000E+00
  -0.18700000E+01           0.00000000E+00
  -0.18600000E+01           0.00000000E+00
  -0.18500000E+01           0.00000000E+00
  -0.18400000E+01           0.00000000E+00
  -0.18300000E+01           0.00000000E+00
  -0.18200000E+01           0.00000000E+00
  -0.18100000E+01           0.00000000E+00
  -0.18000000E+01           0.00000000E+00
  -0.17900000E+01           0.00000000E+00
  -0.17800000E+01           0.00000000E+00
  -0.17700000E+01           0.00000000E+00
  -0.17600000E+01           0.00000000E+00
  -0.17500000E+01           0.00000000E+00
  -0.17400000E+01           0.00000000E+00
  -0.17300000E+01           0.00000000E+00
  -0.17200000E+01           0.00000000E+00
  -0.17100000E+01           0.00000000E+00
  -0.17000000E+01           0.00000000E+00
  -0.16900000E+01           0.00000000E+00
  -0.16800000E+01           0.00000000E+00
  -0.16700000E+01           0.00000000E+00
  -0.16600000E+01           0.00000000E+00
  -0.16500000E+01           0.00000000E+00
  -0.16400000E+01           0.00000000E+00
  -0.16300000E+01           0.00000000E+00
  -0.16200000E+01           0.00000000E+00
  -0.16100000E+01           0.00000000E+00
  -0.16000000E+01           0.00000000E+00
  -0.15900000E+01           0.00000000E+00
  -0.15800000E+01           0.00000000E+00
  -0.15700000E+01           0.00000000E+00
  -0.15600000E+01           0.00000000E+00
  -0.15500000E+01           0.00000000E+00
  -0.15400000E+01           0.00000000E+00
  -0.15300000E+01           0.00000000E+00
  -0.15200000E+01           0.00000000E+00
  -0.15100000E+01           0.00000000E+00
  -0.15000000E+01           0.00000000E+00
  -0.14900000E+01           0.00000000E+00
  -0.14800000E+01           0.00000000E+00
  -0.14700000E+01           0.00000000E+00
  -0.14600000E+01           0.00000000E+00
  -0.14500000E+01           0.00000000E+00
  -0.14400000E+01           0.00000000E+00
  -0.14300000E+01           0.00000000E+00
  -0.14200000E+01           0.00000000E+00
  -0.14100000E+01           0.00000000E+00
  -0.14000000E+01           0.00000000E+00
  -0.13900000E+01           0.00000000E+00
  -0.13800000E+01           0.00000000E+00
  -0.13700000E+01           0.00000000E+00
  -0.13600000E+01           0.00000000E+00
  -0.13500000E+01           0.00000000E+00
  -0.13400000E+01           0.00000000E+00
  -0.13300000E+01           0.00000000E+00
  -0.13200000E+01           0.00000000E+00
  -0.13100000E+01           0.00000000E+00
  -0.13000000E+01           0.00000000E+00
  -0.12900000E+01           0.00000000E+00
  -0.12800000E+01           0.00000000E+00
  -0.12700000E+01           0.00000000E+00
  -0.12600000E+01           0.00000000E+00
  -0.12500000E+01           0.00000000E+00
  -0.12400000E+01           0.00000000E+00
  -0.12300000E+01           0.00000000E+00
  -0.12200000E+01           0.00000000E+00
  -0.12100000E+01           0.00000000E+00
  -0.12000000E+01           0.00000000E+00
  -0.11900000E+01           0.00000000E+00
  -0.11800000E+01           0.00000000E+00
  -0.11700000E+01           0.00000000E+00
  -0.11600000E+01           0.00000000E+00
  -0.11500000E+01           0.00000000E+00
  -0.11400000E+01           0.00000000E+00
  -0.11300000E+01           0.00000000E+00
  -0.11200000E+01           0.00000000E+00
  -0.11100000E+01           0.00000000E+00
  -0.11000000E+01           0.00000000E+00
  -0.10900000E+01           0.00000000E+00
  -0.10800000E+01           0.00000000E+00
  -0.10700000E+01           0.00000000E+00
  -0.10600000E+01           0.00000000E+00
  -0.10500000E+01           0.00000000E+00
  -0.10400000E+01           0.00000000E+00
  -0.10300000E+01           0.00000000E+00
  -0.10200000E+01           0.00000000E+00
  -0.10100000E+01           0.00000000E+00
  -0.10000000E+01           0.00000000E+00
  -0.99000000E+00           0.00000000E+00
  -0.98000000E+00           0.00000000E+00
  -0.97000000E+00           0.00000000E+00
  -0.96000000E+00           0.00000000E+00
  -0.95000000E+00           0.00000000E+00
  -0.94000000E+00           0.00000000E+00
  -0.93000000E+00           0.00000000E+00
  -0.92000000E+00           0.00000000E+00
  -0.91000000E+00           0.00000000E+00
  -0.90000000E+00           0.00000000E+00
  -0.89000000E+00           0.00000000E+00
  -0.88000000E+00           0.00000000E+00
  -0.87000000E+00           0.00000000E+00
  -0.86000000E+00           0.00000000E+00
  -0.85000000E+00           0.00000000E+00
  -0.84000000E+00           0.00000000E+00
  -0.83000000E+00           0.00000000E+00
  -0.82000000E+00           0.00000000E+00
  -0.81000000E+00           0.00000000E+00
  -0.80000000E+00           0.00000000E+00
  -0.79000000E+00           0.00000000E+00
  -0.78000000E+00           0.00000000E+00
  -0.77000000E+00           0.00000000E+00
  -0.76000000E+00           0.00000000E+00
  -0.75000000E+00           0.00000000E+00
  -0.74000000E+00           0.00000000E+00
  -0.73000000E+00           0.00000000E+00
  -0.72000000E+00           0.00000000E+00
  -0.71000000E+00           0.00000000E+00
  -0.70000000E+00           0.00000000E+00
  -0.69000000E+00           0.00000000E+00
  -0.68000000E+00           0.00000000E+00
  -0.67000000E+00           0.00000000E+00
  -0.66000000E+00           0.00000000E+00
  -0.65000000E+00           0.00000000E+00
  -0.64000000E+00           0.00000000E+00
  -0.63000000E+00           0.00000000E+00
  -0.62000000E+00           0.00000000E+00
  -0.61000000E+00           0.00000000E+00
  -0.60000000E+00           0.00000000E+00
  -0.59000000E+00           0.00000000E+00
  -0.58000000E+00           0.00000000E+00
  -0.57000000E+00           0.00000000E+00
  -0.56000000E+00           0.00000000E+00
  -0.55000000E+00           0.00000000E+00
  -0.54000000E+00           0.00000000E+00
  -0.53000000E+00           0.00000000E+00
  -0.52000000E+00           0.00000000E+00
  -0.51000000E+00           0.00000000E+00
  -0.50000000E+00           0.00000000E+00
  -0.49000000E+00           0.00000000E+00
  -0.48000000E+00           0.00000000E+00
  -0.47000000E+00           0.00000000E+00
  -0.46000000E+00           0.00000000E+00
  -0.45000000E+00           0.00000000E+00
  -0.44000000E+00           0.00000000E+00
  -0.43000000E+00           0.00000000E+00
  -0.42000000E+00           0.00000000E+00
  -0.41000000E+00           0.00000000E+00
  -0.40000000E+00           0.00000000E+00
  -0.39000000E+00           0.00000000E+00
  -0.38000000E+00           0.00000000E+00
  -0.37000000E+00           0.00000000E+00
  -0.36000000E+00           0.00000000E+00
  -0.35000000E+00           0.00000000E+00
  -0.34000000E+00           0.00000000E+00
  -0.33000000E+00           0.00000000E+00
  -0.32000000E+00           0.00000000E+00
  -0.31000000E+00           0.00000000E+00
  -0.30000000E+00           0.00000000E+00
  -0.29000000E+00           0.00000000E+00
  -0.28000000E+00           0.00000000E+00
  -0.27000000E+00           0.00000000E+00
  -0.26000000E+00           0.00000000E+00
  -0.25000000E+00           0.00000000E+00
  -0.24000000E+00           0.00000000E+00
  -0.23000000E+00           0.00000000E+00
  -0.22000000E+00           0.00000000E+00
  -0.21000000E+00           0.00000000E+00
  -0.20000000E+00           0.00000000E+00
  -0.19000000E+00           0.00000000E+00
  -0.18000000E+00           0.00000000E+00
  -0.17000000E+00           0.00000000E+00
  -0.16000000E+00           0.00000000E+00
  -0.15000000E+00           0.00000000E+00
  -0.14000000E+00           0.00000000E+00
  -0.13000000E+00           0.00000000E+00
  -0.12000000E+00           0.00000000E+00
  -0.11000000E+00           0.00000000E+00
  -0.10000000E+00           0.00000000E+00
  -0.90000000E-01           0.00000000E+00
  -0.80000000E-01           0.00000000E+00
  -0.70000000E-01           0.00000000E+00
  -0.60000000E-01           0.00000000E+00
  -0.50000000E-01           0.00000000E+00
  -0.40000000E-01           0.00000000E+00
  -0.30000000E-01           0.00000000E+00
  -0.20000000E-01           0.00000000E+00
  -0.10000000E-01           0.00000000E+00
   0.00000000E+00           0.00000000E+00
   0.10000000E-01           0.00000000E+00
   0.20000000E-01           0.00000000E+00
   0.30000000E-01           0.00000000E+00
   0.40000000E-01           0.00000000E+00
   0.50000000E-01           0.00000000E+00
   0.60000000E-01           0.00000000E+00
   0.70000000E-01           0.00000000E+00
   0.80000000E-01           0.00000000E+00
   0.90000000E-01           0.28344671E-07
   0.10000000E+00           0.00000000E+00
   0.11000000E+00           0.00000000E+00
   0.12000000E+00           0.00000000E+00
   0.13000000E+00           0.14172336E-07
   0.14000000E+00           0.00000000E+00
   0.15000000E+00           0.42517007E-07
   0.16000000E+00           0.00000000E+00
   0.17000000E+00           0.00000000E+00
   0.18000000E+00           0.14172336E-07
   0.19000000E+00           0.56689342E-07
   0.20000000E+00           0.14172336E-07
   0.21000000E+00           0.18424036E-06
   0.22000000E+00           0.85034014E-07
   0.23000000E+00           0.00000000E+00
   0.24000000E+00           0.59523810E-06
   0.25000000E+00           0.48185941E-06
   0.26000000E+00           0.35430839E-06
   0.27000000E+00           0.26927438E-06
   0.28000000E+00           0.12188209E-05
   0.29000000E+00           0.17573696E-05
   0.30000000E+00           0.16439909E-05
   0.31000000E+00           0.25793651E-05
   0.32000000E+00           0.33730159E-05
   0.33000000E+00           0.51587302E-05
   0.34000000E+00           0.61224490E-05
   0.35000000E+00           0.10770975E-04
   0.36000000E+00           0.15277778E-04
   0.37000000E+00           0.20606576E-04
   0.38000000E+00           0.26006236E-04
   0.39000000E+00           0.39909297E-04
   0.40000000E+00           0.49518141E-04
   0.41000000E+00           0.62925170E-04
   0.42000000E+00           0.96060091E-04
   0.43000000E+00           0.11507937E-03
   0.44000000E+00           0.15806406E-03
   0.45000000E+00           0.20979308E-03
   0.46000000E+00           0.27753685E-03
   0.47000000E+00           0.34827098E-03
   0.48000000E+00           0.45763889E-03
   0.49000000E+00           0.58014456E-03
   0.50000000E+00           0.77127268E-03
   0.51000000E+00           0.97549603E-03
   0.52000000E+00           0.12610969E-02
   0.53000000E+00           0.15862387E-02
   0.54000000E+00           0.20085317E-02
   0.55000000E+00           0.25237670E-02
   0.56000000E+00           0.31905754E-02
   0.57000000E+00           0.39911423E-02
   0.58000000E+00           0.49450539E-02
   0.59000000E+00           0.61539683E-02
   0.60000000E+00           0.76794501E-02
   0.61000000E+00           0.93695437E-02
   0.62000000E+00           0.11572959E-01
   0.63000000E+00           0.14117928E-01
   0.64000000E+00           0.17175057E-01
   0.65000000E+00           0.20681973E-01
   0.66000000E+00           0.24986352E-01
   0.67000000E+00           0.29929507E-01
   0.68000000E+00           0.35743722E-01
   0.69000000E+00           0.42381108E-01
   0.70000000E+00           0.50237741E-01
   0.71000000E+00           0.59296273E-01
   0.72000000E+00           0.69801205E-01
   0.73000000E+00           0.81330598E-01
   0.74000000E+00           0.94976814E-01
   0.75000000E+00           0.10997616E+00
   0.76000000E+00           0.12732565E+00
   0.77000000E+00           0.14616545E+00
   0.78000000E+00           0.16719751E+00
   0.79000000E+00           0.19069520E+00
   0.80000000E+00           0.21610639E+00
   0.81000000E+00           0.24452071E+00
   0.82000000E+00           0.27555247E+00
   0.83000000E+00           0.30871891E+00
   0.84000000E+00           0.34487501E+00
   0.85000000E+00           0.38279178E+00
   0.86000000E+00           0.42415261E+00
   0.87000000E+00           0.46676747E+00
   0.88000000E+00           0.51257562E+00
   0.89000000E+00           0.56015193E+00
   0.90000000E+00           0.60980302E+00
   0.91000000E+00           0.66160215E+00
   0.92000000E+00           0.71473596E+00
   0.93000000E+00           0.76973982E+00
   0.94000000E+00           0.82306966E+00
   0.95000000E+00           0.87863322E+00
   0.96000000E+00           0.93370829E+00
   0.97000000E+00           0.98923631E+00
   0.98000000E+00           0.10440823E+01
   0.99000000E+00           0.10953924E+01
   0.10000000E+01           0.11477936E+01
   0.10100000E+01           0.11975039E+01
   0.10200000E+01           0.12451971E+01
   0.10300000E+01           0.12901581E+01
   0.10400000E+01           0.13320546E+01
   0.10500000E+01           0.13708883E+01
   0.10600000E+01           0.14076043E+01
   0.10700000E+01           0.14391969E+01
   0.10800000E+01           0.14686112E+01
   0.10900000E+01           0.14934661E+01
   0.11000000E+01           0.15174632E+01
   0.11100000E+01           0.15372135E+01
   0.11200000E+01           0.15535964E+01
   0.11300000E+01           0.15668997E+01
   0.11400000E+01           0.15765244E+01
   0.11500000E+01           0.15859515E+01
   0.11600000E+01           0.15927758E+01
   0.11700000E+01           0.15955753E+01
   0.11800000E+01           0.15977562E+01
   0.11900000E+01           0.15994296E+01
   0.12000000E+01           0.16004627E+01
   0.12100000E+01           0.16008495E+01
   0.12200000E+01           0.16019864E+01
   0.12300000E+01           0.16005194E+01
   0.12400000E+01           0.16010205E+01
   0.12500000E+01           0.16007490E+01
   0.12600000E+01           0.16019559E+01
   0.12700000E+01           0.16013161E+01
   0.12800000E+01           0.16042364E+01
   0.12900000E+01           0.16041383E+01
   0.13000000E+01           0.16065720E+01
   0.13100000E+01           0.16066667E+01
   0.13200000E+01           0.16062454E+01
   0.13300000E+01           0.16075064E+01
   0.13400000E+01           0.16052078E+01
   0.13500000E+01           0.16011950E+01
   0.13600000E+01           0.15961062E+01
   0.13700000E+01           0.15886340E+01
   0.13800000E+01           0.15770602E+01
   0.13900000E+01           0.15648654E+01
   0.14000000E+01           0.15462871E+01
   0.14100000E+01           0.15258330E+01
   0.14200000E+01           0.14989646E+01
   0.14300000E+01           0.14685007E+01
   0.14400000E+01           0.14341599E+01
   0.14500000E+01           0.13947591E+01
   0.14600000E+01           0.13497239E+01
   0.14700000E+01           0.13031754E+01
   0.14800000E+01           0.12492076E+01
   0.14900000E+01           0.11916470E+01
   0.15000000E+01           0.11326065E+01
   0.15100000E+01           0.10698840E+01
   0.15200000E+01           0.10040592E+01
   0.15300000E+01           0.93720308E+00
   0.15400000E+01           0.86957986E+00
   0.15500000E+01           0.79953294E+00
   0.15600000E+01           0.73178625E+00
   0.15700000E+01           0.66413828E+00
   0.15800000E+01           0.59806835E+00
   0.15900000E+01           0.53517375E+00
   0.16000000E+01           0.47488724E+00
   0.16100000E+01           0.41803054E+00
   0.16200000E+01           0.36418179E+00
   0.16300000E+01           0.31463236E+00
   0.16400000E+01           0.26966278E+00
   0.16500000E+01           0.22802190E+00
   0.16600000E+01           0.19112046E+00
   0.16700000E+01           0.15834762E+00
   0.16800000E+01           0.12997302E+00
   0.16900000E+01           0.10529548E+00
   0.17000000E+01           0.84561650E-01
   0.17100000E+01           0.66781222E-01
   0.17200000E+01           0.52163719E-01
   0.17300000E+01           0.40270479E-01
   0.17400000E+01           0.30564739E-01
   0.17500000E+01           0.22699674E-01
   0.17600000E+01           0.16750723E-01
   0.17700000E+01           0.12054889E-01
   0.17800000E+01           0.86089144E-02
   0.17900000E+01           0.59935232E-02
   0.18000000E+01           0.41007086E-02
   0.18100000E+01           0.27399376E-02
   0.18200000E+01           0.17672619E-02
   0.18300000E+01           0.11442885E-02
   0.18400000E+01           0.67889739E-03
   0.18500000E+01           0.43667800E-03
   0.18600000E+01           0.25120465E-03
   0.18700000E+01           0.13534580E-03
   0.18800000E+01           0.71768707E-04
   0.18900000E+01           0.37811791E-04
   0.19000000E+01           0.18211451E-04
   0.19100000E+01           0.10374150E-04
   0.19200000E+01           0.36989796E-05
   0.19300000E+01           0.14597506E-05
   0.19400000E+01           0.66609977E-06
   0.19500000E+01           0.28344671E-06
   0.19600000E+01           0.70861678E-07
   0.19700000E+01           0.14172336E-07
   0.19800000E+01           0.14172336E-07
   0.19900000E+01           0.00000000E+00
   0.20000000E+01           0.00000000E+00
 #T=     1.0000
  -0.20000000E+01           0.00000000E+00
  -0.19900000E+01           0.00000000E+00
  -0.19800000E+01           0.00000000E+00
  -0.19700000E+01           0.00000000E+00
  -0.19600000E+01           0.00000000E+00
  -0.19500000E+01           0.00000000E+00
  -0.19400000E+01           0.00000000E+00
  -0.19300000E+01           0.00000000E+00
  -0.19200000E+01           0.00000000E+00
  -0.19100000E+01           0.00000000E+00
  -0.19000000E+01           0.00000000E+00
  -0.18900000E+01           0.00000000E+00
  -0.18800000E+01           0.00000000E+00
  -0.18700000E+01           0.00000000E+00
  -0.18600000E+01           0.00000000E+00
  -0.18500000E+01           0.00000000E+00
  -0.18400000E+01           0.00000000E+00
  -0.18300000E+01           0.00000000E+00
  -0.18200000E+01           0.00000000E+00
  -0.18100000E+01           0.00000000E+00
  -0.18000000E+01           0.00000000E+00
  -0.17900000E+01           0.00000000E+00
  -0.17800000E+01           0.00000000E+00
  -0.17700000E+01           0.00000000E+00
  -0.17600000E+01           0.00000000E+00
  -0.17500000E+01           0.00000000E+00
  -0.17400000E+01           0.00000000E+00
  -0.17300000E+01           0.00000000E+00
  -0.17200000E+01           0.00000000E+00
  -0.17100000E+01           0.00000000E+00
  -0.17000000E+01           0.00000000E+00
  -0.16900000E+01           0.00000000E+00
  -0.16800000E+01           0.00000000E+00
  -0.16700000E+01           0.00000000E+00
  -0.16600000E+01           0.00000000E+00
  -0.16500000E+01           0.00000000E+00
  -0.16400000E+01           0.00000000E+00
  -0.16300000E+01           0.00000000E+00
  -0.16200000E+01           0.00000000E+00
  -0.16100000E+01           0.00000000E+00
  -0.16000000E+01           0.00000000E+00
  -0.15900000E+01           0.00000000E+00
  -0.15800000E+01           0.00000000E+00
  -0.15700000E+01           0.00000000E+00
  -0.15600000E+01           0.00000000E+00
  -0.15500000E+01           0.00000000E+00
  -0.15400000E+01           0.00000000E+00
  -0.15300000E+01           0.00000000E+00
  -0.15200000E+01           0.00000000E+00
  -0.15100000E+01           0.00000000E+00
  -0.15000000E+01           0.00000000E+00
  -0.14900000E+01           0.00000000E+00
  -0.14800000E+01           0.00000000E+00
  -0.14700000E+01           0.00000000E+00
  -0.14600000E+01           0.00000000E+00
  -0.14500000E+01           0.00000000E+00
  -0.14400000E+01           0.00000000E+00
  -0.14300000E+01           0.00000000E+00
  -0.14200000E+01           0.00000000E+00
  -0.14100000E+01           0.00000000E+00
  -0.14000000E+01           0.00000000E+00
  -0.13900000E+01           0.00000000E+00
  -0.13800000E+01           0.00000000E+00
  -0.13700000E+01           0.00000000E+00
  -0.13600000E+01           0.00000000E+00
  -0.13500000E+01           0.00000000E+00
  -0.13400000E+01           0.00000000E+00
  -0.13300000E+01           0.00000000E+00
  -0.13200000E+01           0.00000000E+00
  -0.13100000E+01           0.00000000E+00
  -0.13000000E+01           0.00000000E+00
  -0.12900000E+01           0.00000000E+00
  -0.12800000E+01           0.00000000E+00
  -0.12700000E+01           0.00000000E+00
  -0.12600000E+01           0.00000000E+00
  -0.12500000E+01           0.00000000E+00
  -0.12400000E+01           0.00000000E+00
  -0.12300000E+01           0.00000000E+00
  -0.12200000E+01           0.00000000E+00
  -0.12100000E+01           0.00000000E+00
  -0.12000000E+01           0.00000000E+00
  -0.11900000E+01           0.00000000E+00
  -0.11800000E+01           0.00000000E+00
  -0.11700000E+01           0.00000000E+00
  -0.11600000E+01           0.00000000E+00
  -0.11500000E+01           0.00000000E+00
  -0.11400000E+01           0.00000000E+00
  -0.11300000E+01           0.00000000E+00
  -0.11200000E+01           0.00000000E+00
  -0.11100000E+01           0.00000000E+00
  -0.11000000E+01           0.00000000E+00
  -0.10900000E+01           0.00000000E+00
  -0.10800000E+01           0.00000000E+00
  -0.10700000E+01           0.00000000E+00
  -0.10600000E+01           0.00000000E+00
  -0.10500000E+01           0.00000000E+00
  -0.10400000E+01           0.00000000E+00
  -0.10300000E+01           0.00000000E+00
  -0.10200000E+01           0.00000000E+00
  -0.10100000E+01           0.00000000E+00
  -0.10000000E+01           0.00000000E+00
  -0.99000000E+00           0.00000000E+00
  -0.98000000E+00           0.00000000E+00
  -0.97000000E+00           0.00000000E+00
  -0.96000000E+00           0.00000000E+00
  -0.95000000E+00           0.00000000E+00
  -0.94000000E+00           0.00000000E+00
  -0.93000000E+00           0.00000000E+00
  -0.92000000E+00           0.00000000E+00
  -0.91000000E+00           0.00000000E+00
  -0.90000000E+00           0.00000000E+00
  -0.89000000E+00           0.00000000E+00
  -0.88000000E+00           0.00000000E+00
  -0.87000000E+00           0.00000000E+00
  -0.86000000E+00           0.00000000E+00
  -0.85000000E+00           0.00000000E+00
  -0.84000000E+00           0.00000000E+00
  -0.83000000E+00           0.00000000E+00
  -0.82000000E+00           0.00000000E+00
  -0.81000000E+00           0.00000000E+00
  -0.80000000E+00           0.00000000E+00
  -0.79000000E+00           0.00000000E+00
  -0.78000000E+00           0.00000000E+00
  -0.77000000E+00           0.00000000E+00
  -0.76000000E+00           0.00000000E+00
  -0.75000000E+00           0.00000000E+00
  -0.74000000E+00           0.00000000E+00
  -0.73000000E+00           0.00000000E+00
  -0.72000000E+00           0.00000000E+00
  -0.71000000E+00           0.00000000E+00
  -0.70000000E+00           0.00000000E+00
  -0.69000000E+00           0.00000000E+00
  -0.68000000E+00           0.00000000E+00
  -0.67000000E+00           0.00000000E+00
  -0.66000000E+00           0.00000000E+00
  -0.65000000E+00           0.00000000E+00
  -0.64000000E+00           0.00000000E+00
  -0.63000000E+00           0.00000000E+00
  -0.62000000E+00           0.00000000E+00
  -0.61000000E+00           0.00000000E+00
  -0.60000000E+00           0.00000000E+00
  -0.59000000E+00           0.00000000E+00
  -0.58000000E+00           0.00000000E+00
  -0.57000000E+00           0.00000000E+00
  -0.56000000E+00           0.00000000E+00
  -0.55000000E+00           0.00000000E+00
  -0.54000000E+00           0.00000000E+00
  -0.53000000E+00           0.00000000E+00
  -0.52000000E+00           0.00000000E+00
  -0.51000000E+00           0.00000000E+00
  -0.50000000E+00           0.00000000E+00
  -0.49000000E+00           0.00000000E+00
  -0.48000000E+00           0.00000000E+00
  -0.47000000E+00           0.00000000E+00
  -0.46000000E+00           0.00000000E+00
  -0.45000000E+00           0.00000000E+00
  -0.44000000E+00           0.00000000E+00
  -0.43000000E+00           0.00000000E+00
  -0.42000000E+00           0.00000000E+00
  -0.41000000E+00           0.00000000E+00
  -0.40000000E+00           0.00000000E+00
  -0.39000000E+00           0.00000000E+00
  -0.38000000E+00           0.00000000E+00
  -0.37000000E+00           0.00000000E+00
  -0.36000000E+00           0.00000000E+00
  -0.35000000E+00           0.00000000E+00
  -0.34000000E+00           0.00000000E+00
  -0.33000000E+00           0.00000000E+00
  -0.32000000E+00           0.00000000E+00
  -0.31000000E+00           0.00000000E+00
  -0.30000000E+00           0.00000000E+00
  -0.29000000E+00           0.00000000E+00
  -0.28000000E+00           0.00000000E+00
  -0.27000000E+00           0.00000000E+00
  -0.26000000E+00           0.00000000E+00
  -0.25000000E+00           0.00000000E+00
  -0.24000000E+00           0.00000000E+00
  -0.23000000E+00           0.00000000E+00
  -0.22000000E+00           0.00000000E+00
  -0.21000000E+00           0.00000000E+00
  -0.20000000E+00           0.00000000E+00
  -0.19000000E+00           0.00000000E+00
  -0.18000000E+00           0.00000000E+00
  -0.17000000E+00           0.00000000E+00
  -0.16000000E+00           0.00000000E+00
  -0.15000000E+00           0.00000000E+00
  -0.14000000E+00           0.00000000E+00
  -0.13000000E+00           0.00000000E+00
  -0.12000000E+00           0.00000000E+00
  -0.11000000E+00           0.00000000E+00
  -0.10000000E+00           0.00000000E+00
  -0.90000000E-01           0.00000000E+00
  -0.80000000E-01           0.00000000E+00
  -0.70000000E-01           0.00000000E+00
  -0.60000000E-01           0.00000000E+00
  -0.50000000E-01           0.00000000E+00
  -0.40000000E-01           0.00000000E+00
  -0.30000000E-01           0.00000000E+00
  -0.20000000E-01           0.00000000E+00
  -0.10000000E-01           0.00000000E+00
   0.00000000E+00           0.32721088E-02
   0.10000000E-01           0.26021088E-01
   0.20000000E-01           0.52130938E-01
   0.30000000E-01           0.77870309E-01
   0.40000000E-01           0.10364104E+00
   0.50000000E-01           0.12910448E+00
   0.60000000E-01           0.15418176E+00
   0.70000000E-01           0.17909049E+00
   0.80000000E-01           0.20372867E+00
   0.90000000E-01           0.22730177E+00
   0.10000000E+00           0.25083268E+00
   0.11000000E+00           0.27378604E+00
   0.12000000E+00           0.29602980E+00
   0.13000000E+00           0.31772809E+00
   0.14000000E+00           0.33887599E+00
   0.15000000E+00           0.35850565E+00
   0.16000000E+00           0.37776355E+00
   0.17000000E+00           0.39612156E+00
   0.18000000E+00           0.41434225E+00
   0.19000000E+00           0.43082201E+00
   0.20000000E+00           0.44638248E+00
   0.21000000E+00           0.46166687E+00
   0.22000000E+00           0.47583682E+00
   0.23000000E+00           0.48799345E+00
   0.24000000E+00           0.49977052E+00
   0.25000000E+00           0.51129993E+00
   0.26000000E+00           0.52144178E+00
   0.27000000E+00           0.53017314E+00
   0.28000000E+00           0.53822912E+00
   0.29000000E+00           0.54518226E+00
   0.30000000E+00           0.55084918E+00
   0.31000000E+00           0.55569250E+00
   0.32000000E+00           0.55938741E+00
   0.33000000E+00           0.56261450E+00
   0.34000000E+00           0.56450224E+00
   0.35000000E+00           0.56576144E+00
   0.36000000E+00           0.56554493E+00
   0.37000000E+00           0.56452211E+00
   0.38000000E+00           0.56411413E+00
   0.39000000E+00           0.56237136E+00
   0.40000000E+00           0.55869418E+00
   0.41000000E+00           0.55526210E+00
   0.42000000E+00           0.55113614E+00
   0.43000000E+00           0.54658946E+00
   0.44000000E+00           0.54106111E+00
   0.45000000E+00           0.53558992E+00
   0.46000000E+00           0.52902548E+00
   0.47000000E+00           0.52261922E+00
   0.48000000E+00           0.51572110E+00
   0.49000000E+00           0.50824049E+00
   0.50000000E+00           0.50051406E+00
   0.51000000E+00           0.49259344E+00
   0.52000000E+00           0.48487766E+00
   0.53000000E+00           0.47653630E+00
   0.54000000E+00           0.46839874E+00
   0.55000000E+00           0.46014498E+00
   0.56000000E+00           0.45143951E+00
   0.57000000E+00           0.44331346E+00
   0.58000000E+00           0.43495249E+00
   0.59000000E+00           0.42659199E+00
   0.60000000E+00           0.41897764E+00
   0.61000000E+00           0.41107792E+00
   0.62000000E+00           0.40275048E+00
   0.63000000E+00           0.39531254E+00
   0.64000000E+00           0.38753506E+00
   0.65000000E+00           0.38059257E+00
   0.66000000E+00           0.37336498E+00
   0.67000000E+00           0.36673819E+00
   0.68000000E+00           0.36041438E+00
   0.69000000E+00           0.35364824E+00
   0.70000000E+00           0.34785931E+00
   0.71000000E+00           0.34256027E+00
   0.72000000E+00           0.33689882E+00
   0.73000000E+00           0.33203236E+00
   0.74000000E+00           0.32730541E+00
   0.75000000E+00           0.32244853E+00
   0.76000000E+00           0.31871474E+00
   0.77000000E+00           0.31540098E+00
   0.78000000E+00           0.31223041E+00
   0.79000000E+00           0.30914289E+00
   0.80000000E+00           0.30688277E+00
   0.81000000E+00           0.30429208E+00
   0.82000000E+00           0.30239474E+00
   0.83000000E+00           0.30120469E+00
   0.84000000E+00           0.30008556E+00
   0.85000000E+00           0.29907166E+00
   0.86000000E+00           0.29854898E+00
   0.87000000E+00           0.29834806E+00
   0.88000000E+00           0.29827589E+00
   0.89000000E+00           0.29951584E+00
   0.90000000E+00           0.30031236E+00
   0.91000000E+00           0.30177004E+00
   0.92000000E+00           0.30312075E+00
   0.93000000E+00           0.30554797E+00
   0.94000000E+00           0.30771815E+00
   0.95000000E+00           0.31026854E+00
   0.96000000E+00           0.31305454E+00
   0.97000000E+00           0.31627873E+00
   0.98000000E+00           0.31993683E+00
   0.99000000E+00           0.32418947E+00
   0.10000000E+01           0.32798509E+00
   0.10100000E+01           0.33244522E+00
   0.10200000E+01           0.33705628E+00
   0.10300000E+01           0.34157181E+00
   0.10400000E+01           0.34651001E+00
   0.10500000E+01           0.35150811E+00
   0.10600000E+01           0.35705211E+00
   0.10700000E+01           0.36225414E+00
   0.10800000E+01           0.36766229E+00
   0.10900000E+01           0.37281455E+00
   0.11000000E+01           0.37826718E+00
   0.11100000E+01           0.38435370E+00
   0.11200000E+01           0.38941132E+00
   0.11300000E+01           0.39429673E+00
   0.11400000E+01           0.40005048E+00
   0.11500000E+01           0.40461702E+00
   0.11600000E+01           0.40988644E+00
   0.11700000E+01           0.41458919E+00
   0.11800000E+01           0.41894963E+00
   0.11900000E+01           0.42270017E+00
   0.12000000E+01           0.42693581E+00
   0.12100000E+01           0.43046436E+00
   0.12200000E+01           0.43275463E+00
   0.12300000E+01           0.43616423E+00
   0.12400000E+01           0.43860136E+00
   0.12500000E+01           0.44034301E+00
   0.12600000E+01           0.44161113E+00
   0.12700000E+01           0.44284310E+00
   0.12800000E+01           0.44332959E+00
   0.12900000E+01           0.44317870E+00
   0.13000000E+01           0.44278709E+00
   0.13100000E+01           0.44224418E+00
   0.13200000E+01           0.44139826E+00
   0.13300000E+01           0.43937995E+00
   0.13400000E+01           0.43714702E+00
   0.13500000E+01           0.43450018E+00
   0.13600000E+01           0.43157489E+00
   0.13700000E+01           0.42785205E+00
   0.13800000E+01           0.42419678E+00
   0.13900000E+01           0.42042160E+00
   0.14000000E+01           0.41588199E+00
   0.14100000E+01           0.41188523E+00
   0.14200000E+01           0.40729226E+00
   0.14300000E+01           0.40242881E+00
   0.14400000E+01           0.39756475E+00
   0.14500000E+01           0.39251036E+00
   0.14600000E+01           0.38728213E+00
   0.14700000E+01           0.38198630E+00
   0.14800000E+01           0.37694009E+00
   0.14900000E+01           0.37251716E+00
   0.15000000E+01           0.36745584E+00
   0.15100000E+01           0.36307075E+00
   0.15200000E+01           0.35878125E+00
   0.15300000E+01           0.35482209E+00
   0.15400000E+01           0.35136798E+00
   0.15500000E+01           0.34851319E+00
   0.15600000E+01           0.34601713E+00
   0.15700000E+01           0.34332093E+00
   0.15800000E+01           0.34169707E+00
   0.15900000E+01           0.34095201E+00
   0.16000000E+01           0.33995488E+00
   0.16100000E+01           0.34019058E+00
   0.16200000E+01           0.34080804E+00
   0.16300000E+01           0.34265181E+00
   0.16400000E+01           0.34530167E+00
   0.16500000E+01           0.34766084E+00
   0.16600000E+01           0.35120938E+00
   0.16700000E+01           0.35676370E+00
   0.16800000E+01           0.36245952E+00
   0.16900000E+01           0.36981236E+00
   0.17000000E+01           0.37760054E+00
   0.17100000E+01           0.38713836E+00
   0.17200000E+01           0.39816713E+00
   0.17300000E+01           0.41095543E+00
   0.17400000E+01           0.42520611E+00
   0.17500000E+01           0.44137710E+00
   0.17600000E+01           0.46001767E+00
   0.17700000E+01           0.48117564E+00
   0.17800000E+01           0.50520414E+00
   0.17900000E+01           0.53189289E+00
   0.18000000E+01           0.56345308E+00
   0.18100000E+01           0.59884579E+00
   0.18200000E+01           0.63794195E+00
   0.18300000E+01           0.68448933E+00
   0.18400000E+01           0.73524973E+00
   0.18500000E+01           0.79414447E+00
   0.18600000E+01           0.86145571E+00
   0.18700000E+01           0.93748613E+00
   0.18800000E+01           0.10238702E+01
   0.18900000E+01           0.11222842E+01
   0.19000000E+01           0.12335508E+01
   0.19100000E+01           0.13593315E+01
   0.19200000E+01           0.15031844E+01
   0.19300000E+01           0.16633674E+01
   0.19400000E+01           0.18433500E+01
   0.19500000E+01           0.20445677E+01
   0.19600000E+01           0.22682705E+01
   0.19700000E+01           0.25155733E+01
   0.19800000E+01           0.27864453E+01
   0.19900000E+01           0.30812959E+01
   0.20000000E+01           0.16586864E+01
 #T=     1.5000
  -0.20000000E+01           0.00000000E+00
  -0.19900000E+01           0.00000000E+00
  -0.19800000E+01           0.00000000E+00
  -0.19700000E+01           0.00000000E+00
  -0.19600000E+01           0.00000000E+00
  -0.19500000E+01           0.00000000E+00
  -0.19400000E+01           0.00000000E+00
  -0.19300000E+01           0.00000000E+00
  -0.19200000E+01           0.00000000E+00
  -0.19100000E+01           0.00000000E+00
  -0.19000000E+01           0.00000000E+00
  -0.18900000E+01           0.00000000E+00
  -0.18800000E+01           0.00000000E+00
  -0.18700000E+01           0.00000000E+00
  -0.18600000E+01           0.00000000E+00
  -0.18500000E+01           0.00000000E+00
  -0.18400000E+01           0.00000000E+00
  -0.18300000E+01           0.00000000E+00
  -0.18200000E+01           0.00000000E+00
  -0.18100000E+01           0.00000000E+00
  -0.18000000E+01           0.00000000E+00
  -0.17900000E+01           0.00000000E+00
  -0.17800000E+01           0.00000000E+00
  -0.17700000E+01           0.00000000E+00
  -0.17600000E+01           0.00000000E+00
  -0.17500000E+01           0.00000000E+00
  -0.17400000E+01           0.00000000E+00
  -0.17300000E+01           0.00000000E+00
  -0.17200000E+01           0.00000000E+00
  -0.17100000E+01           0.00000000E+00
  -0.17000000E+01           0.00000000E+00
  -0.16900000E+01           0.00000000E+00
  -0.16800000E+01           0.00000000E+00
  -0.16700000E+01           0.00000000E+00
  -0.16600000E+01           0.00000000E+00
  -0.16500000E+01           0.00000000E+00
  -0.16400000E+01           0.00000000E+00
  -0.16300000E+01           0.00000000E+00
  -0.16200000E+01           0.00000000E+00
  -0.16100000E+01           0.00000000E+00
  -0.16000000E+01           0.00000000E+00
  -0.15900000E+01           0.00000000E+00
  -0.15800000E+01           0.00000000E+00
  -0.15700000E+01           0.00000000E+00
  -0.15600000E+01           0.00000000E+00
  -0.15500000E+01           0.00000000E+00
  -0.15400000E+01           0.00000000E+00
  -0.15300000E+01           0.00000000E+00
  -0.15200000E+01           0.00000000E+00
  -0.15100000E+01           0.00000000E+00
  -0.15000000E+01           0.00000000E+00
  -0.14900000E+01           0.00000000E+00
  -0.14800000E+01           0.00000000E+00
  -0.14700000E+01           0.00000000E+00
  -0.14600000E+01           0.00000000E+00
  -0.14500000E+01           0.00000000E+00
  -0.14400000E+01           0.00000000E+00
  -0.14300000E+01           0.00000000E+00
  -0.14200000E+01           0.00000000E+00
  -0.14100000E+01           0.00000000E+00
  -0.14000000E+01           0.00000000E+00
  -0.13900000E+01           0.00000000E+00
  -0.13800000E+01           0.00000000E+00
  -0.13700000E+01           0.00000000E+00
  -0.13600000E+01           0.00000000E+00
  -0.13500000E+01           0.00000000E+00
  -0.13400000E+01           0.00000000E+00
  -0.13300000E+01           0.00000000E+00
  -0.13200000E+01           0.00000000E+00
  -0.13100000E+01           0.00000000E+00
  -0.13000000E+01           0.00000000E+00
  -0.12900000E+01           0.00000000E+00
  -0.12800000E+01           0.00000000E+00
  -0.12700000E+01           0.00000000E+00
  -0.12600000E+01           0.00000000E+00
  -0.12500000E+01           0.00000000E+00
  -0.12400000E+01           0.00000000E+00
  -0.12300000E+01           0.00000000E+00
  -0.12200000E+01           0.00000000E+00
  -0.12100000E+01           0.00000000E+00
  -0.12000000E+01           0.00000000E+00
  -0.11900000E+01           0.00000000E+00
  -0.11800000E+01           0.00000000E+00
  -0.11700000E+01           0.00000000E+00
  -0.11600000E+01           0.00000000E+00
  -0.11500000E+01           0.00000000E+00
  -0.11400000E+01           0.00000000E+00
  -0.11300000E+01           0.00000000E+00
  -0.11200000E+01           0.00000000E+00
  -0.11100000E+01           0.00000000E+00
  -0.11000000E+01           0.00000000E+00
  -0.10900000E+01           0.00000000E+00
  -0.10800000E+01           0.00000000E+00
  -0.10700000E+01           0.00000000E+00
  -0.10600000E+01           0.00000000E+00
  -0.10500000E+01           0.00000000E+00
  -0.10400000E+01           0.00000000E+00
  -0.10300000E+01           0.00000000E+00
  -0.10200000E+01           0.00000000E+00
  -0.10100000E+01           0.00000000E+00
  -0.10000000E+01           0.00000000E+00
  -0.99000000E+00           0.00000000E+00
  -0.98000000E+00           0.00000000E+00
  -0.97000000E+00           0.00000000E+00
  -0.96000000E+00           0.00000000E+00
  -0.95000000E+00           0.00000000E+00
  -0.94000000E+00           0.00000000E+00
  -0.93000000E+00           0.00000000E+00
  -0.92000000E+00           0.00000000E+00
  -0.91000000E+00           0.00000000E+00
  -0.90000000E+00           0.00000000E+00
  -0.89000000E+00           0.00000000E+00
  -0.88000000E+00           0.00000000E+00
  -0.87000000E+00           0.00000000E+00
  -0.86000000E+00           0.00000000E+00
  -0.85000000E+00           0.00000000E+00
  -0.84000000E+00           0.00000000E+00
  -0.83000000E+00           0.00000000E+00
  -0.82000000E+00           0.00000000E+00
  -0.81000000E+00           0.00000000E+00
  -0.80000000E+00           0.00000000E+00
  -0.79000000E+00           0.00000000E+00
  -0.78000000E+00           0.00000000E+00
  -0.77000000E+00           0.00000000E+00
  -0.76000000E+00           0.00000000E+00
  -0.75000000E+00           0.00000000E+00
  -0.74000000E+00           0.00000000E+00
  -0.73000000E+00           0.00000000E+00
  -0.72000000E+00           0.00000000E+00
  -0.71000000E+00           0.00000000E+00
  -0.70000000E+00           0.00000000E+00
  -0.69000000E+00           0.00000000E+00
  -0.68000000E+00           0.00000000E+00
  -0.67000000E+00           0.00000000E+00
  -0.66000000E+00           0.00000000E+00
  -0.65000000E+00           0.00000000E+00
  -0.64000000E+00           0.00000000E+00
  -0.63000000E+00           0.00000000E+00
  -0.62000000E+00           0.00000000E+00
  -0.61000000E+00           0.00000000E+00
  -0.60000000E+00           0.00000000E+00
  -0.59000000E+00           0.00000000E+00
  -0.58000000E+00           0.00000000E+00
  -0.57000000E+00           0.00000000E+00
  -0.56000000E+00           0.00000000E+00
  -0.55000000E+00           0.00000000E+00
  -0.54000000E+00           0.00000000E+00
  -0.53000000E+00           0.00000000E+00
  -0.52000000E+00           0.00000000E+00
  -0.51000000E+00           0.00000000E+00
  -0.50000000E+00           0.00000000E+00
  -0.49000000E+00           0.00000000E+00
  -0.48000000E+00           0.00000000E+00
  -0.47000000E+00           0.00000000E+00
  -0.46000000E+00           0.00000000E+00
  -0.45000000E+00           0.00000000E+00
  -0.44000000E+00           0.00000000E+00
  -0.43000000E+00           0.00000000E+00
  -0.42000000E+00           0.00000000E+00
  -0.41000000E+00           0.00000000E+00
  -0.40000000E+00           0.00000000E+00
  -0.39000000E+00           0.00000000E+00
  -0.38000000E+00           0.00000000E+00
  -0.37000000E+00           0.00000000E+00
  -0.36000000E+00           0.00000000E+00
  -0.35000000E+00           0.00000000E+00
  -0.34000000E+00           0.00000000E+00
  -0.33000000E+00           0.00000000E+00
  -0.32000000E+00           0.00000000E+00
  -0.31000000E+00           0.00000000E+00
  -0.30000000E+00           0.00000000E+00
  -0.29000000E+00           0.00000000E+00
  -0.28000000E+00           0.00000000E+00
  -0.27000000E+00           0.00000000E+00
  -0.26000000E+00           0.00000000E+00
  -0.25000000E+00           0.00000000E+00
  -0.24000000E+00           0.00000000E+00
  -0.23000000E+00           0.00000000E+00
  -0.22000000E+00           0.00000000E+00
  -0.21000000E+00           0.00000000E+00
  -0.20000000E+00           0.00000000E+00
  -0.19000000E+00           0.00000000E+00
  -0.18000000E+00           0.00000000E+00
  -0.17000000E+00           0.00000000E+00
  -0.16000000E+00           0.00000000E+00
  -0.15000000E+00           0.00000000E+00
  -0.14000000E+00           0.00000000E+00
  -0.13000000E+00           0.00000000E+00
  -0.12000000E+00           0.00000000E+00
  -0.11000000E+00           0.00000000E+00
  -0.10000000E+00           0.00000000E+00
  -0.90000000E-01           0.00000000E+00
  -0.80000000E-01           0.00000000E+00
  -0.70000000E-01           0.00000000E+00
  -0.60000000E-01           0.00000000E+00
  -0.50000000E-01           0.00000000E+00
  -0.40000000E-01           0.00000000E+00
  -0.30000000E-01           0.00000000E+00
  -0.20000000E-01           0.00000000E+00
  -0.10000000E-01           0.00000000E+00
   0.00000000E+00           0.30328798E-05
   0.10000000E-01           0.26984127E-04
   0.20000000E-01           0.54294218E-04
   0.30000000E-01           0.86238662E-04
   0.40000000E-01           0.11799887E-03
   0.50000000E-01           0.15296202E-03
   0.60000000E-01           0.19516723E-03
   0.70000000E-01           0.24101474E-03
   0.80000000E-01           0.28681973E-03
   0.90000000E-01           0.34760488E-03
   0.10000000E+00           0.41384637E-03
   0.11000000E+00           0.48897392E-03
   0.12000000E+00           0.56991213E-03
   0.13000000E+00           0.66890590E-03
   0.14000000E+00           0.76697846E-03
   0.15000000E+00           0.90905612E-03
   0.16000000E+00           0.10496882E-02
   0.17000000E+00           0.12115930E-02
   0.18000000E+00           0.13950255E-02
   0.19000000E+00           0.16067035E-02
   0.20000000E+00           0.18535714E-02
   0.21000000E+00           0.21250992E-02
   0.22000000E+00           0.24267290E-02
   0.23000000E+00           0.27749008E-02
   0.24000000E+00           0.31462160E-02
   0.25000000E+00           0.36149518E-02
   0.26000000E+00           0.40936508E-02
   0.27000000E+00           0.46653770E-02
   0.28000000E+00           0.52735544E-02
   0.29000000E+00           0.59428005E-02
   0.30000000E+00           0.67063917E-02
   0.31000000E+00           0.76039257E-02
   0.32000000E+00           0.85404337E-02
   0.33000000E+00           0.95629677E-02
   0.34000000E+00           0.10755343E-01
   0.35000000E+00           0.12014172E-01
   0.36000000E+00           0.13419289E-01
   0.37000000E+00           0.15001290E-01
   0.38000000E+00           0.16733433E-01
   0.39000000E+00           0.18618622E-01
   0.40000000E+00           0.20706987E-01
   0.41000000E+00           0.22977608E-01
   0.42000000E+00           0.25426403E-01
   0.43000000E+00           0.28143084E-01
   0.44000000E+00           0.31072463E-01
   0.45000000E+00           0.34239753E-01
   0.46000000E+00           0.37698611E-01
   0.47000000E+00           0.41406137E-01
   0.48000000E+00           0.45495876E-01
   0.49000000E+00           0.50016567E-01
   0.50000000E+00           0.54820054E-01
   0.51000000E+00           0.59946443E-01
   0.52000000E+00           0.65390745E-01
   0.53000000E+00           0.71336791E-01
   0.54000000E+00           0.77743892E-01
   0.55000000E+00           0.84561012E-01
   0.56000000E+00           0.91748030E-01
   0.57000000E+00           0.99674702E-01
   0.58000000E+00           0.10784700E+00
   0.59000000E+00           0.11675731E+00
   0.60000000E+00           0.12595038E+00
   0.61000000E+00           0.13611130E+00
   0.62000000E+00           0.14650303E+00
   0.63000000E+00           0.15781114E+00
   0.64000000E+00           0.16951959E+00
   0.65000000E+00           0.18178724E+00
   0.66000000E+00           0.19509504E+00
   0.67000000E+00           0.20864113E+00
   0.68000000E+00           0.22290346E+00
   0.69000000E+00           0.23772381E+00
   0.70000000E+00           0.25357876E+00
   0.71000000E+00           0.27025449E+00
   0.72000000E+00           0.28714466E+00
   0.73000000E+00           0.30529009E+00
   0.74000000E+00           0.32411555E+00
   0.75000000E+00           0.34260547E+00
   0.76000000E+00           0.36266263E+00
   0.77000000E+00           0.38311532E+00
   0.78000000E+00           0.40415941E+00
   0.79000000E+00           0.42623788E+00
   0.80000000E+00           0.44866499E+00
   0.81000000E+00           0.47104045E+00
   0.82000000E+00           0.49511416E+00
   0.83000000E+00           0.51914984E+00
   0.84000000E+00           0.54333856E+00
   0.85000000E+00           0.56861791E+00
   0.86000000E+00           0.59411370E+00
   0.87000000E+00           0.62002932E+00
   0.88000000E+00           0.64605853E+00
   0.89000000E+00           0.67257476E+00
   0.90000000E+00           0.69949252E+00
   0.91000000E+00           0.72674585E+00
   0.92000000E+00           0.75349498E+00
   0.93000000E+00           0.78061679E+00
   0.94000000E+00           0.80761419E+00
   0.95000000E+00           0.83504863E+00
   0.96000000E+00           0.86212704E+00
   0.97000000E+00           0.88891324E+00
   0.98000000E+00           0.91599493E+00
   0.99000000E+00           0.94308274E+00
   0.10000000E+01           0.96912619E+00
   0.10100000E+01           0.99527497E+00
   0.10200000E+01           0.10207741E+01
   0.10300000E+01           0.10454366E+01
   0.10400000E+01           0.10699759E+01
   0.10500000E+01           0.10935758E+01
   0.10600000E+01           0.11171704E+01
   0.10700000E+01           0.11395834E+01
   0.10800000E+01           0.11610555E+01
   0.10900000E+01           0.11827514E+01
   0.11000000E+01           0.12019317E+01
   0.11100000E+01           0.12214515E+01
   0.11200000E+01           0.12399445E+01
   0.11300000E+01           0.12566527E+01
   0.11400000E+01           0.12734441E+01
   0.11500000E+01           0.12884113E+01
   0.11600000E+01           0.13022511E+01
   0.11700000E+01           0.13155251E+01
   0.11800000E+01           0.13272977E+01
   0.11900000E+01           0.13368311E+01
   0.12000000E+01           0.13458470E+01
   0.12100000E+01           0.13547333E+01
   0.12200000E+01           0.13623515E+01
   0.12300000E+01           0.13676124E+01
   0.12400000E+01           0.13716010E+01
   0.12500000E+01           0.13749061E+01
   0.12600000E+01           0.13758528E+01
   0.12700000E+01           0.13762466E+01
   0.12800000E+01           0.13752947E+01
   0.12900000E+01           0.13726032E+01
   0.13000000E+01           0.13692905E+01
   0.13100000E+01           0.13640188E+01
   0.13200000E+01           0.13580123E+01
   0.13300000E+01           0.13500475E+01
   0.13400000E+01           0.13405166E+01
   0.13500000E+01           0.13292116E+01
   0.13600000E+01           0.13179048E+01
   0.13700000E+01           0.13042395E+01
   0.13800000E+01           0.12892038E+01
   0.13900000E+01           0.12735556E+01
   0.14000000E+01           0.12560693E+01
   0.14100000E+01           0.12374560E+01
   0.14200000E+01           0.12180290E+01
   0.14300000E+01           0.11961545E+01
   0.14400000E+01           0.11738796E+01
   0.14500000E+01           0.11506285E+01
   0.14600000E+01           0.11261508E+01
   0.14700000E+01           0.11000332E+01
   0.14800000E+01           0.10726319E+01
   0.14900000E+01           0.10452203E+01
   0.15000000E+01           0.10166326E+01
   0.15100000E+01           0.98716888E+00
   0.15200000E+01           0.95706147E+00
   0.15300000E+01           0.92588869E+00
   0.15400000E+01           0.89357884E+00
   0.15500000E+01           0.86151525E+00
   0.15600000E+01           0.82886961E+00
   0.15700000E+01           0.79605643E+00
   0.15800000E+01           0.76238686E+00
   0.15900000E+01           0.72810883E+00
   0.16000000E+01           0.69430908E+00
   0.16100000E+01           0.66049205E+00
   0.16200000E+01           0.62680577E+00
   0.16300000E+01           0.59314583E+00
   0.16400000E+01           0.56008376E+00
   0.16500000E+01           0.52732885E+00
   0.16600000E+01           0.49433281E+00
   0.16700000E+01           0.46255181E+00
   0.16800000E+01           0.43159155E+00
   0.16900000E+01           0.40131069E+00
   0.17000000E+01           0.37167102E+00
   0.17100000E+01           0.34288124E+00
   0.17200000E+01           0.31511729E+00
   0.17300000E+01           0.28850469E+00
   0.17400000E+01           0.26275585E+00
   0.17500000E+01           0.23883509E+00
   0.17600000E+01           0.21568057E+00
   0.17700000E+01           0.19378679E+00
   0.17800000E+01           0.17323382E+00
   0.17900000E+01           0.15405020E+00
   0.18000000E+01           0.13617793E+00
   0.18100000E+01           0.11958652E+00
   0.18200000E+01           0.10418931E+00
   0.18300000E+01           0.90260119E-01
   0.18400000E+01           0.77445026E-01
   0.18500000E+01           0.65891978E-01
   0.18600000E+01           0.55655215E-01
   0.18700000E+01           0.46380726E-01
   0.18800000E+01           0.38285346E-01
   0.18900000E+01           0.31190618E-01
   0.19000000E+01           0.25051247E-01
   0.19100000E+01           0.19752523E-01
   0.19200000E+01           0.15315490E-01
   0.19300000E+01           0.11602622E-01
   0.19400000E+01           0.85685091E-02
   0.19500000E+01           0.61092262E-02
   0.19600000E+01           0.41666525E-02
   0.19700000E+01           0.27049745E-02
   0.19800000E+01           0.15997024E-02
   0.19900000E+01           0.83302154E-03
   0.20000000E+01           0.21038832E-03
 #T=     2.0000
  -0.20000000E+01           0.00000000E+00
  -0.19900000E+01           0.00000000E+00
  -0.19800000E+01           0.00000000E+00
  -0.19700000E+01           0.00000000E+00
  -0.19600000E+01           0.00000000E+00
  -0.19500000E+01           0.00000000E+00
  -0.19400000E+01           0.00000000E+00
  -0.19300000E+01           0.00000000E+00
  -0.19200000E+01           0.00000000E+00
  -0.19100000E+01           0.00000000E+00
  -0.19000000E+01           0.00000000E+00
  -0.18900000E+01           0.00000000E+00
  -0.18800000E+01           0.00000000E+00
  -0.18700000E+01           0.00000000E+00
  -0.18600000E+01           0.00000000E+00
  -0.18500000E+01           0.00000000E+00
  -0.18400000E+01           0.00000000E+00
  -0.18300000E+01           0.00000000E+00
  -0.18200000E+01           0.00000000E+00
  -0.18100000E+01           0.00000000E+00
  -0.18000000E+01           0.00000000E+00
  -0.17900000E+01           0.00000000E+00
  -0.17800000E+01           0.00000000E+00
  -0.17700000E+01           0.00000000E+00
  -0.17600000E+01           0.00000000E+00
  -0.17500000E+01           0.00000000E+00
  -0.17400000E+01           0.00000000E+00
  -0.17300000E+01           0.00000000E+00
  -0.17200000E+01           0.00000000E+00
  -0.17100000E+01           0.00000000E+00
  -0.17000000E+01           0.00000000E+00
  -0.16900000E+01           0.00000000E+00
  -0.16800000E+01           0.00000000E+00
  -0.16700000E+01           0.00000000E+00
  -0.16600000E+01           0.00000000E+00
  -0.16500000E+01           0.00000000E+00
  -0.16400000E+01           0.00000000E+00
  -0.16300000E+01           0.00000000E+00
  -0.16200000E+01           0.00000000E+00
  -0.16100000E+01           0.00000000E+00
  -0.16000000E+01           0.00000000E+00
  -0.15900000E+01           0.00000000E+00
  -0.15800000E+01           0.00000000E+00
  -0.15700000E+01           0.00000000E+00
  -0.15600000E+01           0.00000000E+00
  -0.15500000E+01           0.00000000E+00
  -0.15400000E+01           0.00000000E+00
  -0.15300000E+01           0.00000000E+00
  -0.15200000E+01           0.00000000E+00
  -0.15100000E+01           0.00000000E+00
  -0.15000000E+01           0.00000000E+00
  -0.14900000E+01           0.00000000E+00
  -0.14800000E+01           0.00000000E+00
  -0.14700000E+01           0.00000000E+00
  -0.14600000E+01           0.00000000E+00
  -0.14500000E+01           0.00000000E+00
  -0.14400000E+01           0.00000000E+00
  -0.14300000E+01           0.00000000E+00
  -0.14200000E+01           0.00000000E+00
  -0.14100000E+01           0.00000000E+00
  -0.14000000E+01           0.00000000E+00
  -0.13900000E+01           0.00000000E+00
  -0.13800000E+01           0.00000000E+00
  -0.13700000E+01           0.00000000E+00
  -0.13600000E+01           0.00000000E+00
  -0.13500000E+01           0.00000000E+00
  -0.13400000E+01           0.00000000E+00
  -0.13300000E+01           0.00000000E+00
  -0.13200000E+01           0.00000000E+00
  -0.13100000E+01           0.00000000E+00
  -0.13000000E+01           0.00000000E+00
  -0.12900000E+01           0.00000000E+00
  -0.12800000E+01           0.00000000E+00
  -0.12700000E+01           0.00000000E+00
  -0.12600000E+01           0.00000000E+00
  -0.12500000E+01           0.00000000E+00
  -0.12400000E+01           0.00000000E+00
  -0.12300000E+01           0.00000000E+00
  -0.12200000E+01           0.00000000E+00
  -0.12100000E+01           0.00000000E+00
  -0.12000000E+01           0.00000000E+00
  -0.11900000E+01           0.00000000E+00
  -0.11800000E+01           0.00000000E+00
  -0.11700000E+01           0.00000000E+00
  -0.11600000E+01           0.00000000E+00
  -0.11500000E+01           0.00000000E+00
  -0.11400000E+01           0.00000000E+00
  -0.11300000E+01           0.00000000E+00
  -0.11200000E+01           0.00000000E+00
  -0.11100000E+01           0.00000000E+00
  -0.11000000E+01           0.00000000E+00
  -0.10900000E+01           0.00000000E+00
  -0.10800000E+01           0.00000000E+00
  -0.10700000E+01           0.00000000E+00
  -0.10600000E+01           0.00000000E+00
  -0.10500000E+01           0.00000000E+00
  -0.10400000E+01           0.00000000E+00
  -0.10300000E+01           0.00000000E+00
  -0.10200000E+01           0.00000000E+00
  -0.10100000E+01           0.00000000E+00
  -0.10000000E+01           0.00000000E+00
  -0.99000000E+00           0.00000000E+00
  -0.98000000E+00           0.00000000E+00
  -0.97000000E+00           0.00000000E+00
  -0.96000000E+00           0.00000000E+00
  -0.95000000E+00           0.00000000E+00
  -0.94000000E+00           0.00000000E+00
  -0.93000000E+00           0.00000000E+00
  -0.92000000E+00           0.00000000E+00
  -0.91000000E+00           0.00000000E+00
  -0.90000000E+00           0.00000000E+00
  -0.89000000E+00           0.00000000E+00
  -0.88000000E+00           0.00000000E+00
  -0.87000000E+00           0.00000000E+00
  -0.86000000E+00           0.00000000E+00
  -0.85000000E+00           0.00000000E+00
  -0.84000000E+00           0.00000000E+00
  -0.83000000E+00           0.00000000E+00
  -0.82000000E+00           0.00000000E+00
  -0.81000000E+00           0.00000000E+00
  -0.80000000E+00           0.00000000E+00
  -0.79000000E+00           0.00000000E+00
  -0.78000000E+00           0.00000000E+00
  -0.77000000E+00           0.00000000E+00
  -0.76000000E+00           0.00000000E+00
  -0.75000000E+00           0.00000000E+00
  -0.74000000E+00           0.00000000E+00
  -0.73000000E+00           0.00000000E+00
  -0.72000000E+00           0.00000000E+00
  -0.71000000E+00           0.00000000E+00
  -0.70000000E+00           0.00000000E+00
  -0.69000000E+00           0.00000000E+00
  -0.68000000E+00           0.00000000E+00
  -0.67000000E+00           0.00000000E+00
  -0.66000000E+00           0.00000000E+00
  -0.65000000E+00           0.00000000E+00
  -0.64000000E+00           0.00000000E+00
  -0.63000000E+00           0.00000000E+00
  -0.62000000E+00           0.00000000E+00
  -0.61000000E+00           0.00000000E+00
  -0.60000000E+00           0.00000000E+00
  -0.59000000E+00           0.00000000E+00
  -0.58000000E+00           0.00000000E+00
  -0.57000000E+00           0.00000000E+00
  -0.56000000E+00           0.00000000E+00
  -0.55000000E+00           0.00000000E+00
  -0.54000000E+00           0.00000000E+00
  -0.53000000E+00           0.00000000E+00
  -0.52000000E+00           0.00000000E+00
  -0.51000000E+00           0.00000000E+00
  -0.50000000E+00           0.00000000E+00
  -0.49000000E+00           0.00000000E+00
  -0.48000000E+00           0.00000000E+00
  -0.47000000E+00           0.00000000E+00
  -0.46000000E+00           0.00000000E+00
  -0.45000000E+00           0.00000000E+00
  -0.44000000E+00           0.00000000E+00
  -0.43000000E+00           0.00000000E+00
  -0.42000000E+00           0.00000000E+00
  -0.41000000E+00           0.00000000E+00
  -0.40000000E+00           0.00000000E+00
  -0.39000000E+00           0.00000000E+00
  -0.38000000E+00           0.00000000E+00
  -0.37000000E+00           0.00000000E+00
  -0.36000000E+00           0.00000000E+00
  -0.35000000E+00           0.00000000E+00
  -0.34000000E+00           0.00000000E+00
  -0.33000000E+00           0.00000000E+00
  -0.32000000E+00           0.00000000E+00
  -0.31000000E+00           0.00000000E+00
  -0.30000000E+00           0.00000000E+00
  -0.29000000E+00           0.00000000E+00
  -0.28000000E+00           0.00000000E+00
  -0.27000000E+00           0.00000000E+00
  -0.26000000E+00           0.00000000E+00
  -0.25000000E+00           0.00000000E+00
  -0.24000000E+00           0.00000000E+00
  -0.23000000E+00           0.00000000E+00
  -0.22000000E+00           0.00000000E+00
  -0.21000000E+00           0.00000000E+00
  -0.20000000E+00           0.00000000E+00
  -0.19000000E+00           0.00000000E+00
  -0.18000000E+00           0.00000000E+00
  -0.17000000E+00           0.00000000E+00
  -0.16000000E+00           0.00000000E+00
  -0.15000000E+00           0.00000000E+00
  -0.14000000E+00           0.00000000E+00
  -0.13000000E+00           0.00000000E+00
  -0.12000000E+00           0.00000000E+00
  -0.11000000E+00           0.00000000E+00
  -0.10000000E+00           0.00000000E+00
  -0.90000000E-01           0.00000000E+00
  -0.80000000E-01           0.00000000E+00
  -0.70000000E-01           0.00000000E+00
  -0.60000000E-01           0.00000000E+00
  -0.50000000E-01           0.00000000E+00
  -0.40000000E-01           0.00000000E+00
  -0.30000000E-01           0.00000000E+00
  -0.20000000E-01           0.00000000E+00
  -0.10000000E-01           0.00000000E+00
   0.00000000E+00           0.23520833E-02
   0.10000000E-01           0.18776417E-01
   0.20000000E-01           0.37327707E-01
   0.30000000E-01           0.56002764E-01
   0.40000000E-01           0.74531477E-01
   0.50000000E-01           0.93256052E-01
   0.60000000E-01           0.11158916E+00
   0.70000000E-01           0.12955128E+00
   0.80000000E-01           0.14723115E+00
   0.90000000E-01           0.16514164E+00
   0.10000000E+00           0.18256185E+00
   0.11000000E+00           0.19981565E+00
   0.12000000E+00           0.21661923E+00
   0.13000000E+00           0.23304609E+00
   0.14000000E+00           0.24949833E+00
   0.15000000E+00           0.26482551E+00
   0.16000000E+00           0.28033435E+00
   0.17000000E+00           0.29537388E+00
   0.18000000E+00           0.31036838E+00
   0.19000000E+00           0.32438590E+00
   0.20000000E+00           0.33767832E+00
   0.21000000E+00           0.35109141E+00
   0.22000000E+00           0.36378913E+00
   0.23000000E+00           0.37592764E+00
   0.24000000E+00           0.38783828E+00
   0.25000000E+00           0.39845197E+00
   0.26000000E+00           0.40940818E+00
   0.27000000E+00           0.41924059E+00
   0.28000000E+00           0.42903350E+00
   0.29000000E+00           0.43789853E+00
   0.30000000E+00           0.44626164E+00
   0.31000000E+00           0.45418576E+00
   0.32000000E+00           0.46162664E+00
   0.33000000E+00           0.46814821E+00
   0.34000000E+00           0.47462015E+00
   0.35000000E+00           0.48002188E+00
   0.36000000E+00           0.48506429E+00
   0.37000000E+00           0.48983243E+00
   0.38000000E+00           0.49353941E+00
   0.39000000E+00           0.49735193E+00
   0.40000000E+00           0.50058767E+00
   0.41000000E+00           0.50325444E+00
   0.42000000E+00           0.50542385E+00
   0.43000000E+00           0.50688844E+00
   0.44000000E+00           0.50824800E+00
   0.45000000E+00           0.50873165E+00
   0.46000000E+00           0.50928887E+00
   0.47000000E+00           0.50940605E+00
   0.48000000E+00           0.50862908E+00
   0.49000000E+00           0.50770391E+00
   0.50000000E+00           0.50695787E+00
   0.51000000E+00           0.50537139E+00
   0.52000000E+00           0.50347423E+00
   0.53000000E+00           0.50162241E+00
   0.54000000E+00           0.49896827E+00
   0.55000000E+00           0.49634826E+00
   0.56000000E+00           0.49336784E+00
   0.57000000E+00           0.49068603E+00
   0.58000000E+00           0.48745995E+00
   0.59000000E+00           0.48386668E+00
   0.60000000E+00           0.48060663E+00
   0.61000000E+00           0.47685823E+00
   0.62000000E+00           0.47319050E+00
   0.63000000E+00           0.46918907E+00
   0.64000000E+00           0.46495505E+00
   0.65000000E+00           0.46123798E+00
   0.66000000E+00           0.45700755E+00
   0.67000000E+00           0.45273848E+00
   0.68000000E+00           0.44902151E+00
   0.69000000E+00           0.44461135E+00
   0.70000000E+00           0.44072456E+00
   0.71000000E+00           0.43677209E+00
   0.72000000E+00           0.43289347E+00
   0.73000000E+00           0.42887222E+00
   0.74000000E+00           0.42489300E+00
   0.75000000E+00           0.42128116E+00
   0.76000000E+00           0.41768508E+00
   0.77000000E+00           0.41410573E+00
   0.78000000E+00           0.41059355E+00
   0.79000000E+00           0.40730975E+00
   0.80000000E+00           0.40410207E+00
   0.81000000E+00           0.40140472E+00
   0.82000000E+00           0.39873345E+00
   0.83000000E+00           0.39586983E+00
   0.84000000E+00           0.39344247E+00
   0.85000000E+00           0.39106913E+00
   0.86000000E+00           0.38894045E+00
   0.87000000E+00           0.38679986E+00
   0.88000000E+00           0.38502647E+00
   0.89000000E+00           0.38328255E+00
   0.90000000E+00           0.38198053E+00
   0.91000000E+00           0.38051069E+00
   0.92000000E+00           0.37964984E+00
   0.93000000E+00           0.37839082E+00
   0.94000000E+00           0.37768384E+00
   0.95000000E+00           0.37687690E+00
   0.96000000E+00           0.37645519E+00
   0.97000000E+00           0.37600227E+00
   0.98000000E+00           0.37580564E+00
   0.99000000E+00           0.37580615E+00
   0.10000000E+01           0.37567085E+00
   0.10100000E+01           0.37614216E+00
   0.10200000E+01           0.37637354E+00
   0.10300000E+01           0.37689925E+00
   0.10400000E+01           0.37759504E+00
   0.10500000E+01           0.37767904E+00
   0.10600000E+01           0.37853532E+00
   0.10700000E+01           0.37926862E+00
   0.10800000E+01           0.38027132E+00
   0.10900000E+01           0.38116933E+00
   0.11000000E+01           0.38220891E+00
   0.11100000E+01           0.38311433E+00
   0.11200000E+01           0.38443608E+00
   0.11300000E+01           0.38514950E+00
   0.11400000E+01           0.38609459E+00
   0.11500000E+01           0.38746986E+00
   0.11600000E+01           0.38825655E+00
   0.11700000E+01           0.38939384E+00
   0.11800000E+01           0.39042011E+00
   0.11900000E+01           0.39131709E+00
   0.12000000E+01           0.39239368E+00
   0.12100000E+01           0.39331776E+00
   0.12200000E+01           0.39405296E+00
   0.12300000E+01           0.39497346E+00
   0.12400000E+01           0.39563892E+00
   0.12500000E+01           0.39623724E+00
   0.12600000E+01           0.39675848E+00
   0.12700000E+01           0.39748183E+00
   0.12800000E+01           0.39802309E+00
   0.12900000E+01           0.39847808E+00
   0.13000000E+01           0.39865052E+00
   0.13100000E+01           0.39873237E+00
   0.13200000E+01           0.39891570E+00
   0.13300000E+01           0.39910163E+00
   0.13400000E+01           0.39903173E+00
   0.13500000E+01           0.39867051E+00
   0.13600000E+01           0.39863778E+00
   0.13700000E+01           0.39866139E+00
   0.13800000E+01           0.39873431E+00
   0.13900000E+01           0.39831592E+00
   0.14000000E+01           0.39807572E+00
   0.14100000E+01           0.39781593E+00
   0.14200000E+01           0.39776090E+00
   0.14300000E+01           0.39712405E+00
   0.14400000E+01           0.39679116E+00
   0.14500000E+01           0.39672406E+00
   0.14600000E+01           0.39651841E+00
   0.14700000E+01           0.39638462E+00
   0.14800000E+01           0.39642946E+00
   0.14900000E+01           0.39684161E+00
   0.15000000E+01           0.39680377E+00
   0.15100000E+01           0.39747819E+00
   0.15200000E+01           0.39815887E+00
   0.15300000E+01           0.39944829E+00
   0.15400000E+01           0.40083987E+00
   0.15500000E+01           0.40235629E+00
   0.15600000E+01           0.40427205E+00
   0.15700000E+01           0.40658206E+00
   0.15800000E+01           0.40915361E+00
   0.15900000E+01           0.41267540E+00
   0.16000000E+01           0.41668652E+00
   0.16100000E+01           0.42090510E+00
   0.16200000E+01           0.42588043E+00
   0.16300000E+01           0.43188342E+00
   0.16400000E+01           0.43856630E+00
   0.16500000E+01           0.44632462E+00
   0.16600000E+01           0.45428844E+00
   0.16700000E+01           0.46346341E+00
   0.16800000E+01           0.47425482E+00
   0.16900000E+01           0.48585723E+00
   0.17000000E+01           0.49895913E+00
   0.17100000E+01           0.51274700E+00
   0.17200000E+01           0.52891446E+00
   0.17300000E+01           0.54612127E+00
   0.17400000E+01           0.56563499E+00
   0.17500000E+01           0.58667817E+00
   0.17600000E+01           0.60958172E+00
   0.17700000E+01           0.63453890E+00
   0.17800000E+01           0.66250863E+00
   0.17900000E+01           0.69203550E+00
   0.18000000E+01           0.72514575E+00
   0.18100000E+01           0.76117911E+00
   0.18200000E+01           0.80003271E+00
   0.18300000E+01           0.84266757E+00
   0.18400000E+01           0.88819494E+00
   0.18500000E+01           0.93782805E+00
   0.18600000E+01           0.99161376E+00
   0.18700000E+01           0.10503451E+01
   0.18800000E+01           0.11135576E+01
   0.18900000E+01           0.11817834E+01
   0.19000000E+01           0.12559893E+01
   0.19100000E+01           0.13349571E+01
   0.19200000E+01           0.14216592E+01
   0.19300000E+01           0.15140348E+01
   0.19400000E+01           0.16138108E+01
   0.19500000E+01           0.17204554E+01
   0.19600000E+01           0.18364615E+01
   0.19700000E+01           0.19594386E+01
   0.19800000E+01           0.20928720E+01
   0.19900000E+01           0.22349835E+01
   0.20000000E+01           0.11743895E+01
 #T=     2.5000
  -0.20000000E+01           0.00000000E+00
  -0.19900000E+01           0.00000000E+00
  -0.19800000E+01           0.00000000E+00
  -0.19700000E+01           0.00000000E+00
  -0.19600000E+01           0.00000000E+00
  -0.19500000E+01           0.00000000E+00
  -0.19400000E+01           0.00000000E+00
  -0.19300000E+01           0.00000000E+00
  -0.19200000E+01           0.00000000E+00
  -0.19100000E+01           0.00000000E+00
  -0.19000000E+01           0.00000000E+00
  -0.18900000E+01           0.00000000E+00
  -0.18800000E+01           0.00000000E+00
  -0.18700000E+01           0.00000000E+00
  -0.18600000E+01           0.00000000E+00
  -0.18500000E+01           0.00000000E+00
  -0.18400000E+01           0.00000000E+00
  -0.18300000E+01           0.00000000E+00
  -0.18200000E+01           0.00000000E+00
  -0.18100000E+01           0.00000000E+00
  -0.18000000E+01           0.00000000E+00
  -0.17900000E+01           0.00000000E+00
  -0.17800000E+01           0.00000000E+00
  -0.17700000E+01           0.00000000E+00
  -0.17600000E+01           0.00000000E+00
  -0.17500000E+01           0.00000000E+00
  -0.17400000E+01           0.00000000E+00
  -0.17300000E+01           0.00000000E+00
  -0.17200000E+01           0.00000000E+00
  -0.17100000E+01           0.00000000E+00
  -0.17000000E+01           0.00000000E+00
  -0.16900000E+01           0.00000000E+00
  -0.16800000E+01           0.00000000E+00
  -0.16700000E+01           0.00000000E+00
  -0.16600000E+01           0.00000000E+00
  -0.16500000E+01           0.00000000E+00
  -0.16400000E+01           0.00000000E+00
  -0.16300000E+01           0.00000000E+00
  -0.16200000E+01           0.00000000E+00
  -0.16100000E+01           0.00000000E+00
  -0.16000000E+01           0.00000000E+00
  -0.15900000E+01           0.00000000E+00
  -0.15800000E+01           0.00000000E+00
  -0.15700000E+01           0.00000000E+00
  -0.15600000E+01           0.00000000E+00
  -0.15500000E+01           0.00000000E+00
  -0.15400000E+01           0.00000000E+00
  -0.15300000E+01           0.00000000E+00
  -0.15200000E+01           0.00000000E+00
  -0.15100000E+01           0.00000000E+00
  -0.15000000E+01           0.00000000E+00
  -0.14900000E+01           0.00000000E+00
  -0.14800000E+01           0.00000000E+00
  -0.14700000E+01           0.00000000E+00
  -0.14600000E+01           0.00000000E+00
  -0.14500000E+01           0.00000000E+00
  -0.14400000E+01           0.00000000E+00
  -0.14300000E+01           0.00000000E+00
  -0.14200000E+01           0.00000000E+00
  -0.14100000E+01           0.00000000E+00
  -0.14000000E+01           0.00000000E+00
  -0.13900000E+01           0.00000000E+00
  -0.13800000E+01           0.00000000E+00
  -0.13700000E+01           0.00000000E+00
  -0.13600000E+01           0.00000000E+00
  -0.13500000E+01           0.00000000E+00
  -0.13400000E+01           0.00000000E+00
  -0.13300000E+01           0.00000000E+00
  -0.13200000E+01           0.00000000E+00
  -0.13100000E+01           0.00000000E+00
  -0.13000000E+01           0.00000000E+00
  -0.12900000E+01           0.00000000E+00
  -0.12800000E+01           0.00000000E+00
  -0.12700000E+01           0.00000000E+00
  -0.12600000E+01           0.00000000E+00
  -0.12500000E+01           0.00000000E+00
  -0.12400000E+01           0.00000000E+00
  -0.12300000E+01           0.00000000E+00
  -0.12200000E+01           0.00000000E+00
  -0.12100000E+01           0.00000000E+00
  -0.12000000E+01           0.00000000E+00
  -0.11900000E+01           0.00000000E+00
  -0.11800000E+01           0.00000000E+00
  -0.11700000E+01           0.00000000E+00
  -0.11600000E+01           0.00000000E+00
  -0.11500000E+01           0.00000000E+00
  -0.11400000E+01           0.00000000E+00
  -0.11300000E+01           0.00000000E+00
  -0.11200000E+01           0.00000000E+00
  -0.11100000E+01           0.00000000E+00
  -0.11000000E+01           0.00000000E+00
  -0.10900000E+01           0.00000000E+00
  -0.10800000E+01           0.00000000E+00
  -0.10700000E+01           0.00000000E+00
  -0.10600000E+01           0.00000000E+00
  -0.10500000E+01           0.00000000E+00
  -0.10400000E+01           0.00000000E+00
  -0.10300000E+01           0.00000000E+00
  -0.10200000E+01           0.00000000E+00
  -0.10100000E+01           0.00000000E+00
  -0.10000000E+01           0.00000000E+00
  -0.99000000E+00           0.00000000E+00
  -0.98000000E+00           0.00000000E+00
  -0.97000000E+00           0.00000000E+00
  -0.96000000E+00           0.00000000E+00
  -0.95000000E+00           0.00000000E+00
  -0.94000000E+00           0.00000000E+00
  -0.93000000E+00           0.00000000E+00
  -0.92000000E+00           0.00000000E+00
  -0.91000000E+00           0.00000000E+00
  -0.90000000E+00           0.00000000E+00
  -0.89000000E+00           0.00000000E+00
  -0.88000000E+00           0.00000000E+00
  -0.87000000E+00           0.00000000E+00
  -0.86000000E+00           0.00000000E+00
  -0.85000000E+00           0.00000000E+00
  -0.84000000E+00           0.00000000E+00
  -0.83000000E+00           0.00000000E+00
  -0.82000000E+00           0.00000000E+00
  -0.81000000E+00           0.00000000E+00
  -0.80000000E+00           0.00000000E+00
  -0.79000000E+00           0.00000000E+00
  -0.78000000E+00           0.00000000E+00
  -0.77000000E+00           0.00000000E+00
  -0.76000000E+00           0.00000000E+00
  -0.75000000E+00           0.00000000E+00
  -0.74000000E+00           0.00000000E+00
  -0.73000000E+00           0.00000000E+00
  -0.72000000E+00           0.00000000E+00
  -0.71000000E+00           0.00000000E+00
  -0.70000000E+00           0.00000000E+00
  -0.69000000E+00           0.00000000E+00
  -0.68000000E+00           0.00000000E+00
  -0.67000000E+00           0.00000000E+00
  -0.66000000E+00           0.00000000E+00
  -0.65000000E+00           0.00000000E+00
  -0.64000000E+00           0.00000000E+00
  -0.63000000E+00           0.00000000E+00
  -0.62000000E+00           0.00000000E+00
  -0.61000000E+00           0.00000000E+00
  -0.60000000E+00           0.00000000E+00
  -0.59000000E+00           0.00000000E+00
  -0.58000000E+00           0.00000000E+00
  -0.57000000E+00           0.00000000E+00
  -0.56000000E+00           0.00000000E+00
  -0.55000000E+00           0.00000000E+00
  -0.54000000E+00           0.00000000E+00
  -0.53000000E+00           0.00000000E+00
  -0.52000000E+00           0.00000000E+00
  -0.51000000E+00           0.00000000E+00
  -0.50000000E+00           0.00000000E+00
  -0.49000000E+00           0.00000000E+00
  -0.48000000E+00           0.00000000E+00
  -0.47000000E+00           0.00000000E+00
  -0.46000000E+00           0.00000000E+00
  -0.45000000E+00           0.00000000E+00
  -0.44000000E+00           0.00000000E+00
  -0.43000000E+00           0.00000000E+00
  -0.42000000E+00           0.00000000E+00
  -0.41000000E+00           0.00000000E+00
  -0.40000000E+00           0.00000000E+00
  -0.39000000E+00           0.00000000E+00
  -0.38000000E+00           0.00000000E+00
  -0.37000000E+00           0.00000000E+00
  -0.36000000E+00           0.00000000E+00
  -0.35000000E+00           0.00000000E+00
  -0.34000000E+00           0.00000000E+00
  -0.33000000E+00           0.00000000E+00
  -0.32000000E+00           0.00000000E+00
  -0.31000000E+00           0.00000000E+00
  -0.30000000E+00           0.00000000E+00
  -0.29000000E+00           0.00000000E+00
  -0.28000000E+00           0.00000000E+00
  -0.27000000E+00           0.00000000E+00
  -0.26000000E+00           0.00000000E+00
  -0.25000000E+00           0.00000000E+00
  -0.24000000E+00           0.00000000E+00
  -0.23000000E+00           0.00000000E+00
  -0.22000000E+00           0.00000000E+00
  -0.21000000E+00           0.00000000E+00
  -0.20000000E+00           0.00000000E+00
  -0.19000000E+00           0.00000000E+00
  -0.18000000E+00           0.00000000E+00
  -0.17000000E+00           0.00000000E+00
  -0.16000000E+00           0.00000000E+00
  -0.15000000E+00           0.00000000E+00
  -0.14000000E+00           0.00000000E+00
  -0.13000000E+00           0.00000000E+00
  -0.12000000E+00           0.00000000E+00
  -0.11000000E+00           0.00000000E+00
  -0.10000000E+00           0.00000000E+00
  -0.90000000E-01           0.00000000E+00
  -0.80000000E-01           0.00000000E+00
  -0.70000000E-01           0.00000000E+00
  -0.60000000E-01           0.00000000E+00
  -0.50000000E-01           0.00000000E+00
  -0.40000000E-01           0.00000000E+00
  -0.30000000E-01           0.00000000E+00
  -0.20000000E-01           0.00000000E+00
  -0.10000000E-01           0.00000000E+00
   0.00000000E+00           0.66000567E-04
   0.10000000E-01           0.51697846E-03
   0.20000000E-01           0.10321995E-02
   0.30000000E-01           0.15436366E-02
   0.40000000E-01           0.20945862E-02
   0.50000000E-01           0.26577381E-02
   0.60000000E-01           0.32264456E-02
   0.70000000E-01           0.38414824E-02
   0.80000000E-01           0.44667092E-02
   0.90000000E-01           0.51251417E-02
   0.10000000E+00           0.58338577E-02
   0.11000000E+00           0.65635346E-02
   0.12000000E+00           0.73666808E-02
   0.13000000E+00           0.82048895E-02
   0.14000000E+00           0.90702948E-02
   0.15000000E+00           0.10078812E-01
   0.16000000E+00           0.11087925E-01
   0.17000000E+00           0.12229819E-01
   0.18000000E+00           0.13392985E-01
   0.19000000E+00           0.14665660E-01
   0.20000000E+00           0.15999150E-01
   0.21000000E+00           0.17423370E-01
   0.22000000E+00           0.18978586E-01
   0.23000000E+00           0.20666865E-01
   0.24000000E+00           0.22460402E-01
   0.25000000E+00           0.24379124E-01
   0.26000000E+00           0.26312939E-01
   0.27000000E+00           0.28470323E-01
   0.28000000E+00           0.30790094E-01
   0.29000000E+00           0.33320578E-01
   0.30000000E+00           0.35918991E-01
   0.31000000E+00           0.38609751E-01
   0.32000000E+00           0.41557880E-01
   0.33000000E+00           0.44766383E-01
   0.34000000E+00           0.48087642E-01
   0.35000000E+00           0.51542942E-01
   0.36000000E+00           0.55236352E-01
   0.37000000E+00           0.59145054E-01
   0.38000000E+00           0.63360941E-01
   0.39000000E+00           0.67805556E-01
   0.40000000E+00           0.72303926E-01
   0.41000000E+00           0.77108702E-01
   0.42000000E+00           0.82339583E-01
   0.43000000E+00           0.87644260E-01
   0.44000000E+00           0.93323668E-01
   0.45000000E+00           0.99214697E-01
   0.46000000E+00           0.10546665E+00
   0.47000000E+00           0.11196074E+00
   0.48000000E+00           0.11868886E+00
   0.49000000E+00           0.12586057E+00
[...]
   0.13800000E+01           0.68402487E+00
   0.13900000E+01           0.68511424E+00
   0.14000000E+01           0.68591664E+00
   0.14100000E+01           0.68692683E+00
   0.14200000E+01           0.68748452E+00
   0.14300000E+01           0.68851882E+00
   0.14400000E+01           0.68919585E+00
   0.14500000E+01           0.68980880E+00
   0.14600000E+01           0.69045485E+00
   0.14700000E+01           0.69099928E+00
   0.14800000E+01           0.69137319E+00
   0.14900000E+01           0.69191631E+00
   0.15000000E+01           0.69212259E+00
   0.15100000E+01           0.69241379E+00
   0.15200000E+01           0.69281986E+00
   0.15300000E+01           0.69280160E+00
   0.15400000E+01           0.69282853E+00
   0.15500000E+01           0.69290000E+00
   0.15600000E+01           0.69285925E+00
   0.15700000E+01           0.69288546E+00
   0.15800000E+01           0.69286188E+00
   0.15900000E+01           0.69246756E+00
   0.16000000E+01           0.69250183E+00
   0.16100000E+01           0.69203036E+00
   0.16200000E+01           0.69147496E+00
   0.16300000E+01           0.69136675E+00
   0.16400000E+01           0.69096531E+00
   0.16500000E+01           0.69036858E+00
   0.16600000E+01           0.68959717E+00
   0.16700000E+01           0.68920540E+00
   0.16800000E+01           0.68835374E+00
   0.16900000E+01           0.68756647E+00
   0.17000000E+01           0.68703533E+00
   0.17100000E+01           0.68606600E+00
   0.17200000E+01           0.68513166E+00
   0.17300000E+01           0.68423596E+00
   0.17400000E+01           0.68320394E+00
   0.17500000E+01           0.68236814E+00
   0.17600000E+01           0.68109515E+00
   0.17700000E+01           0.67996395E+00
   0.17800000E+01           0.67901954E+00
   0.17900000E+01           0.67763933E+00
   0.18000000E+01           0.67625261E+00
   0.18100000E+01           0.67507049E+00
   0.18200000E+01           0.67352609E+00
   0.18300000E+01           0.67242569E+00
   0.18400000E+01           0.67095609E+00
   0.18500000E+01           0.66927039E+00
   0.18600000E+01           0.66797616E+00
   0.18700000E+01           0.66625442E+00
   0.18800000E+01           0.66469777E+00
   0.18900000E+01           0.66287113E+00
   0.19000000E+01           0.66132598E+00
   0.19100000E+01           0.65926729E+00
   0.19200000E+01           0.65760608E+00
   0.19300000E+01           0.65596387E+00
   0.19400000E+01           0.65389786E+00
   0.19500000E+01           0.65214070E+00
   0.19600000E+01           0.65003332E+00
   0.19700000E+01           0.64813006E+00
   0.19800000E+01           0.64619035E+00
   0.19900000E+01           0.64407422E+00
   0.20000000E+01           0.32107921E+00
 #T=    20.0000
  -0.20000000E+01           0.00000000E+00
  -0.19900000E+01           0.00000000E+00
  -0.19800000E+01           0.00000000E+00
  -0.19700000E+01           0.00000000E+00
  -0.19600000E+01           0.00000000E+00
  -0.19500000E+01           0.00000000E+00
  -0.19400000E+01           0.00000000E+00
  -0.19300000E+01           0.00000000E+00
  -0.19200000E+01           0.00000000E+00
  -0.19100000E+01           0.00000000E+00
  -0.19000000E+01           0.00000000E+00
  -0.18900000E+01           0.00000000E+00
  -0.18800000E+01           0.00000000E+00
  -0.18700000E+01           0.00000000E+00
  -0.18600000E+01           0.00000000E+00
  -0.18500000E+01           0.00000000E+00
  -0.18400000E+01           0.00000000E+00
  -0.18300000E+01           0.00000000E+00
  -0.18200000E+01           0.00000000E+00
  -0.18100000E+01           0.00000000E+00
  -0.18000000E+01           0.00000000E+00
  -0.17900000E+01           0.00000000E+00
  -0.17800000E+01           0.00000000E+00
  -0.17700000E+01           0.00000000E+00
  -0.17600000E+01           0.00000000E+00
  -0.17500000E+01           0.00000000E+00
  -0.17400000E+01           0.00000000E+00
  -0.17300000E+01           0.00000000E+00
  -0.17200000E+01           0.00000000E+00
  -0.17100000E+01           0.00000000E+00
  -0.17000000E+01           0.00000000E+00
  -0.16900000E+01           0.00000000E+00
  -0.16800000E+01           0.00000000E+00
  -0.16700000E+01           0.00000000E+00
  -0.16600000E+01           0.00000000E+00
  -0.16500000E+01           0.00000000E+00
  -0.16400000E+01           0.00000000E+00
  -0.16300000E+01           0.00000000E+00
  -0.16200000E+01           0.00000000E+00
  -0.16100000E+01           0.00000000E+00
  -0.16000000E+01           0.00000000E+00
  -0.15900000E+01           0.00000000E+00
  -0.15800000E+01           0.00000000E+00
  -0.15700000E+01           0.00000000E+00
  -0.15600000E+01           0.00000000E+00
  -0.15500000E+01           0.00000000E+00
  -0.15400000E+01           0.00000000E+00
  -0.15300000E+01           0.00000000E+00
  -0.15200000E+01           0.00000000E+00
  -0.15100000E+01           0.00000000E+00
  -0.15000000E+01           0.00000000E+00
  -0.14900000E+01           0.00000000E+00
  -0.14800000E+01           0.00000000E+00
  -0.14700000E+01           0.00000000E+00
  -0.14600000E+01           0.00000000E+00
  -0.14500000E+01           0.00000000E+00
  -0.14400000E+01           0.00000000E+00
  -0.14300000E+01           0.00000000E+00
  -0.14200000E+01           0.00000000E+00
  -0.14100000E+01           0.00000000E+00
  -0.14000000E+01           0.00000000E+00
  -0.13900000E+01           0.00000000E+00
  -0.13800000E+01           0.00000000E+00
  -0.13700000E+01           0.00000000E+00
  -0.13600000E+01           0.00000000E+00
  -0.13500000E+01           0.00000000E+00
  -0.13400000E+01           0.00000000E+00
  -0.13300000E+01           0.00000000E+00
  -0.13200000E+01           0.00000000E+00
  -0.13100000E+01           0.00000000E+00
  -0.13000000E+01           0.00000000E+00
  -0.12900000E+01           0.00000000E+00
  -0.12800000E+01           0.00000000E+00
  -0.12700000E+01           0.00000000E+00
  -0.12600000E+01           0.00000000E+00
  -0.12500000E+01           0.00000000E+00
  -0.12400000E+01           0.00000000E+00
  -0.12300000E+01           0.00000000E+00
  -0.12200000E+01           0.00000000E+00
  -0.12100000E+01           0.00000000E+00
  -0.12000000E+01           0.00000000E+00
  -0.11900000E+01           0.00000000E+00
  -0.11800000E+01           0.00000000E+00
  -0.11700000E+01           0.00000000E+00
  -0.11600000E+01           0.00000000E+00
  -0.11500000E+01           0.00000000E+00
  -0.11400000E+01           0.00000000E+00
  -0.11300000E+01           0.00000000E+00
  -0.11200000E+01           0.00000000E+00
  -0.11100000E+01           0.00000000E+00
  -0.11000000E+01           0.00000000E+00
  -0.10900000E+01           0.00000000E+00
  -0.10800000E+01           0.00000000E+00
  -0.10700000E+01           0.00000000E+00
  -0.10600000E+01           0.00000000E+00
  -0.10500000E+01           0.00000000E+00
  -0.10400000E+01           0.00000000E+00
  -0.10300000E+01           0.00000000E+00
  -0.10200000E+01           0.00000000E+00
  -0.10100000E+01           0.00000000E+00
  -0.10000000E+01           0.00000000E+00
  -0.99000000E+00           0.00000000E+00
  -0.98000000E+00           0.00000000E+00
  -0.97000000E+00           0.00000000E+00
  -0.96000000E+00           0.00000000E+00
  -0.95000000E+00           0.00000000E+00
  -0.94000000E+00           0.00000000E+00
  -0.93000000E+00           0.00000000E+00
  -0.92000000E+00           0.00000000E+00
  -0.91000000E+00           0.00000000E+00
  -0.90000000E+00           0.00000000E+00
  -0.89000000E+00           0.00000000E+00
  -0.88000000E+00           0.00000000E+00
  -0.87000000E+00           0.00000000E+00
  -0.86000000E+00           0.00000000E+00
  -0.85000000E+00           0.00000000E+00
  -0.84000000E+00           0.00000000E+00
  -0.83000000E+00           0.00000000E+00
  -0.82000000E+00           0.00000000E+00
  -0.81000000E+00           0.00000000E+00
  -0.80000000E+00           0.00000000E+00
  -0.79000000E+00           0.00000000E+00
  -0.78000000E+00           0.00000000E+00
  -0.77000000E+00           0.00000000E+00
  -0.76000000E+00           0.00000000E+00
  -0.75000000E+00           0.00000000E+00
  -0.74000000E+00           0.00000000E+00
  -0.73000000E+00           0.00000000E+00
  -0.72000000E+00           0.00000000E+00
  -0.71000000E+00           0.00000000E+00
  -0.70000000E+00           0.00000000E+00
  -0.69000000E+00           0.00000000E+00
  -0.68000000E+00           0.00000000E+00
  -0.67000000E+00           0.00000000E+00
  -0.66000000E+00           0.00000000E+00
  -0.65000000E+00           0.00000000E+00
  -0.64000000E+00           0.00000000E+00
  -0.63000000E+00           0.00000000E+00
  -0.62000000E+00           0.00000000E+00
  -0.61000000E+00           0.00000000E+00
  -0.60000000E+00           0.00000000E+00
  -0.59000000E+00           0.00000000E+00
  -0.58000000E+00           0.00000000E+00
  -0.57000000E+00           0.00000000E+00
  -0.56000000E+00           0.00000000E+00
  -0.55000000E+00           0.00000000E+00
  -0.54000000E+00           0.00000000E+00
  -0.53000000E+00           0.00000000E+00
  -0.52000000E+00           0.00000000E+00
  -0.51000000E+00           0.00000000E+00
  -0.50000000E+00           0.00000000E+00
  -0.49000000E+00           0.00000000E+00
  -0.48000000E+00           0.00000000E+00
  -0.47000000E+00           0.00000000E+00
  -0.46000000E+00           0.00000000E+00
  -0.45000000E+00           0.00000000E+00
  -0.44000000E+00           0.00000000E+00
  -0.43000000E+00           0.00000000E+00
  -0.42000000E+00           0.00000000E+00
  -0.41000000E+00           0.00000000E+00
  -0.40000000E+00           0.00000000E+00
  -0.39000000E+00           0.00000000E+00
  -0.38000000E+00           0.00000000E+00
  -0.37000000E+00           0.00000000E+00
  -0.36000000E+00           0.00000000E+00
  -0.35000000E+00           0.00000000E+00
  -0.34000000E+00           0.00000000E+00
  -0.33000000E+00           0.00000000E+00
  -0.32000000E+00           0.00000000E+00
  -0.31000000E+00           0.00000000E+00
  -0.30000000E+00           0.00000000E+00
  -0.29000000E+00           0.00000000E+00
  -0.28000000E+00           0.00000000E+00
  -0.27000000E+00           0.00000000E+00
  -0.26000000E+00           0.00000000E+00
  -0.25000000E+00           0.00000000E+00
  -0.24000000E+00           0.00000000E+00
  -0.23000000E+00           0.00000000E+00
  -0.22000000E+00           0.00000000E+00
  -0.21000000E+00           0.00000000E+00
  -0.20000000E+00           0.00000000E+00
  -0.19000000E+00           0.00000000E+00
  -0.18000000E+00           0.00000000E+00
  -0.17000000E+00           0.00000000E+00
  -0.16000000E+00           0.00000000E+00
  -0.15000000E+00           0.00000000E+00
  -0.14000000E+00           0.00000000E+00
  -0.13000000E+00           0.00000000E+00
  -0.12000000E+00           0.00000000E+00
  -0.11000000E+00           0.00000000E+00
  -0.10000000E+00           0.00000000E+00
  -0.90000000E-01           0.00000000E+00
  -0.80000000E-01           0.00000000E+00
  -0.70000000E-01           0.00000000E+00
  -0.60000000E-01           0.00000000E+00
  -0.50000000E-01           0.00000000E+00
  -0.40000000E-01           0.00000000E+00
  -0.30000000E-01           0.00000000E+00
  -0.20000000E-01           0.00000000E+00
  -0.10000000E-01           0.00000000E+00
   0.00000000E+00           0.91687925E-03
   0.10000000E-01           0.73287132E-02
   0.20000000E-01           0.14634637E-01
   0.30000000E-01           0.21948767E-01
   0.40000000E-01           0.29254790E-01
   0.50000000E-01           0.36548427E-01
   0.60000000E-01           0.43905485E-01
   0.70000000E-01           0.51148597E-01
   0.80000000E-01           0.58489427E-01
   0.90000000E-01           0.65743750E-01
   0.10000000E+00           0.73100935E-01
   0.11000000E+00           0.80279478E-01
   0.12000000E+00           0.87555938E-01
   0.13000000E+00           0.94802041E-01
   0.14000000E+00           0.10201995E+00
   0.15000000E+00           0.10923116E+00
   0.16000000E+00           0.11656976E+00
   0.17000000E+00           0.12367333E+00
   0.18000000E+00           0.13081514E+00
   0.19000000E+00           0.13809803E+00
   0.20000000E+00           0.14516450E+00
   0.21000000E+00           0.15227928E+00
   0.22000000E+00           0.15940156E+00
   0.23000000E+00           0.16645224E+00
   0.24000000E+00           0.17363669E+00
   0.25000000E+00           0.18058566E+00
   0.26000000E+00           0.18760577E+00
   0.27000000E+00           0.19466478E+00
   0.28000000E+00           0.20162723E+00
   0.29000000E+00           0.20851766E+00
   0.30000000E+00           0.21557571E+00
   0.31000000E+00           0.22245204E+00
   0.32000000E+00           0.22931590E+00
   0.33000000E+00           0.23613812E+00
   0.34000000E+00           0.24311898E+00
   0.35000000E+00           0.24976929E+00
   0.36000000E+00           0.25659099E+00
   0.37000000E+00           0.26322851E+00
   0.38000000E+00           0.26993519E+00
   0.39000000E+00           0.27662187E+00
   0.40000000E+00           0.28329973E+00
   0.41000000E+00           0.28987107E+00
   0.42000000E+00           0.29645795E+00
   0.43000000E+00           0.30300038E+00
   0.44000000E+00           0.30965128E+00
   0.45000000E+00           0.31586699E+00
   0.46000000E+00           0.32236042E+00
   0.47000000E+00           0.32884049E+00
   0.48000000E+00           0.33498804E+00
   0.49000000E+00           0.34143818E+00
   0.50000000E+00           0.34771830E+00
   0.51000000E+00           0.35376542E+00
   0.52000000E+00           0.36014415E+00
   0.53000000E+00           0.36632966E+00
   0.54000000E+00           0.37212004E+00
   0.55000000E+00           0.37841287E+00
   0.56000000E+00           0.38440497E+00
   0.57000000E+00           0.39046908E+00
   0.58000000E+00           0.39633914E+00
   0.59000000E+00           0.40222207E+00
   0.60000000E+00           0.40791752E+00
   0.61000000E+00           0.41393573E+00
   0.62000000E+00           0.41949507E+00
   0.63000000E+00           0.42514943E+00
   0.64000000E+00           0.43067283E+00
   0.65000000E+00           0.43628655E+00
   0.66000000E+00           0.44198193E+00
   0.67000000E+00           0.44726964E+00
   0.68000000E+00           0.45264916E+00
   0.69000000E+00           0.45811990E+00
   0.70000000E+00           0.46355223E+00
   0.71000000E+00           0.46872062E+00
   0.72000000E+00           0.47388352E+00
   0.73000000E+00           0.47907861E+00
   0.74000000E+00           0.48432239E+00
   0.75000000E+00           0.48940618E+00
   0.76000000E+00           0.49424943E+00
   0.77000000E+00           0.49922640E+00
   0.78000000E+00           0.50405890E+00
   0.79000000E+00           0.50895772E+00
   0.80000000E+00           0.51380721E+00
   0.81000000E+00           0.51831463E+00
   0.82000000E+00           0.52300645E+00
   0.83000000E+00           0.52753970E+00
   0.84000000E+00           0.53226886E+00
   0.85000000E+00           0.53689450E+00
   0.86000000E+00           0.54114933E+00
   0.87000000E+00           0.54556806E+00
   0.88000000E+00           0.54984315E+00
   0.89000000E+00           0.55398233E+00
   0.90000000E+00           0.55836715E+00
   0.91000000E+00           0.56226740E+00
   0.92000000E+00           0.56636328E+00
   0.93000000E+00           0.57039935E+00
   0.94000000E+00           0.57436959E+00
   0.95000000E+00           0.57819349E+00
   0.96000000E+00           0.58199392E+00
   0.97000000E+00           0.58589617E+00
   0.98000000E+00           0.58958193E+00
   0.99000000E+00           0.59311463E+00
   0.10000000E+01           0.59669493E+00
   0.10100000E+01           0.60016118E+00
   0.10200000E+01           0.60350788E+00
   0.10300000E+01           0.60706633E+00
   0.10400000E+01           0.61019565E+00
   0.10500000E+01           0.61334545E+00
   0.10600000E+01           0.61658716E+00
   0.10700000E+01           0.61974644E+00
   0.10800000E+01           0.62275646E+00
   0.10900000E+01           0.62584503E+00
   0.11000000E+01           0.62870964E+00
   0.11100000E+01           0.63136752E+00
   0.11200000E+01           0.63425302E+00
   0.11300000E+01           0.63708282E+00
   0.11400000E+01           0.63975257E+00
   0.11500000E+01           0.64247028E+00
   0.11600000E+01           0.64479138E+00
   0.11700000E+01           0.64732207E+00
   0.11800000E+01           0.64970340E+00
   0.11900000E+01           0.65204940E+00
   0.12000000E+01           0.65445115E+00
   0.12100000E+01           0.65678408E+00
   0.12200000E+01           0.65883031E+00
   0.12300000E+01           0.66089905E+00
   0.12400000E+01           0.66279246E+00
   0.12500000E+01           0.66484510E+00
   0.12600000E+01           0.66657952E+00
   0.12700000E+01           0.66859755E+00
   0.12800000E+01           0.67035584E+00
   0.12900000E+01           0.67202197E+00
   0.13000000E+01           0.67366553E+00
   0.13100000E+01           0.67530622E+00
   0.13200000E+01           0.67674607E+00
   0.13300000E+01           0.67821601E+00
   0.13400000E+01           0.67949837E+00
   0.13500000E+01           0.68079486E+00
   0.13600000E+01           0.68231723E+00
   0.13700000E+01           0.68331886E+00
   0.13800000E+01           0.68437765E+00
   0.13900000E+01           0.68561419E+00
   0.14000000E+01           0.68652217E+00
   0.14100000E+01           0.68748365E+00
   0.14200000E+01           0.68840955E+00
   0.14300000E+01           0.68906528E+00
   0.14400000E+01           0.68983221E+00
   0.14500000E+01           0.69062239E+00
   0.14600000E+01           0.69145334E+00
   0.14700000E+01           0.69189820E+00
   0.14800000E+01           0.69251874E+00
   0.14900000E+01           0.69302197E+00
   0.15000000E+01           0.69337438E+00
   0.15100000E+01           0.69354766E+00
   0.15200000E+01           0.69391319E+00
   0.15300000E+01           0.69396101E+00
   0.15400000E+01           0.69427757E+00
   0.15500000E+01           0.69423136E+00
   0.15600000E+01           0.69431342E+00
   0.15700000E+01           0.69430255E+00
   0.15800000E+01           0.69433788E+00
   0.15900000E+01           0.69425024E+00
   0.16000000E+01           0.69401569E+00
   0.16100000E+01           0.69388478E+00
   0.16200000E+01           0.69359803E+00
   0.16300000E+01           0.69318048E+00
   0.16400000E+01           0.69245310E+00
   0.16500000E+01           0.69220339E+00
   0.16600000E+01           0.69186834E+00
   0.16700000E+01           0.69134622E+00
   0.16800000E+01           0.69070106E+00
   0.16900000E+01           0.68988155E+00
   0.17000000E+01           0.68941643E+00
   0.17100000E+01           0.68845325E+00
   0.17200000E+01           0.68755852E+00
   0.17300000E+01           0.68698992E+00
   0.17400000E+01           0.68593366E+00
   0.17500000E+01           0.68499933E+00
   0.17600000E+01           0.68420700E+00
   0.17700000E+01           0.68295014E+00
   0.17800000E+01           0.68170129E+00
   0.17900000E+01           0.68080156E+00
   0.18000000E+01           0.67957096E+00
   0.18100000E+01           0.67818817E+00
   0.18200000E+01           0.67689408E+00
   0.18300000E+01           0.67554551E+00
   0.18400000E+01           0.67423849E+00
   0.18500000E+01           0.67276696E+00
   0.18600000E+01           0.67112494E+00
   0.18700000E+01           0.66987572E+00
   0.18800000E+01           0.66802348E+00
   0.18900000E+01           0.66655456E+00
   0.19000000E+01           0.66485747E+00
   0.19100000E+01           0.66320874E+00
   0.19200000E+01           0.66155074E+00
   0.19300000E+01           0.65966677E+00
   0.19400000E+01           0.65790218E+00
   0.19500000E+01           0.65603403E+00
   0.19600000E+01           0.65431443E+00
   0.19700000E+01           0.65247707E+00
   0.19800000E+01           0.65029865E+00
   0.19900000E+01           0.64825021E+00
   0.20000000E+01           0.32345337E+00
