 #written on 11Aug2024 at 12:48:30 
 #----------------- MONTECARLO -------------------#
 #        M                      P(M)             #
 #------------------------------------------------#
 #T=     5.0000
  -0.20000000E+01           0.00000000E+00
  -0.19900000E+01           0.00000000E+00
  -0.19800000E+01           0.00000000E+00
  -0.19700000E+01           0.00000000E+00
  -0.19600000E+01           0.00000000E+00
  -0.19500000E+01           0.00000000E+00
  -0.19400000E+01           0.00000000E+00
  -0.19300000E+01           0.00000000E+00
  -0.19200000E+01           0.00000000E+00
  -0.19100000E+01           0.00000000E+00
  -0.19000000E+01           0.00000000E+00
  -0.18900000E+01           0.00000000E+00
  -0.18800000E+01           0.00000000E+00
  -0.18700000E+01           0.00000000E+00
  -0.18600000E+01           0.00000000E+00
  -0.18500000E+01           0.00000000E+00
  -0.18400000E+01           0.00000000E+00
  -0.18300000E+01           0.00000000E+00
  -0.18200000E+01           0.00000000E+00
  -0.18100000E+01           0.00000000E+00
  -0.18000000E+01           0.00000000E+00
  -0.17900000E+01           0.00000000E+00
  -0.17800000E+01           0.00000000E+00
  -0.17700000E+01           0.00000000E+00
  -0.17600000E+01           0.00000000E+00
  -0.17500000E+01           0.00000000E+00
  -0.17400000E+01           0.00000000E+00
  -0.17300000E+01           0.00000000E+00
  -0.17200000E+01           0.00000000E+00
  -0.17100000E+01           0.00000000E+00
  -0.17000000E+01           0.00000000E+00
  -0.16900000E+01           0.00000000E+00
  -0.16800000E+01           0.00000000E+00
  -0.16700000E+01           0.00000000E+00
  -0.16600000E+01           0.00000000E+00
  -0.16500000E+01           0.00000000E+00
  -0.16400000E+01           0.00000000E+00
  -0.16300000E+01           0.00000000E+00
  -0.16200000E+01           0.00000000E+00
  -0.16100000E+01           0.00000000E+00
  -0.16000000E+01           0.00000000E+00
  -0.15900000E+01           0.00000000E+00
  -0.15800000E+01           0.00000000E+00
  -0.15700000E+01           0.00000000E+00
  -0.15600000E+01           0.00000000E+00
  -0.15500000E+01           0.00000000E+00
  -0.15400000E+01           0.00000000E+00
  -0.15300000E+01           0.00000000E+00
  -0.15200000E+01           0.00000000E+00
  -0.15100000E+01           0.00000000E+00
  -0.15000000E+01           0.00000000E+00
  -0.14900000E+01           0.00000000E+00
  -0.14800000E+01           0.00000000E+00
  -0.14700000E+01           0.00000000E+00
  -0.14600000E+01           0.00000000E+00
  -0.14500000E+01           0.00000000E+00
  -0.14400000E+01           0.00000000E+00
  -0.14300000E+01           0.00000000E+00
  -0.14200000E+01           0.00000000E+00
  -0.14100000E+01           0.00000000E+00
  -0.14000000E+01           0.00000000E+00
  -0.13900000E+01           0.00000000E+00
  -0.13800000E+01           0.00000000E+00
  -0.13700000E+01           0.00000000E+00
  -0.13600000E+01           0.00000000E+00
  -0.13500000E+01           0.00000000E+00
  -0.13400000E+01           0.00000000E+00
  -0.13300000E+01           0.00000000E+00
  -0.13200000E+01           0.00000000E+00
  -0.13100000E+01           0.00000000E+00
  -0.13000000E+01           0.00000000E+00
  -0.12900000E+01           0.00000000E+00
  -0.12800000E+01           0.00000000E+00
  -0.12700000E+01           0.00000000E+00
  -0.12600000E+01           0.00000000E+00
  -0.12500000E+01           0.00000000E+00
  -0.12400000E+01           0.00000000E+00
  -0.12300000E+01           0.00000000E+00
  -0.12200000E+01           0.00000000E+00
  -0.12100000E+01           0.00000000E+00
  -0.12000000E+01           0.00000000E+00
  -0.11900000E+01           0.00000000E+00
  -0.11800000E+01           0.00000000E+00
  -0.11700000E+01           0.00000000E+00
  -0.11600000E+01           0.00000000E+00
  -0.11500000E+01           0.00000000E+00
  -0.11400000E+01           0.00000000E+00
  -0.11300000E+01           0.00000000E+00
  -0.11200000E+01           0.00000000E+00
  -0.11100000E+01           0.00000000E+00
  -0.11000000E+01           0.00000000E+00
  -0.10900000E+01           0.00000000E+00
  -0.10800000E+01           0.00000000E+00
  -0.10700000E+01           0.00000000E+00
  -0.10600000E+01           0.00000000E+00
  -0.10500000E+01           0.00000000E+00
  -0.10400000E+01           0.00000000E+00
  -0.10300000E+01           0.00000000E+00
  -0.10200000E+01           0.00000000E+00
  -0.10100000E+01           0.00000000E+00
  -0.10000000E+01           0.00000000E+00
  -0.99000000E+00           0.00000000E+00
  -0.98000000E+00           0.00000000E+00
  -0.97000000E+00           0.00000000E+00
  -0.96000000E+00           0.00000000E+00
  -0.95000000E+00           0.00000000E+00
  -0.94000000E+00           0.00000000E+00
  -0.93000000E+00           0.00000000E+00
  -0.92000000E+00           0.00000000E+00
  -0.91000000E+00           0.00000000E+00
  -0.90000000E+00           0.00000000E+00
  -0.89000000E+00           0.00000000E+00
  -0.88000000E+00           0.00000000E+00
  -0.87000000E+00           0.00000000E+00
  -0.86000000E+00           0.00000000E+00
  -0.85000000E+00           0.00000000E+00
  -0.84000000E+00           0.00000000E+00
  -0.83000000E+00           0.00000000E+00
  -0.82000000E+00           0.00000000E+00
  -0.81000000E+00           0.00000000E+00
  -0.80000000E+00           0.00000000E+00
  -0.79000000E+00           0.00000000E+00
  -0.78000000E+00           0.00000000E+00
  -0.77000000E+00           0.00000000E+00
  -0.76000000E+00           0.00000000E+00
  -0.75000000E+00           0.00000000E+00
  -0.74000000E+00           0.00000000E+00
  -0.73000000E+00           0.00000000E+00
  -0.72000000E+00           0.00000000E+00
  -0.71000000E+00           0.00000000E+00
  -0.70000000E+00           0.00000000E+00
  -0.69000000E+00           0.00000000E+00
  -0.68000000E+00           0.00000000E+00
  -0.67000000E+00           0.00000000E+00
  -0.66000000E+00           0.00000000E+00
  -0.65000000E+00           0.00000000E+00
  -0.64000000E+00           0.00000000E+00
  -0.63000000E+00           0.00000000E+00
  -0.62000000E+00           0.00000000E+00
  -0.61000000E+00           0.00000000E+00
  -0.60000000E+00           0.00000000E+00
  -0.59000000E+00           0.00000000E+00
  -0.58000000E+00           0.00000000E+00
  -0.57000000E+00           0.00000000E+00
  -0.56000000E+00           0.00000000E+00
  -0.55000000E+00           0.00000000E+00
  -0.54000000E+00           0.00000000E+00
  -0.53000000E+00           0.00000000E+00
  -0.52000000E+00           0.00000000E+00
  -0.51000000E+00           0.00000000E+00
  -0.50000000E+00           0.00000000E+00
  -0.49000000E+00           0.00000000E+00
  -0.48000000E+00           0.00000000E+00
  -0.47000000E+00           0.00000000E+00
  -0.46000000E+00           0.00000000E+00
  -0.45000000E+00           0.00000000E+00
  -0.44000000E+00           0.00000000E+00
  -0.43000000E+00           0.00000000E+00
  -0.42000000E+00           0.00000000E+00
  -0.41000000E+00           0.00000000E+00
  -0.40000000E+00           0.00000000E+00
  -0.39000000E+00           0.00000000E+00
  -0.38000000E+00           0.00000000E+00
  -0.37000000E+00           0.00000000E+00
  -0.36000000E+00           0.00000000E+00
  -0.35000000E+00           0.00000000E+00
  -0.34000000E+00           0.00000000E+00
  -0.33000000E+00           0.00000000E+00
  -0.32000000E+00           0.00000000E+00
  -0.31000000E+00           0.00000000E+00
  -0.30000000E+00           0.00000000E+00
  -0.29000000E+00           0.00000000E+00
  -0.28000000E+00           0.00000000E+00
  -0.27000000E+00           0.00000000E+00
  -0.26000000E+00           0.00000000E+00
  -0.25000000E+00           0.00000000E+00
  -0.24000000E+00           0.00000000E+00
  -0.23000000E+00           0.00000000E+00
  -0.22000000E+00           0.00000000E+00
  -0.21000000E+00           0.00000000E+00
  -0.20000000E+00           0.00000000E+00
  -0.19000000E+00           0.00000000E+00
  -0.18000000E+00           0.00000000E+00
  -0.17000000E+00           0.00000000E+00
  -0.16000000E+00           0.00000000E+00
  -0.15000000E+00           0.00000000E+00
  -0.14000000E+00           0.00000000E+00
  -0.13000000E+00           0.00000000E+00
  -0.12000000E+00           0.00000000E+00
  -0.11000000E+00           0.00000000E+00
  -0.10000000E+00           0.00000000E+00
  -0.90000000E-01           0.00000000E+00
  -0.80000000E-01           0.00000000E+00
  -0.70000000E-01           0.00000000E+00
  -0.60000000E-01           0.00000000E+00
  -0.50000000E-01           0.00000000E+00
  -0.40000000E-01           0.00000000E+00
  -0.30000000E-01           0.00000000E+00
  -0.20000000E-01           0.00000000E+00
  -0.10000000E-01           0.00000000E+00
   0.00000000E+00           0.15616800E-01
   0.10000000E-01           0.12345360E+00
   0.20000000E-01           0.24904230E+00
   0.30000000E-01           0.37085330E+00
   0.40000000E-01           0.49020080E+00
   0.50000000E-01           0.61054250E+00
   0.60000000E-01           0.72781120E+00
   0.70000000E-01           0.83992150E+00
   0.80000000E-01           0.95686280E+00
   0.90000000E-01           0.10639873E+01
   0.10000000E+00           0.11662881E+01
   0.11000000E+00           0.12687904E+01
   0.12000000E+00           0.13632210E+01
   0.13000000E+00           0.14564055E+01
   0.14000000E+00           0.15409699E+01
   0.15000000E+00           0.16218953E+01
   0.16000000E+00           0.17004760E+01
   0.17000000E+00           0.17666842E+01
   0.18000000E+00           0.18350531E+01
   0.19000000E+00           0.18932614E+01
   0.20000000E+00           0.19446220E+01
   0.21000000E+00           0.19954333E+01
   0.22000000E+00           0.20336796E+01
   0.23000000E+00           0.20698423E+01
   0.24000000E+00           0.20986400E+01
   0.25000000E+00           0.21221335E+01
   0.26000000E+00           0.21402500E+01
   0.27000000E+00           0.21494746E+01
   0.28000000E+00           0.21567565E+01
   0.29000000E+00           0.21580092E+01
   0.30000000E+00           0.21552894E+01
   0.31000000E+00           0.21422366E+01
   0.32000000E+00           0.21252497E+01
   0.33000000E+00           0.21082884E+01
   0.34000000E+00           0.20835552E+01
   0.35000000E+00           0.20569976E+01
   0.36000000E+00           0.20222844E+01
   0.37000000E+00           0.19873547E+01
   0.38000000E+00           0.19509255E+01
   0.39000000E+00           0.19062969E+01
   0.40000000E+00           0.18634212E+01
   0.41000000E+00           0.18170824E+01
   0.42000000E+00           0.17674969E+01
   0.43000000E+00           0.17174856E+01
   0.44000000E+00           0.16623434E+01
   0.45000000E+00           0.16114160E+01
   0.46000000E+00           0.15561559E+01
   0.47000000E+00           0.14981727E+01
   0.48000000E+00           0.14429424E+01
   0.49000000E+00           0.13844105E+01
   0.50000000E+00           0.13279038E+01
   0.51000000E+00           0.12707994E+01
   0.52000000E+00           0.12149006E+01
   0.53000000E+00           0.11579741E+01
   0.54000000E+00           0.11050094E+01
   0.55000000E+00           0.10486282E+01
   0.56000000E+00           0.99450200E+00
   0.57000000E+00           0.94200460E+00
   0.58000000E+00           0.89223580E+00
   0.59000000E+00           0.84090170E+00
   0.60000000E+00           0.79112080E+00
   0.61000000E+00           0.74655030E+00
   0.62000000E+00           0.70017620E+00
   0.63000000E+00           0.65483290E+00
   0.64000000E+00           0.61442270E+00
   0.65000000E+00           0.57512510E+00
   0.66000000E+00           0.53532940E+00
   0.67000000E+00           0.49745100E+00
   0.68000000E+00           0.46344550E+00
   0.69000000E+00           0.42973700E+00
   0.70000000E+00           0.39788470E+00
   0.71000000E+00           0.36798820E+00
   0.72000000E+00           0.33882440E+00
   0.73000000E+00           0.31177320E+00
   0.74000000E+00           0.28753810E+00
   0.75000000E+00           0.26365450E+00
   0.76000000E+00           0.24149830E+00
   0.77000000E+00           0.22081780E+00
   0.78000000E+00           0.20219600E+00
   0.79000000E+00           0.18384320E+00
   0.80000000E+00           0.16758580E+00
   0.81000000E+00           0.15172690E+00
   0.82000000E+00           0.13788260E+00
   0.83000000E+00           0.12467750E+00
   0.84000000E+00           0.11224430E+00
   0.85000000E+00           0.10104330E+00
   0.86000000E+00           0.91159100E-01
   0.87000000E+00           0.81496000E-01
   0.88000000E+00           0.74021200E-01
   0.89000000E+00           0.65622200E-01
   0.90000000E+00           0.58917800E-01
   0.91000000E+00           0.52436600E-01
   0.92000000E+00           0.46322700E-01
   0.93000000E+00           0.41141000E-01
   0.94000000E+00           0.36328100E-01
   0.95000000E+00           0.32071000E-01
   0.96000000E+00           0.28747500E-01
   0.97000000E+00           0.25321100E-01
   0.98000000E+00           0.21893600E-01
   0.99000000E+00           0.19050500E-01
   0.10000000E+01           0.16884900E-01
   0.10100000E+01           0.14725900E-01
   0.10200000E+01           0.12852200E-01
   0.10300000E+01           0.11066600E-01
   0.10400000E+01           0.96373000E-02
   0.10500000E+01           0.83370000E-02
   0.10600000E+01           0.71684000E-02
   0.10700000E+01           0.61706000E-02
   0.10800000E+01           0.53705000E-02
   0.10900000E+01           0.45636000E-02
   0.11000000E+01           0.38893000E-02
   0.11100000E+01           0.33152000E-02
   0.11200000E+01           0.28454000E-02
   0.11300000E+01           0.24378000E-02
   0.11400000E+01           0.20758000E-02
   0.11500000E+01           0.17345000E-02
   0.11600000E+01           0.14388000E-02
   0.11700000E+01           0.12492000E-02
   0.11800000E+01           0.10304000E-02
   0.11900000E+01           0.86950000E-03
   0.12000000E+01           0.73190000E-03
   0.12100000E+01           0.59420000E-03
   0.12200000E+01           0.49280000E-03
   0.12300000E+01           0.41290000E-03
   0.12400000E+01           0.33570000E-03
   0.12500000E+01           0.28130000E-03
   0.12600000E+01           0.21680000E-03
   0.12700000E+01           0.18270000E-03
   0.12800000E+01           0.14320000E-03
   0.12900000E+01           0.12110000E-03
   0.13000000E+01           0.96600000E-04
   0.13100000E+01           0.80200000E-04
   0.13200000E+01           0.73600000E-04
   0.13300000E+01           0.46500000E-04
   0.13400000E+01           0.40100000E-04
   0.13500000E+01           0.34300000E-04
   0.13600000E+01           0.19000000E-04
   0.13700000E+01           0.22100000E-04
   0.13800000E+01           0.16400000E-04
   0.13900000E+01           0.15900000E-04
   0.14000000E+01           0.92000000E-05
   0.14100000E+01           0.53000000E-05
   0.14200000E+01           0.66000000E-05
   0.14300000E+01           0.55000000E-05
   0.14400000E+01           0.29000000E-05
   0.14500000E+01           0.29000000E-05
   0.14600000E+01           0.23000000E-05
   0.14700000E+01           0.70000000E-06
   0.14800000E+01           0.90000000E-06
   0.14900000E+01           0.40000000E-06
   0.15000000E+01           0.70000000E-06
   0.15100000E+01           0.60000000E-06
   0.15200000E+01           0.40000000E-06
   0.15300000E+01           0.00000000E+00
   0.15400000E+01           0.00000000E+00
   0.15500000E+01           0.10000000E-06
   0.15600000E+01           0.00000000E+00
   0.15700000E+01           0.10000000E-06
   0.15800000E+01           0.00000000E+00
   0.15900000E+01           0.00000000E+00
   0.16000000E+01           0.00000000E+00
   0.16100000E+01           0.00000000E+00
   0.16200000E+01           0.10000000E-06
   0.16300000E+01           0.00000000E+00
   0.16400000E+01           0.00000000E+00
   0.16500000E+01           0.00000000E+00
   0.16600000E+01           0.00000000E+00
   0.16700000E+01           0.00000000E+00
   0.16800000E+01           0.00000000E+00
   0.16900000E+01           0.00000000E+00
   0.17000000E+01           0.00000000E+00
   0.17100000E+01           0.00000000E+00
   0.17200000E+01           0.00000000E+00
   0.17300000E+01           0.00000000E+00
   0.17400000E+01           0.00000000E+00
   0.17500000E+01           0.00000000E+00
   0.17600000E+01           0.00000000E+00
   0.17700000E+01           0.00000000E+00
   0.17800000E+01           0.00000000E+00
   0.17900000E+01           0.00000000E+00
   0.18000000E+01           0.00000000E+00
   0.18100000E+01           0.00000000E+00
   0.18200000E+01           0.00000000E+00
   0.18300000E+01           0.00000000E+00
   0.18400000E+01           0.00000000E+00
   0.18500000E+01           0.00000000E+00
   0.18600000E+01           0.00000000E+00
   0.18700000E+01           0.00000000E+00
   0.18800000E+01           0.00000000E+00
   0.18900000E+01           0.00000000E+00
   0.19000000E+01           0.00000000E+00
   0.19100000E+01           0.00000000E+00
   0.19200000E+01           0.00000000E+00
   0.19300000E+01           0.00000000E+00
   0.19400000E+01           0.00000000E+00
   0.19500000E+01           0.00000000E+00
   0.19600000E+01           0.00000000E+00
   0.19700000E+01           0.00000000E+00
   0.19800000E+01           0.00000000E+00
   0.19900000E+01           0.00000000E+00
   0.20000000E+01           0.00000000E+00
 #T=     6.0000
  -0.20000000E+01           0.00000000E+00
  -0.19900000E+01           0.00000000E+00
  -0.19800000E+01           0.00000000E+00
  -0.19700000E+01           0.00000000E+00
  -0.19600000E+01           0.00000000E+00
  -0.19500000E+01           0.00000000E+00
  -0.19400000E+01           0.00000000E+00
  -0.19300000E+01           0.00000000E+00
  -0.19200000E+01           0.00000000E+00
  -0.19100000E+01           0.00000000E+00
  -0.19000000E+01           0.00000000E+00
  -0.18900000E+01           0.00000000E+00
  -0.18800000E+01           0.00000000E+00
  -0.18700000E+01           0.00000000E+00
  -0.18600000E+01           0.00000000E+00
  -0.18500000E+01           0.00000000E+00
  -0.18400000E+01           0.00000000E+00
  -0.18300000E+01           0.00000000E+00
  -0.18200000E+01           0.00000000E+00
  -0.18100000E+01           0.00000000E+00
  -0.18000000E+01           0.00000000E+00
  -0.17900000E+01           0.00000000E+00
  -0.17800000E+01           0.00000000E+00
  -0.17700000E+01           0.00000000E+00
  -0.17600000E+01           0.00000000E+00
  -0.17500000E+01           0.00000000E+00
  -0.17400000E+01           0.00000000E+00
  -0.17300000E+01           0.00000000E+00
  -0.17200000E+01           0.00000000E+00
  -0.17100000E+01           0.00000000E+00
  -0.17000000E+01           0.00000000E+00
  -0.16900000E+01           0.00000000E+00
  -0.16800000E+01           0.00000000E+00
  -0.16700000E+01           0.00000000E+00
  -0.16600000E+01           0.00000000E+00
  -0.16500000E+01           0.00000000E+00
  -0.16400000E+01           0.00000000E+00
  -0.16300000E+01           0.00000000E+00
  -0.16200000E+01           0.00000000E+00
  -0.16100000E+01           0.00000000E+00
  -0.16000000E+01           0.00000000E+00
  -0.15900000E+01           0.00000000E+00
  -0.15800000E+01           0.00000000E+00
  -0.15700000E+01           0.00000000E+00
  -0.15600000E+01           0.00000000E+00
  -0.15500000E+01           0.00000000E+00
  -0.15400000E+01           0.00000000E+00
  -0.15300000E+01           0.00000000E+00
  -0.15200000E+01           0.00000000E+00
  -0.15100000E+01           0.00000000E+00
  -0.15000000E+01           0.00000000E+00
  -0.14900000E+01           0.00000000E+00
  -0.14800000E+01           0.00000000E+00
  -0.14700000E+01           0.00000000E+00
  -0.14600000E+01           0.00000000E+00
  -0.14500000E+01           0.00000000E+00
  -0.14400000E+01           0.00000000E+00
  -0.14300000E+01           0.00000000E+00
  -0.14200000E+01           0.00000000E+00
  -0.14100000E+01           0.00000000E+00
  -0.14000000E+01           0.00000000E+00
  -0.13900000E+01           0.00000000E+00
  -0.13800000E+01           0.00000000E+00
  -0.13700000E+01           0.00000000E+00
  -0.13600000E+01           0.00000000E+00
  -0.13500000E+01           0.00000000E+00
  -0.13400000E+01           0.00000000E+00
  -0.13300000E+01           0.00000000E+00
  -0.13200000E+01           0.00000000E+00
  -0.13100000E+01           0.00000000E+00
  -0.13000000E+01           0.00000000E+00
  -0.12900000E+01           0.00000000E+00
  -0.12800000E+01           0.00000000E+00
  -0.12700000E+01           0.00000000E+00
  -0.12600000E+01           0.00000000E+00
  -0.12500000E+01           0.00000000E+00
  -0.12400000E+01           0.00000000E+00
  -0.12300000E+01           0.00000000E+00
  -0.12200000E+01           0.00000000E+00
  -0.12100000E+01           0.00000000E+00
  -0.12000000E+01           0.00000000E+00
  -0.11900000E+01           0.00000000E+00
  -0.11800000E+01           0.00000000E+00
  -0.11700000E+01           0.00000000E+00
  -0.11600000E+01           0.00000000E+00
  -0.11500000E+01           0.00000000E+00
  -0.11400000E+01           0.00000000E+00
  -0.11300000E+01           0.00000000E+00
  -0.11200000E+01           0.00000000E+00
  -0.11100000E+01           0.00000000E+00
  -0.11000000E+01           0.00000000E+00
  -0.10900000E+01           0.00000000E+00
  -0.10800000E+01           0.00000000E+00
  -0.10700000E+01           0.00000000E+00
  -0.10600000E+01           0.00000000E+00
  -0.10500000E+01           0.00000000E+00
  -0.10400000E+01           0.00000000E+00
  -0.10300000E+01           0.00000000E+00
  -0.10200000E+01           0.00000000E+00
  -0.10100000E+01           0.00000000E+00
  -0.10000000E+01           0.00000000E+00
  -0.99000000E+00           0.00000000E+00
  -0.98000000E+00           0.00000000E+00
  -0.97000000E+00           0.00000000E+00
  -0.96000000E+00           0.00000000E+00
  -0.95000000E+00           0.00000000E+00
  -0.94000000E+00           0.00000000E+00
  -0.93000000E+00           0.00000000E+00
  -0.92000000E+00           0.00000000E+00
  -0.91000000E+00           0.00000000E+00
  -0.90000000E+00           0.00000000E+00
  -0.89000000E+00           0.00000000E+00
  -0.88000000E+00           0.00000000E+00
  -0.87000000E+00           0.00000000E+00
  -0.86000000E+00           0.00000000E+00
  -0.85000000E+00           0.00000000E+00
  -0.84000000E+00           0.00000000E+00
  -0.83000000E+00           0.00000000E+00
  -0.82000000E+00           0.00000000E+00
  -0.81000000E+00           0.00000000E+00
  -0.80000000E+00           0.00000000E+00
  -0.79000000E+00           0.00000000E+00
  -0.78000000E+00           0.00000000E+00
  -0.77000000E+00           0.00000000E+00
  -0.76000000E+00           0.00000000E+00
  -0.75000000E+00           0.00000000E+00
  -0.74000000E+00           0.00000000E+00
  -0.73000000E+00           0.00000000E+00
  -0.72000000E+00           0.00000000E+00
  -0.71000000E+00           0.00000000E+00
  -0.70000000E+00           0.00000000E+00
  -0.69000000E+00           0.00000000E+00
  -0.68000000E+00           0.00000000E+00
  -0.67000000E+00           0.00000000E+00
  -0.66000000E+00           0.00000000E+00
  -0.65000000E+00           0.00000000E+00
  -0.64000000E+00           0.00000000E+00
  -0.63000000E+00           0.00000000E+00
  -0.62000000E+00           0.00000000E+00
  -0.61000000E+00           0.00000000E+00
  -0.60000000E+00           0.00000000E+00
  -0.59000000E+00           0.00000000E+00
  -0.58000000E+00           0.00000000E+00
  -0.57000000E+00           0.00000000E+00
  -0.56000000E+00           0.00000000E+00
  -0.55000000E+00           0.00000000E+00
  -0.54000000E+00           0.00000000E+00
  -0.53000000E+00           0.00000000E+00
  -0.52000000E+00           0.00000000E+00
  -0.51000000E+00           0.00000000E+00
  -0.50000000E+00           0.00000000E+00
  -0.49000000E+00           0.00000000E+00
  -0.48000000E+00           0.00000000E+00
  -0.47000000E+00           0.00000000E+00
  -0.46000000E+00           0.00000000E+00
  -0.45000000E+00           0.00000000E+00
  -0.44000000E+00           0.00000000E+00
  -0.43000000E+00           0.00000000E+00
  -0.42000000E+00           0.00000000E+00
  -0.41000000E+00           0.00000000E+00
  -0.40000000E+00           0.00000000E+00
  -0.39000000E+00           0.00000000E+00
  -0.38000000E+00           0.00000000E+00
  -0.37000000E+00           0.00000000E+00
  -0.36000000E+00           0.00000000E+00
  -0.35000000E+00           0.00000000E+00
  -0.34000000E+00           0.00000000E+00
  -0.33000000E+00           0.00000000E+00
  -0.32000000E+00           0.00000000E+00
  -0.31000000E+00           0.00000000E+00
  -0.30000000E+00           0.00000000E+00
  -0.29000000E+00           0.00000000E+00
  -0.28000000E+00           0.00000000E+00
  -0.27000000E+00           0.00000000E+00
  -0.26000000E+00           0.00000000E+00
  -0.25000000E+00           0.00000000E+00
  -0.24000000E+00           0.00000000E+00
  -0.23000000E+00           0.00000000E+00
  -0.22000000E+00           0.00000000E+00
  -0.21000000E+00           0.00000000E+00
  -0.20000000E+00           0.00000000E+00
  -0.19000000E+00           0.00000000E+00
  -0.18000000E+00           0.00000000E+00
  -0.17000000E+00           0.00000000E+00
  -0.16000000E+00           0.00000000E+00
  -0.15000000E+00           0.00000000E+00
  -0.14000000E+00           0.00000000E+00
  -0.13000000E+00           0.00000000E+00
  -0.12000000E+00           0.00000000E+00
  -0.11000000E+00           0.00000000E+00
  -0.10000000E+00           0.00000000E+00
  -0.90000000E-01           0.00000000E+00
  -0.80000000E-01           0.00000000E+00
  -0.70000000E-01           0.00000000E+00
  -0.60000000E-01           0.00000000E+00
  -0.50000000E-01           0.00000000E+00
  -0.40000000E-01           0.00000000E+00
  -0.30000000E-01           0.00000000E+00
  -0.20000000E-01           0.00000000E+00
  -0.10000000E-01           0.00000000E+00
   0.00000000E+00           0.12829300E-01
   0.10000000E-01           0.10242650E+00
   0.20000000E-01           0.20487810E+00
   0.30000000E-01           0.30638550E+00
   0.40000000E-01           0.40683640E+00
   0.50000000E-01           0.50604480E+00
   0.60000000E-01           0.60487530E+00
   0.70000000E-01           0.69872080E+00
   0.80000000E-01           0.79408430E+00
   0.90000000E-01           0.88463350E+00
   0.10000000E+00           0.97341970E+00
   0.11000000E+00           0.10605978E+01
   0.12000000E+00           0.11439894E+01
   0.13000000E+00           0.12255144E+01
   0.14000000E+00           0.13001881E+01
   0.15000000E+00           0.13755392E+01
   0.16000000E+00           0.14435265E+01
   0.17000000E+00           0.15088115E+01
   0.18000000E+00           0.15686313E+01
   0.19000000E+00           0.16291315E+01
   0.20000000E+00           0.16793867E+01
   0.21000000E+00           0.17285893E+01
   0.22000000E+00           0.17708221E+01
   0.23000000E+00           0.18102576E+01
   0.24000000E+00           0.18458194E+01
   0.25000000E+00           0.18755206E+01
   0.26000000E+00           0.19048986E+01
   0.27000000E+00           0.19209237E+01
   0.28000000E+00           0.19408214E+01
   0.29000000E+00           0.19534535E+01
   0.30000000E+00           0.19617112E+01
   0.31000000E+00           0.19663437E+01
   0.32000000E+00           0.19661349E+01
   0.33000000E+00           0.19623244E+01
   0.34000000E+00           0.19535314E+01
   0.35000000E+00           0.19413372E+01
   0.36000000E+00           0.19249145E+01
   0.37000000E+00           0.19082206E+01
   0.38000000E+00           0.18862285E+01
   0.39000000E+00           0.18614734E+01
   0.40000000E+00           0.18331934E+01
   0.41000000E+00           0.18058475E+01
   0.42000000E+00           0.17698860E+01
   0.43000000E+00           0.17366455E+01
   0.44000000E+00           0.17009984E+01
   0.45000000E+00           0.16590343E+01
   0.46000000E+00           0.16180457E+01
   0.47000000E+00           0.15776709E+01
   0.48000000E+00           0.15331790E+01
   0.49000000E+00           0.14894367E+01
   0.50000000E+00           0.14439215E+01
   0.51000000E+00           0.13987090E+01
   0.52000000E+00           0.13498049E+01
   0.53000000E+00           0.13048757E+01
   0.54000000E+00           0.12570150E+01
   0.55000000E+00           0.12069897E+01
   0.56000000E+00           0.11619431E+01
   0.57000000E+00           0.11151927E+01
   0.58000000E+00           0.10696237E+01
   0.59000000E+00           0.10216813E+01
   0.60000000E+00           0.97430030E+00
   0.61000000E+00           0.93190900E+00
   0.62000000E+00           0.88619020E+00
   0.63000000E+00           0.84420950E+00
   0.64000000E+00           0.80107260E+00
   0.65000000E+00           0.75980080E+00
   0.66000000E+00           0.71912670E+00
   0.67000000E+00           0.68046410E+00
   0.68000000E+00           0.64168370E+00
   0.69000000E+00           0.60545260E+00
   0.70000000E+00           0.56976480E+00
   0.71000000E+00           0.53548910E+00
   0.72000000E+00           0.50232900E+00
   0.73000000E+00           0.47093100E+00
   0.74000000E+00           0.44002410E+00
   0.75000000E+00           0.41145980E+00
   0.76000000E+00           0.38373910E+00
   0.77000000E+00           0.35807500E+00
   0.78000000E+00           0.33251650E+00
   0.79000000E+00           0.30920590E+00
   0.80000000E+00           0.28697510E+00
   0.81000000E+00           0.26588740E+00
   0.82000000E+00           0.24571810E+00
   0.83000000E+00           0.22696570E+00
   0.84000000E+00           0.20974230E+00
   0.85000000E+00           0.19227330E+00
   0.86000000E+00           0.17677760E+00
   0.87000000E+00           0.16160360E+00
   0.88000000E+00           0.14856490E+00
   0.89000000E+00           0.13546850E+00
   0.90000000E+00           0.12404630E+00
   0.91000000E+00           0.11261820E+00
   0.92000000E+00           0.10241080E+00
   0.93000000E+00           0.93481900E-01
   0.94000000E+00           0.84674000E-01
   0.95000000E+00           0.76998300E-01
   0.96000000E+00           0.68739700E-01
   0.97000000E+00           0.62810800E-01
   0.98000000E+00           0.56185000E-01
   0.99000000E+00           0.50211900E-01
   0.10000000E+01           0.45510400E-01
   0.10100000E+01           0.40739600E-01
   0.10200000E+01           0.36428300E-01
   0.10300000E+01           0.32563300E-01
   0.10400000E+01           0.28973000E-01
   0.10500000E+01           0.25518800E-01
   0.10600000E+01           0.22993000E-01
   0.10700000E+01           0.20317800E-01
   0.10800000E+01           0.17916600E-01
   0.10900000E+01           0.15905300E-01
   0.11000000E+01           0.13934800E-01
   0.11100000E+01           0.12361600E-01
   0.11200000E+01           0.10793800E-01
   0.11300000E+01           0.94043000E-02
   0.11400000E+01           0.82476000E-02
   0.11500000E+01           0.71687000E-02
   0.11600000E+01           0.62713000E-02
   0.11700000E+01           0.54848000E-02
   0.11800000E+01           0.47472000E-02
   0.11900000E+01           0.40867000E-02
   0.12000000E+01           0.34614000E-02
   0.12100000E+01           0.30225000E-02
   0.12200000E+01           0.25901000E-02
   0.12300000E+01           0.21929000E-02
   0.12400000E+01           0.18991000E-02
   0.12500000E+01           0.16184000E-02
   0.12600000E+01           0.13671000E-02
   0.12700000E+01           0.11948000E-02
   0.12800000E+01           0.10184000E-02
   0.12900000E+01           0.83350000E-03
   0.13000000E+01           0.71550000E-03
   0.13100000E+01           0.57380000E-03
   0.13200000E+01           0.51000000E-03
   0.13300000E+01           0.38680000E-03
   0.13400000E+01           0.35120000E-03
   0.13500000E+01           0.28950000E-03
   0.13600000E+01           0.21800000E-03
   0.13700000E+01           0.20490000E-03
   0.13800000E+01           0.16180000E-03
   0.13900000E+01           0.12160000E-03
   0.14000000E+01           0.10390000E-03
   0.14100000E+01           0.90000000E-04
   0.14200000E+01           0.64900000E-04
   0.14300000E+01           0.48600000E-04
   0.14400000E+01           0.45300000E-04
   0.14500000E+01           0.36000000E-04
   0.14600000E+01           0.36000000E-04
   0.14700000E+01           0.27600000E-04
   0.14800000E+01           0.19300000E-04
   0.14900000E+01           0.14500000E-04
   0.15000000E+01           0.12800000E-04
   0.15100000E+01           0.71000000E-05
   0.15200000E+01           0.80000000E-05
   0.15300000E+01           0.43000000E-05
   0.15400000E+01           0.35000000E-05
   0.15500000E+01           0.35000000E-05
   0.15600000E+01           0.23000000E-05
   0.15700000E+01           0.21000000E-05
   0.15800000E+01           0.80000000E-06
   0.15900000E+01           0.16000000E-05
   0.16000000E+01           0.50000000E-06
   0.16100000E+01           0.30000000E-06
   0.16200000E+01           0.00000000E+00
   0.16300000E+01           0.00000000E+00
   0.16400000E+01           0.10000000E-06
   0.16500000E+01           0.20000000E-06
   0.16600000E+01           0.50000000E-06
   0.16700000E+01           0.30000000E-06
   0.16800000E+01           0.00000000E+00
   0.16900000E+01           0.00000000E+00
   0.17000000E+01           0.00000000E+00
   0.17100000E+01           0.00000000E+00
   0.17200000E+01           0.00000000E+00
   0.17300000E+01           0.00000000E+00
   0.17400000E+01           0.00000000E+00
   0.17500000E+01           0.00000000E+00
   0.17600000E+01           0.00000000E+00
   0.17700000E+01           0.00000000E+00
   0.17800000E+01           0.00000000E+00
   0.17900000E+01           0.00000000E+00
   0.18000000E+01           0.00000000E+00
   0.18100000E+01           0.00000000E+00
   0.18200000E+01           0.00000000E+00
   0.18300000E+01           0.00000000E+00
   0.18400000E+01           0.00000000E+00
   0.18500000E+01           0.00000000E+00
   0.18600000E+01           0.00000000E+00
   0.18700000E+01           0.00000000E+00
   0.18800000E+01           0.00000000E+00
   0.18900000E+01           0.00000000E+00
   0.19000000E+01           0.00000000E+00
   0.19100000E+01           0.00000000E+00
   0.19200000E+01           0.00000000E+00
   0.19300000E+01           0.00000000E+00
   0.19400000E+01           0.00000000E+00
   0.19500000E+01           0.00000000E+00
   0.19600000E+01           0.00000000E+00
   0.19700000E+01           0.00000000E+00
   0.19800000E+01           0.00000000E+00
   0.19900000E+01           0.00000000E+00
   0.20000000E+01           0.00000000E+00
 #T=     7.0000
  -0.20000000E+01           0.00000000E+00
  -0.19900000E+01           0.00000000E+00
  -0.19800000E+01           0.00000000E+00
  -0.19700000E+01           0.00000000E+00
  -0.19600000E+01           0.00000000E+00
  -0.19500000E+01           0.00000000E+00
  -0.19400000E+01           0.00000000E+00
  -0.19300000E+01           0.00000000E+00
  -0.19200000E+01           0.00000000E+00
  -0.19100000E+01           0.00000000E+00
  -0.19000000E+01           0.00000000E+00
  -0.18900000E+01           0.00000000E+00
  -0.18800000E+01           0.00000000E+00
  -0.18700000E+01           0.00000000E+00
  -0.18600000E+01           0.00000000E+00
  -0.18500000E+01           0.00000000E+00
  -0.18400000E+01           0.00000000E+00
  -0.18300000E+01           0.00000000E+00
  -0.18200000E+01           0.00000000E+00
  -0.18100000E+01           0.00000000E+00
  -0.18000000E+01           0.00000000E+00
  -0.17900000E+01           0.00000000E+00
  -0.17800000E+01           0.00000000E+00
  -0.17700000E+01           0.00000000E+00
  -0.17600000E+01           0.00000000E+00
  -0.17500000E+01           0.00000000E+00
  -0.17400000E+01           0.00000000E+00
  -0.17300000E+01           0.00000000E+00
  -0.17200000E+01           0.00000000E+00
  -0.17100000E+01           0.00000000E+00
  -0.17000000E+01           0.00000000E+00
  -0.16900000E+01           0.00000000E+00
  -0.16800000E+01           0.00000000E+00
  -0.16700000E+01           0.00000000E+00
  -0.16600000E+01           0.00000000E+00
  -0.16500000E+01           0.00000000E+00
  -0.16400000E+01           0.00000000E+00
  -0.16300000E+01           0.00000000E+00
  -0.16200000E+01           0.00000000E+00
  -0.16100000E+01           0.00000000E+00
  -0.16000000E+01           0.00000000E+00
  -0.15900000E+01           0.00000000E+00
  -0.15800000E+01           0.00000000E+00
  -0.15700000E+01           0.00000000E+00
  -0.15600000E+01           0.00000000E+00
  -0.15500000E+01           0.00000000E+00
  -0.15400000E+01           0.00000000E+00
  -0.15300000E+01           0.00000000E+00
  -0.15200000E+01           0.00000000E+00
  -0.15100000E+01           0.00000000E+00
  -0.15000000E+01           0.00000000E+00
  -0.14900000E+01           0.00000000E+00
  -0.14800000E+01           0.00000000E+00
  -0.14700000E+01           0.00000000E+00
  -0.14600000E+01           0.00000000E+00
  -0.14500000E+01           0.00000000E+00
  -0.14400000E+01           0.00000000E+00
  -0.14300000E+01           0.00000000E+00
  -0.14200000E+01           0.00000000E+00
  -0.14100000E+01           0.00000000E+00
  -0.14000000E+01           0.00000000E+00
  -0.13900000E+01           0.00000000E+00
  -0.13800000E+01           0.00000000E+00
  -0.13700000E+01           0.00000000E+00
  -0.13600000E+01           0.00000000E+00
  -0.13500000E+01           0.00000000E+00
  -0.13400000E+01           0.00000000E+00
  -0.13300000E+01           0.00000000E+00
  -0.13200000E+01           0.00000000E+00
  -0.13100000E+01           0.00000000E+00
  -0.13000000E+01           0.00000000E+00
  -0.12900000E+01           0.00000000E+00
  -0.12800000E+01           0.00000000E+00
  -0.12700000E+01           0.00000000E+00
  -0.12600000E+01           0.00000000E+00
  -0.12500000E+01           0.00000000E+00
  -0.12400000E+01           0.00000000E+00
  -0.12300000E+01           0.00000000E+00
  -0.12200000E+01           0.00000000E+00
  -0.12100000E+01           0.00000000E+00
  -0.12000000E+01           0.00000000E+00
  -0.11900000E+01           0.00000000E+00
  -0.11800000E+01           0.00000000E+00
  -0.11700000E+01           0.00000000E+00
  -0.11600000E+01           0.00000000E+00
  -0.11500000E+01           0.00000000E+00
  -0.11400000E+01           0.00000000E+00
  -0.11300000E+01           0.00000000E+00
  -0.11200000E+01           0.00000000E+00
  -0.11100000E+01           0.00000000E+00
  -0.11000000E+01           0.00000000E+00
  -0.10900000E+01           0.00000000E+00
  -0.10800000E+01           0.00000000E+00
  -0.10700000E+01           0.00000000E+00
  -0.10600000E+01           0.00000000E+00
  -0.10500000E+01           0.00000000E+00
  -0.10400000E+01           0.00000000E+00
  -0.10300000E+01           0.00000000E+00
  -0.10200000E+01           0.00000000E+00
  -0.10100000E+01           0.00000000E+00
  -0.10000000E+01           0.00000000E+00
  -0.99000000E+00           0.00000000E+00
  -0.98000000E+00           0.00000000E+00
  -0.97000000E+00           0.00000000E+00
  -0.96000000E+00           0.00000000E+00
  -0.95000000E+00           0.00000000E+00
  -0.94000000E+00           0.00000000E+00
  -0.93000000E+00           0.00000000E+00
  -0.92000000E+00           0.00000000E+00
  -0.91000000E+00           0.00000000E+00
  -0.90000000E+00           0.00000000E+00
  -0.89000000E+00           0.00000000E+00
  -0.88000000E+00           0.00000000E+00
  -0.87000000E+00           0.00000000E+00
  -0.86000000E+00           0.00000000E+00
  -0.85000000E+00           0.00000000E+00
  -0.84000000E+00           0.00000000E+00
  -0.83000000E+00           0.00000000E+00
  -0.82000000E+00           0.00000000E+00
  -0.81000000E+00           0.00000000E+00
  -0.80000000E+00           0.00000000E+00
  -0.79000000E+00           0.00000000E+00
  -0.78000000E+00           0.00000000E+00
  -0.77000000E+00           0.00000000E+00
  -0.76000000E+00           0.00000000E+00
  -0.75000000E+00           0.00000000E+00
  -0.74000000E+00           0.00000000E+00
  -0.73000000E+00           0.00000000E+00
  -0.72000000E+00           0.00000000E+00
  -0.71000000E+00           0.00000000E+00
  -0.70000000E+00           0.00000000E+00
  -0.69000000E+00           0.00000000E+00
  -0.68000000E+00           0.00000000E+00
  -0.67000000E+00           0.00000000E+00
  -0.66000000E+00           0.00000000E+00
  -0.65000000E+00           0.00000000E+00
  -0.64000000E+00           0.00000000E+00
  -0.63000000E+00           0.00000000E+00
  -0.62000000E+00           0.00000000E+00
  -0.61000000E+00           0.00000000E+00
  -0.60000000E+00           0.00000000E+00
  -0.59000000E+00           0.00000000E+00
  -0.58000000E+00           0.00000000E+00
  -0.57000000E+00           0.00000000E+00
  -0.56000000E+00           0.00000000E+00
  -0.55000000E+00           0.00000000E+00
  -0.54000000E+00           0.00000000E+00
  -0.53000000E+00           0.00000000E+00
  -0.52000000E+00           0.00000000E+00
  -0.51000000E+00           0.00000000E+00
  -0.50000000E+00           0.00000000E+00
  -0.49000000E+00           0.00000000E+00
  -0.48000000E+00           0.00000000E+00
  -0.47000000E+00           0.00000000E+00
  -0.46000000E+00           0.00000000E+00
  -0.45000000E+00           0.00000000E+00
  -0.44000000E+00           0.00000000E+00
  -0.43000000E+00           0.00000000E+00
  -0.42000000E+00           0.00000000E+00
  -0.41000000E+00           0.00000000E+00
  -0.40000000E+00           0.00000000E+00
  -0.39000000E+00           0.00000000E+00
  -0.38000000E+00           0.00000000E+00
  -0.37000000E+00           0.00000000E+00
  -0.36000000E+00           0.00000000E+00
  -0.35000000E+00           0.00000000E+00
  -0.34000000E+00           0.00000000E+00
  -0.33000000E+00           0.00000000E+00
  -0.32000000E+00           0.00000000E+00
  -0.31000000E+00           0.00000000E+00
  -0.30000000E+00           0.00000000E+00
  -0.29000000E+00           0.00000000E+00
  -0.28000000E+00           0.00000000E+00
  -0.27000000E+00           0.00000000E+00
  -0.26000000E+00           0.00000000E+00
  -0.25000000E+00           0.00000000E+00
  -0.24000000E+00           0.00000000E+00
  -0.23000000E+00           0.00000000E+00
  -0.22000000E+00           0.00000000E+00
  -0.21000000E+00           0.00000000E+00
  -0.20000000E+00           0.00000000E+00
  -0.19000000E+00           0.00000000E+00
  -0.18000000E+00           0.00000000E+00
  -0.17000000E+00           0.00000000E+00
  -0.16000000E+00           0.00000000E+00
  -0.15000000E+00           0.00000000E+00
  -0.14000000E+00           0.00000000E+00
  -0.13000000E+00           0.00000000E+00
  -0.12000000E+00           0.00000000E+00
  -0.11000000E+00           0.00000000E+00
  -0.10000000E+00           0.00000000E+00
  -0.90000000E-01           0.00000000E+00
  -0.80000000E-01           0.00000000E+00
  -0.70000000E-01           0.00000000E+00
  -0.60000000E-01           0.00000000E+00
  -0.50000000E-01           0.00000000E+00
  -0.40000000E-01           0.00000000E+00
  -0.30000000E-01           0.00000000E+00
  -0.20000000E-01           0.00000000E+00
  -0.10000000E-01           0.00000000E+00
   0.00000000E+00           0.10927300E-01
   0.10000000E-01           0.87450900E-01
   0.20000000E-01           0.17347570E+00
   0.30000000E-01           0.26002990E+00
   0.40000000E-01           0.34617150E+00
   0.50000000E-01           0.43269410E+00
   0.60000000E-01           0.51640000E+00
   0.70000000E-01           0.59806990E+00
   0.80000000E-01           0.67885640E+00
   0.90000000E-01           0.75666800E+00
   0.10000000E+00           0.83621720E+00
   0.11000000E+00           0.91290650E+00
   0.12000000E+00           0.98597400E+00
   0.13000000E+00           0.10577056E+01
   0.14000000E+00           0.11253470E+01
   0.15000000E+00           0.11892660E+01
   0.16000000E+00           0.12538504E+01
   0.17000000E+00           0.13141968E+01
   0.18000000E+00           0.13703432E+01
   0.19000000E+00           0.14226156E+01
   0.20000000E+00           0.14748040E+01
   0.21000000E+00           0.15206750E+01
   0.22000000E+00           0.15654611E+01
   0.23000000E+00           0.16047908E+01
   0.24000000E+00           0.16430168E+01
   0.25000000E+00           0.16740584E+01
   0.26000000E+00           0.17044009E+01
   0.27000000E+00           0.17303805E+01
   0.28000000E+00           0.17525813E+01
   0.29000000E+00           0.17719111E+01
   0.30000000E+00           0.17913793E+01
   0.31000000E+00           0.18009792E+01
   0.32000000E+00           0.18077790E+01
   0.33000000E+00           0.18160357E+01
   0.34000000E+00           0.18168134E+01
   0.35000000E+00           0.18156371E+01
   0.36000000E+00           0.18115347E+01
   0.37000000E+00           0.18044615E+01
   0.38000000E+00           0.17957128E+01
   0.39000000E+00           0.17821023E+01
   0.40000000E+00           0.17674691E+01
   0.41000000E+00           0.17478773E+01
   0.42000000E+00           0.17269313E+01
   0.43000000E+00           0.17050675E+01
   0.44000000E+00           0.16794813E+01
   0.45000000E+00           0.16522472E+01
   0.46000000E+00           0.16262515E+01
   0.47000000E+00           0.15955704E+01
   0.48000000E+00           0.15610131E+01
   0.49000000E+00           0.15291939E+01
   0.50000000E+00           0.14922025E+01
   0.51000000E+00           0.14557916E+01
   0.52000000E+00           0.14203189E+01
   0.53000000E+00           0.13833518E+01
   0.54000000E+00           0.13428620E+01
   0.55000000E+00           0.13042515E+01
   0.56000000E+00           0.12621236E+01
   0.57000000E+00           0.12247698E+01
   0.58000000E+00           0.11839149E+01
   0.59000000E+00           0.11436545E+01
   0.60000000E+00           0.11010351E+01
   0.61000000E+00           0.10631172E+01
   0.62000000E+00           0.10217202E+01
   0.63000000E+00           0.98197390E+00
   0.64000000E+00           0.94080990E+00
   0.65000000E+00           0.90383590E+00
   0.66000000E+00           0.86401820E+00
   0.67000000E+00           0.82559420E+00
   0.68000000E+00           0.78713440E+00
   0.69000000E+00           0.75122240E+00
   0.70000000E+00           0.71449700E+00
   0.71000000E+00           0.68024610E+00
   0.72000000E+00           0.64694000E+00
   0.73000000E+00           0.61250530E+00
   0.74000000E+00           0.58014730E+00
   0.75000000E+00           0.55058710E+00
   0.76000000E+00           0.51945090E+00
   0.77000000E+00           0.49022400E+00
   0.78000000E+00           0.46206320E+00
   0.79000000E+00           0.43516310E+00
   0.80000000E+00           0.40882500E+00
   0.81000000E+00           0.38388400E+00
   0.82000000E+00           0.35993530E+00
   0.83000000E+00           0.33675390E+00
   0.84000000E+00           0.31526930E+00
   0.85000000E+00           0.29387300E+00
   0.86000000E+00           0.27441870E+00
   0.87000000E+00           0.25533130E+00
   0.88000000E+00           0.23710010E+00
   0.89000000E+00           0.22110250E+00
   0.90000000E+00           0.20464550E+00
   0.91000000E+00           0.18946070E+00
   0.92000000E+00           0.17519640E+00
   0.93000000E+00           0.16294940E+00
   0.94000000E+00           0.14922560E+00
   0.95000000E+00           0.13744550E+00
   0.96000000E+00           0.12673170E+00
   0.97000000E+00           0.11651690E+00
   0.98000000E+00           0.10661160E+00
   0.99000000E+00           0.97651700E-01
   0.10000000E+01           0.89143200E-01
   0.10100000E+01           0.81448500E-01
   0.10200000E+01           0.74346700E-01
   0.10300000E+01           0.67365300E-01
   0.10400000E+01           0.61122700E-01
   0.10500000E+01           0.55746800E-01
   0.10600000E+01           0.50566900E-01
   0.10700000E+01           0.45735900E-01
   0.10800000E+01           0.40840500E-01
   0.10900000E+01           0.37093600E-01
   0.11000000E+01           0.33334300E-01
   0.11100000E+01           0.29894700E-01
   0.11200000E+01           0.26676900E-01
   0.11300000E+01           0.24153600E-01
   0.11400000E+01           0.21411700E-01
   0.11500000E+01           0.19106300E-01
   0.11600000E+01           0.17106700E-01
   0.11700000E+01           0.15058000E-01
   0.11800000E+01           0.13663300E-01
   0.11900000E+01           0.11759700E-01
   0.12000000E+01           0.10497900E-01
   0.12100000E+01           0.92050000E-02
   0.12200000E+01           0.82505000E-02
   0.12300000E+01           0.71226000E-02
   0.12400000E+01           0.62659000E-02
   0.12500000E+01           0.55163000E-02
   0.12600000E+01           0.48512000E-02
   0.12700000E+01           0.42261000E-02
   0.12800000E+01           0.37322000E-02
   0.12900000E+01           0.31447000E-02
   0.13000000E+01           0.27760000E-02
   0.13100000E+01           0.23183000E-02
   0.13200000E+01           0.20130000E-02
   0.13300000E+01           0.17861000E-02
   0.13400000E+01           0.14837000E-02
   0.13500000E+01           0.12644000E-02
   0.13600000E+01           0.10614000E-02
   0.13700000E+01           0.91990000E-03
   0.13800000E+01           0.78190000E-03
   0.13900000E+01           0.67640000E-03
   0.14000000E+01           0.56440000E-03
   0.14100000E+01           0.48600000E-03
   0.14200000E+01           0.39470000E-03
   0.14300000E+01           0.32610000E-03
   0.14400000E+01           0.29050000E-03
   0.14500000E+01           0.21160000E-03
   0.14600000E+01           0.18070000E-03
   0.14700000E+01           0.15530000E-03
   0.14800000E+01           0.13150000E-03
   0.14900000E+01           0.11230000E-03
   0.15000000E+01           0.90600000E-04
   0.15100000E+01           0.63900000E-04
   0.15200000E+01           0.58200000E-04
   0.15300000E+01           0.48200000E-04
   0.15400000E+01           0.31700000E-04
   0.15500000E+01           0.32300000E-04
   0.15600000E+01           0.23900000E-04
   0.15700000E+01           0.20600000E-04
   0.15800000E+01           0.17100000E-04
   0.15900000E+01           0.95000000E-05
   0.16000000E+01           0.10100000E-04
   0.16100000E+01           0.81000000E-05
   0.16200000E+01           0.71000000E-05
   0.16300000E+01           0.32000000E-05
   0.16400000E+01           0.31000000E-05
   0.16500000E+01           0.33000000E-05
   0.16600000E+01           0.19000000E-05
   0.16700000E+01           0.15000000E-05
   0.16800000E+01           0.60000000E-06
   0.16900000E+01           0.20000000E-05
   0.17000000E+01           0.10000000E-05
   0.17100000E+01           0.90000000E-06
   0.17200000E+01           0.40000000E-06
   0.17300000E+01           0.10000000E-06
   0.17400000E+01           0.60000000E-06
   0.17500000E+01           0.10000000E-06
   0.17600000E+01           0.00000000E+00
   0.17700000E+01           0.00000000E+00
   0.17800000E+01           0.00000000E+00
   0.17900000E+01           0.00000000E+00
   0.18000000E+01           0.00000000E+00
   0.18100000E+01           0.00000000E+00
   0.18200000E+01           0.00000000E+00
   0.18300000E+01           0.00000000E+00
   0.18400000E+01           0.00000000E+00
   0.18500000E+01           0.00000000E+00
   0.18600000E+01           0.00000000E+00
   0.18700000E+01           0.00000000E+00
   0.18800000E+01           0.00000000E+00
   0.18900000E+01           0.00000000E+00
   0.19000000E+01           0.00000000E+00
   0.19100000E+01           0.00000000E+00
   0.19200000E+01           0.00000000E+00
   0.19300000E+01           0.00000000E+00
   0.19400000E+01           0.00000000E+00
   0.19500000E+01           0.00000000E+00
   0.19600000E+01           0.00000000E+00
   0.19700000E+01           0.00000000E+00
   0.19800000E+01           0.00000000E+00
   0.19900000E+01           0.00000000E+00
   0.20000000E+01           0.00000000E+00
 #T=     8.0000
  -0.20000000E+01           0.00000000E+00
  -0.19900000E+01           0.00000000E+00
  -0.19800000E+01           0.00000000E+00
  -0.19700000E+01           0.00000000E+00
  -0.19600000E+01           0.00000000E+00
  -0.19500000E+01           0.00000000E+00
  -0.19400000E+01           0.00000000E+00
  -0.19300000E+01           0.00000000E+00
  -0.19200000E+01           0.00000000E+00
  -0.19100000E+01           0.00000000E+00
  -0.19000000E+01           0.00000000E+00
  -0.18900000E+01           0.00000000E+00
  -0.18800000E+01           0.00000000E+00
  -0.18700000E+01           0.00000000E+00
  -0.18600000E+01           0.00000000E+00
  -0.18500000E+01           0.00000000E+00
  -0.18400000E+01           0.00000000E+00
  -0.18300000E+01           0.00000000E+00
  -0.18200000E+01           0.00000000E+00
  -0.18100000E+01           0.00000000E+00
  -0.18000000E+01           0.00000000E+00
  -0.17900000E+01           0.00000000E+00
  -0.17800000E+01           0.00000000E+00
  -0.17700000E+01           0.00000000E+00
  -0.17600000E+01           0.00000000E+00
  -0.17500000E+01           0.00000000E+00
  -0.17400000E+01           0.00000000E+00
  -0.17300000E+01           0.00000000E+00
  -0.17200000E+01           0.00000000E+00
  -0.17100000E+01           0.00000000E+00
  -0.17000000E+01           0.00000000E+00
  -0.16900000E+01           0.00000000E+00
  -0.16800000E+01           0.00000000E+00
  -0.16700000E+01           0.00000000E+00
  -0.16600000E+01           0.00000000E+00
  -0.16500000E+01           0.00000000E+00
  -0.16400000E+01           0.00000000E+00
  -0.16300000E+01           0.00000000E+00
  -0.16200000E+01           0.00000000E+00
  -0.16100000E+01           0.00000000E+00
  -0.16000000E+01           0.00000000E+00
  -0.15900000E+01           0.00000000E+00
  -0.15800000E+01           0.00000000E+00
  -0.15700000E+01           0.00000000E+00
  -0.15600000E+01           0.00000000E+00
  -0.15500000E+01           0.00000000E+00
  -0.15400000E+01           0.00000000E+00
  -0.15300000E+01           0.00000000E+00
  -0.15200000E+01           0.00000000E+00
  -0.15100000E+01           0.00000000E+00
  -0.15000000E+01           0.00000000E+00
  -0.14900000E+01           0.00000000E+00
  -0.14800000E+01           0.00000000E+00
  -0.14700000E+01           0.00000000E+00
  -0.14600000E+01           0.00000000E+00
  -0.14500000E+01           0.00000000E+00
  -0.14400000E+01           0.00000000E+00
  -0.14300000E+01           0.00000000E+00
  -0.14200000E+01           0.00000000E+00
  -0.14100000E+01           0.00000000E+00
  -0.14000000E+01           0.00000000E+00
  -0.13900000E+01           0.00000000E+00
  -0.13800000E+01           0.00000000E+00
  -0.13700000E+01           0.00000000E+00
  -0.13600000E+01           0.00000000E+00
  -0.13500000E+01           0.00000000E+00
  -0.13400000E+01           0.00000000E+00
  -0.13300000E+01           0.00000000E+00
  -0.13200000E+01           0.00000000E+00
  -0.13100000E+01           0.00000000E+00
  -0.13000000E+01           0.00000000E+00
  -0.12900000E+01           0.00000000E+00
  -0.12800000E+01           0.00000000E+00
  -0.12700000E+01           0.00000000E+00
  -0.12600000E+01           0.00000000E+00
  -0.12500000E+01           0.00000000E+00
  -0.12400000E+01           0.00000000E+00
  -0.12300000E+01           0.00000000E+00
  -0.12200000E+01           0.00000000E+00
  -0.12100000E+01           0.00000000E+00
  -0.12000000E+01           0.00000000E+00
  -0.11900000E+01           0.00000000E+00
  -0.11800000E+01           0.00000000E+00
  -0.11700000E+01           0.00000000E+00
  -0.11600000E+01           0.00000000E+00
  -0.11500000E+01           0.00000000E+00
  -0.11400000E+01           0.00000000E+00
  -0.11300000E+01           0.00000000E+00
  -0.11200000E+01           0.00000000E+00
  -0.11100000E+01           0.00000000E+00
  -0.11000000E+01           0.00000000E+00
  -0.10900000E+01           0.00000000E+00
  -0.10800000E+01           0.00000000E+00
  -0.10700000E+01           0.00000000E+00
  -0.10600000E+01           0.00000000E+00
  -0.10500000E+01           0.00000000E+00
  -0.10400000E+01           0.00000000E+00
  -0.10300000E+01           0.00000000E+00
  -0.10200000E+01           0.00000000E+00
  -0.10100000E+01           0.00000000E+00
  -0.10000000E+01           0.00000000E+00
  -0.99000000E+00           0.00000000E+00
  -0.98000000E+00           0.00000000E+00
  -0.97000000E+00           0.00000000E+00
  -0.96000000E+00           0.00000000E+00
  -0.95000000E+00           0.00000000E+00
  -0.94000000E+00           0.00000000E+00
  -0.93000000E+00           0.00000000E+00
  -0.92000000E+00           0.00000000E+00
  -0.91000000E+00           0.00000000E+00
  -0.90000000E+00           0.00000000E+00
  -0.89000000E+00           0.00000000E+00
  -0.88000000E+00           0.00000000E+00
  -0.87000000E+00           0.00000000E+00
  -0.86000000E+00           0.00000000E+00
  -0.85000000E+00           0.00000000E+00
  -0.84000000E+00           0.00000000E+00
  -0.83000000E+00           0.00000000E+00
  -0.82000000E+00           0.00000000E+00
  -0.81000000E+00           0.00000000E+00
  -0.80000000E+00           0.00000000E+00
  -0.79000000E+00           0.00000000E+00
  -0.78000000E+00           0.00000000E+00
  -0.77000000E+00           0.00000000E+00
  -0.76000000E+00           0.00000000E+00
  -0.75000000E+00           0.00000000E+00
  -0.74000000E+00           0.00000000E+00
  -0.73000000E+00           0.00000000E+00
  -0.72000000E+00           0.00000000E+00
  -0.71000000E+00           0.00000000E+00
  -0.70000000E+00           0.00000000E+00
  -0.69000000E+00           0.00000000E+00
  -0.68000000E+00           0.00000000E+00
  -0.67000000E+00           0.00000000E+00
  -0.66000000E+00           0.00000000E+00
  -0.65000000E+00           0.00000000E+00
  -0.64000000E+00           0.00000000E+00
  -0.63000000E+00           0.00000000E+00
  -0.62000000E+00           0.00000000E+00
  -0.61000000E+00           0.00000000E+00
  -0.60000000E+00           0.00000000E+00
  -0.59000000E+00           0.00000000E+00
  -0.58000000E+00           0.00000000E+00
  -0.57000000E+00           0.00000000E+00
  -0.56000000E+00           0.00000000E+00
  -0.55000000E+00           0.00000000E+00
  -0.54000000E+00           0.00000000E+00
  -0.53000000E+00           0.00000000E+00
  -0.52000000E+00           0.00000000E+00
  -0.51000000E+00           0.00000000E+00
  -0.50000000E+00           0.00000000E+00
  -0.49000000E+00           0.00000000E+00
  -0.48000000E+00           0.00000000E+00
  -0.47000000E+00           0.00000000E+00
  -0.46000000E+00           0.00000000E+00
  -0.45000000E+00           0.00000000E+00
  -0.44000000E+00           0.00000000E+00
  -0.43000000E+00           0.00000000E+00
  -0.42000000E+00           0.00000000E+00
  -0.41000000E+00           0.00000000E+00
  -0.40000000E+00           0.00000000E+00
  -0.39000000E+00           0.00000000E+00
  -0.38000000E+00           0.00000000E+00
  -0.37000000E+00           0.00000000E+00
  -0.36000000E+00           0.00000000E+00
  -0.35000000E+00           0.00000000E+00
  -0.34000000E+00           0.00000000E+00
  -0.33000000E+00           0.00000000E+00
  -0.32000000E+00           0.00000000E+00
  -0.31000000E+00           0.00000000E+00
  -0.30000000E+00           0.00000000E+00
  -0.29000000E+00           0.00000000E+00
  -0.28000000E+00           0.00000000E+00
  -0.27000000E+00           0.00000000E+00
  -0.26000000E+00           0.00000000E+00
  -0.25000000E+00           0.00000000E+00
  -0.24000000E+00           0.00000000E+00
  -0.23000000E+00           0.00000000E+00
  -0.22000000E+00           0.00000000E+00
  -0.21000000E+00           0.00000000E+00
  -0.20000000E+00           0.00000000E+00
  -0.19000000E+00           0.00000000E+00
  -0.18000000E+00           0.00000000E+00
  -0.17000000E+00           0.00000000E+00
  -0.16000000E+00           0.00000000E+00
  -0.15000000E+00           0.00000000E+00
  -0.14000000E+00           0.00000000E+00
  -0.13000000E+00           0.00000000E+00
  -0.12000000E+00           0.00000000E+00
  -0.11000000E+00           0.00000000E+00
  -0.10000000E+00           0.00000000E+00
  -0.90000000E-01           0.00000000E+00
  -0.80000000E-01           0.00000000E+00
  -0.70000000E-01           0.00000000E+00
  -0.60000000E-01           0.00000000E+00
  -0.50000000E-01           0.00000000E+00
  -0.40000000E-01           0.00000000E+00
  -0.30000000E-01           0.00000000E+00
  -0.20000000E-01           0.00000000E+00
  -0.10000000E-01           0.00000000E+00
   0.00000000E+00           0.96800000E-02
   0.10000000E-01           0.76194000E-01
   0.20000000E-01           0.15183790E+00
   0.30000000E-01           0.22708510E+00
   0.40000000E-01           0.30322420E+00
   0.50000000E-01           0.37750350E+00
   0.60000000E-01           0.45101930E+00
   0.70000000E-01           0.52328510E+00
   0.80000000E-01           0.59439530E+00
   0.90000000E-01           0.66551320E+00
   0.10000000E+00           0.73390510E+00
   0.11000000E+00           0.80015100E+00
   0.12000000E+00           0.86715980E+00
   0.13000000E+00           0.93037420E+00
   0.14000000E+00           0.99244700E+00
   0.15000000E+00           0.10505456E+01
   0.16000000E+00           0.11095346E+01
   0.17000000E+00           0.11670030E+01
   0.18000000E+00           0.12191277E+01
   0.19000000E+00           0.12668525E+01
   0.20000000E+00           0.13170054E+01
   0.21000000E+00           0.13594836E+01
   0.22000000E+00           0.14031775E+01
   0.23000000E+00           0.14428429E+01
   0.24000000E+00           0.14809364E+01
   0.25000000E+00           0.15130870E+01
   0.26000000E+00           0.15457941E+01
   0.27000000E+00           0.15724444E+01
   0.28000000E+00           0.15979541E+01
   0.29000000E+00           0.16200600E+01
   0.30000000E+00           0.16418043E+01
   0.31000000E+00           0.16580675E+01
   0.32000000E+00           0.16722593E+01
   0.33000000E+00           0.16840731E+01
   0.34000000E+00           0.16910426E+01
   0.35000000E+00           0.16980471E+01
   0.36000000E+00           0.17004885E+01
   0.37000000E+00           0.17004186E+01
   0.38000000E+00           0.16983106E+01
   0.39000000E+00           0.16948463E+01
   0.40000000E+00           0.16868417E+01
   0.41000000E+00           0.16787807E+01
   0.42000000E+00           0.16660046E+01
   0.43000000E+00           0.16511375E+01
   0.44000000E+00           0.16359784E+01
   0.45000000E+00           0.16178068E+01
   0.46000000E+00           0.15988578E+01
   0.47000000E+00           0.15763350E+01
   0.48000000E+00           0.15511236E+01
   0.49000000E+00           0.15277255E+01
   0.50000000E+00           0.15036676E+01
   0.51000000E+00           0.14741060E+01
   0.52000000E+00           0.14452639E+01
   0.53000000E+00           0.14138707E+01
   0.54000000E+00           0.13854483E+01
   0.55000000E+00           0.13518664E+01
   0.56000000E+00           0.13206378E+01
   0.57000000E+00           0.12865496E+01
   0.58000000E+00           0.12521778E+01
   0.59000000E+00           0.12176230E+01
   0.60000000E+00           0.11826596E+01
   0.61000000E+00           0.11471822E+01
   0.62000000E+00           0.11125745E+01
   0.63000000E+00           0.10767846E+01
   0.64000000E+00           0.10389159E+01
   0.65000000E+00           0.10041558E+01
   0.66000000E+00           0.96853840E+00
   0.67000000E+00           0.93439790E+00
   0.68000000E+00           0.89860820E+00
   0.69000000E+00           0.86300240E+00
   0.70000000E+00           0.82820020E+00
   0.71000000E+00           0.79527310E+00
   0.72000000E+00           0.76109290E+00
   0.73000000E+00           0.72929160E+00
   0.74000000E+00           0.69695800E+00
   0.75000000E+00           0.66740850E+00
   0.76000000E+00           0.63453310E+00
   0.77000000E+00           0.60514970E+00
   0.78000000E+00           0.57499590E+00
   0.79000000E+00           0.54788100E+00
   0.80000000E+00           0.51822580E+00
   0.81000000E+00           0.49200620E+00
   0.82000000E+00           0.46546670E+00
   0.83000000E+00           0.44187350E+00
   0.84000000E+00           0.41625270E+00
   0.85000000E+00           0.39305300E+00
   0.86000000E+00           0.37131760E+00
   0.87000000E+00           0.34907840E+00
   0.88000000E+00           0.32799910E+00
   0.89000000E+00           0.30805090E+00
   0.90000000E+00           0.28892680E+00
   0.91000000E+00           0.27140200E+00
   0.92000000E+00           0.25322610E+00
   0.93000000E+00           0.23722860E+00
   0.94000000E+00           0.22111020E+00
   0.95000000E+00           0.20619740E+00
   0.96000000E+00           0.19194020E+00
   0.97000000E+00           0.17864700E+00
   0.98000000E+00           0.16550910E+00
   0.99000000E+00           0.15359980E+00
   0.10000000E+01           0.14232480E+00
   0.10100000E+01           0.13173240E+00
   0.10200000E+01           0.12163520E+00
   0.10300000E+01           0.11280900E+00
   0.10400000E+01           0.10346530E+00
   0.10500000E+01           0.95302300E-01
   0.10600000E+01           0.87291900E-01
   0.10700000E+01           0.79810700E-01
   0.10800000E+01           0.73207200E-01
   0.10900000E+01           0.67510900E-01
   0.11000000E+01           0.61208600E-01
   0.11100000E+01           0.56009800E-01
   0.11200000E+01           0.50992700E-01
   0.11300000E+01           0.46571400E-01
   0.11400000E+01           0.42298600E-01
   0.11500000E+01           0.38307000E-01
   0.11600000E+01           0.34897300E-01
   0.11700000E+01           0.31210200E-01
   0.11800000E+01           0.28379700E-01
   0.11900000E+01           0.25310100E-01
   0.12000000E+01           0.23089300E-01
   0.12100000E+01           0.20489000E-01
   0.12200000E+01           0.18266000E-01
   0.12300000E+01           0.16413600E-01
   0.12400000E+01           0.14816300E-01
   0.12500000E+01           0.13145500E-01
   0.12600000E+01           0.11704500E-01
   0.12700000E+01           0.10374700E-01
   0.12800000E+01           0.91578000E-02
   0.12900000E+01           0.81349000E-02
   0.13000000E+01           0.71779000E-02
   0.13100000E+01           0.62227000E-02
   0.13200000E+01           0.54586000E-02
   0.13300000E+01           0.49499000E-02
   0.13400000E+01           0.42830000E-02
   0.13500000E+01           0.37223000E-02
   0.13600000E+01           0.32870000E-02
   0.13700000E+01           0.27854000E-02
   0.13800000E+01           0.24511000E-02
   0.13900000E+01           0.21565000E-02
   0.14000000E+01           0.18388000E-02
   0.14100000E+01           0.15456000E-02
   0.14200000E+01           0.13396000E-02
   0.14300000E+01           0.11694000E-02
   0.14400000E+01           0.10365000E-02
   0.14500000E+01           0.85830000E-03
   0.14600000E+01           0.71000000E-03
   0.14700000E+01           0.61230000E-03
   0.14800000E+01           0.50540000E-03
   0.14900000E+01           0.43050000E-03
   0.15000000E+01           0.36010000E-03
   0.15100000E+01           0.30520000E-03
   0.15200000E+01           0.26460000E-03
   0.15300000E+01           0.22260000E-03
   0.15400000E+01           0.18000000E-03
   0.15500000E+01           0.14730000E-03
   0.15600000E+01           0.12020000E-03
   0.15700000E+01           0.97000000E-04
   0.15800000E+01           0.75400000E-04
   0.15900000E+01           0.67100000E-04
   0.16000000E+01           0.48400000E-04
   0.16100000E+01           0.42300000E-04
   0.16200000E+01           0.33200000E-04
   0.16300000E+01           0.29400000E-04
   0.16400000E+01           0.18200000E-04
   0.16500000E+01           0.17700000E-04
   0.16600000E+01           0.14800000E-04
   0.16700000E+01           0.11400000E-04
   0.16800000E+01           0.11100000E-04
   0.16900000E+01           0.69000000E-05
   0.17000000E+01           0.45000000E-05
   0.17100000E+01           0.49000000E-05
   0.17200000E+01           0.33000000E-05
   0.17300000E+01           0.19000000E-05
   0.17400000E+01           0.11000000E-05
   0.17500000E+01           0.16000000E-05
   0.17600000E+01           0.13000000E-05
   0.17700000E+01           0.20000000E-06
   0.17800000E+01           0.20000000E-06
   0.17900000E+01           0.90000000E-06
   0.18000000E+01           0.00000000E+00
   0.18100000E+01           0.30000000E-06
   0.18200000E+01           0.40000000E-06
   0.18300000E+01           0.00000000E+00
   0.18400000E+01           0.00000000E+00
   0.18500000E+01           0.00000000E+00
   0.18600000E+01           0.00000000E+00
   0.18700000E+01           0.20000000E-06
   0.18800000E+01           0.00000000E+00
   0.18900000E+01           0.00000000E+00
   0.19000000E+01           0.10000000E-06
   0.19100000E+01           0.00000000E+00
   0.19200000E+01           0.00000000E+00
   0.19300000E+01           0.00000000E+00
   0.19400000E+01           0.00000000E+00
   0.19500000E+01           0.00000000E+00
   0.19600000E+01           0.00000000E+00
   0.19700000E+01           0.00000000E+00
   0.19800000E+01           0.00000000E+00
   0.19900000E+01           0.00000000E+00
   0.20000000E+01           0.00000000E+00
 #T=     9.0000
  -0.20000000E+01           0.00000000E+00
  -0.19900000E+01           0.00000000E+00
  -0.19800000E+01           0.00000000E+00
  -0.19700000E+01           0.00000000E+00
  -0.19600000E+01           0.00000000E+00
  -0.19500000E+01           0.00000000E+00
  -0.19400000E+01           0.00000000E+00
  -0.19300000E+01           0.00000000E+00
  -0.19200000E+01           0.00000000E+00
  -0.19100000E+01           0.00000000E+00
  -0.19000000E+01           0.00000000E+00
  -0.18900000E+01           0.00000000E+00
  -0.18800000E+01           0.00000000E+00
  -0.18700000E+01           0.00000000E+00
  -0.18600000E+01           0.00000000E+00
  -0.18500000E+01           0.00000000E+00
  -0.18400000E+01           0.00000000E+00
  -0.18300000E+01           0.00000000E+00
  -0.18200000E+01           0.00000000E+00
  -0.18100000E+01           0.00000000E+00
  -0.18000000E+01           0.00000000E+00
  -0.17900000E+01           0.00000000E+00
  -0.17800000E+01           0.00000000E+00
  -0.17700000E+01           0.00000000E+00
  -0.17600000E+01           0.00000000E+00
  -0.17500000E+01           0.00000000E+00
  -0.17400000E+01           0.00000000E+00
  -0.17300000E+01           0.00000000E+00
  -0.17200000E+01           0.00000000E+00
  -0.17100000E+01           0.00000000E+00
  -0.17000000E+01           0.00000000E+00
  -0.16900000E+01           0.00000000E+00
  -0.16800000E+01           0.00000000E+00
  -0.16700000E+01           0.00000000E+00
  -0.16600000E+01           0.00000000E+00
  -0.16500000E+01           0.00000000E+00
  -0.16400000E+01           0.00000000E+00
  -0.16300000E+01           0.00000000E+00
  -0.16200000E+01           0.00000000E+00
  -0.16100000E+01           0.00000000E+00
  -0.16000000E+01           0.00000000E+00
  -0.15900000E+01           0.00000000E+00
  -0.15800000E+01           0.00000000E+00
  -0.15700000E+01           0.00000000E+00
  -0.15600000E+01           0.00000000E+00
  -0.15500000E+01           0.00000000E+00
  -0.15400000E+01           0.00000000E+00
  -0.15300000E+01           0.00000000E+00
  -0.15200000E+01           0.00000000E+00
  -0.15100000E+01           0.00000000E+00
  -0.15000000E+01           0.00000000E+00
  -0.14900000E+01           0.00000000E+00
  -0.14800000E+01           0.00000000E+00
  -0.14700000E+01           0.00000000E+00
  -0.14600000E+01           0.00000000E+00
  -0.14500000E+01           0.00000000E+00
  -0.14400000E+01           0.00000000E+00
  -0.14300000E+01           0.00000000E+00
  -0.14200000E+01           0.00000000E+00
  -0.14100000E+01           0.00000000E+00
  -0.14000000E+01           0.00000000E+00
  -0.13900000E+01           0.00000000E+00
  -0.13800000E+01           0.00000000E+00
  -0.13700000E+01           0.00000000E+00
  -0.13600000E+01           0.00000000E+00
  -0.13500000E+01           0.00000000E+00
  -0.13400000E+01           0.00000000E+00
  -0.13300000E+01           0.00000000E+00
  -0.13200000E+01           0.00000000E+00
  -0.13100000E+01           0.00000000E+00
  -0.13000000E+01           0.00000000E+00
  -0.12900000E+01           0.00000000E+00
  -0.12800000E+01           0.00000000E+00
  -0.12700000E+01           0.00000000E+00
  -0.12600000E+01           0.00000000E+00
  -0.12500000E+01           0.00000000E+00
  -0.12400000E+01           0.00000000E+00
  -0.12300000E+01           0.00000000E+00
  -0.12200000E+01           0.00000000E+00
  -0.12100000E+01           0.00000000E+00
  -0.12000000E+01           0.00000000E+00
  -0.11900000E+01           0.00000000E+00
  -0.11800000E+01           0.00000000E+00
  -0.11700000E+01           0.00000000E+00
  -0.11600000E+01           0.00000000E+00
  -0.11500000E+01           0.00000000E+00
  -0.11400000E+01           0.00000000E+00
  -0.11300000E+01           0.00000000E+00
  -0.11200000E+01           0.00000000E+00
  -0.11100000E+01           0.00000000E+00
  -0.11000000E+01           0.00000000E+00
  -0.10900000E+01           0.00000000E+00
  -0.10800000E+01           0.00000000E+00
  -0.10700000E+01           0.00000000E+00
  -0.10600000E+01           0.00000000E+00
  -0.10500000E+01           0.00000000E+00
  -0.10400000E+01           0.00000000E+00
  -0.10300000E+01           0.00000000E+00
  -0.10200000E+01           0.00000000E+00
  -0.10100000E+01           0.00000000E+00
  -0.10000000E+01           0.00000000E+00
  -0.99000000E+00           0.00000000E+00
  -0.98000000E+00           0.00000000E+00
  -0.97000000E+00           0.00000000E+00
  -0.96000000E+00           0.00000000E+00
  -0.95000000E+00           0.00000000E+00
  -0.94000000E+00           0.00000000E+00
  -0.93000000E+00           0.00000000E+00
  -0.92000000E+00           0.00000000E+00
  -0.91000000E+00           0.00000000E+00
  -0.90000000E+00           0.00000000E+00
  -0.89000000E+00           0.00000000E+00
  -0.88000000E+00           0.00000000E+00
  -0.87000000E+00           0.00000000E+00
  -0.86000000E+00           0.00000000E+00
  -0.85000000E+00           0.00000000E+00
  -0.84000000E+00           0.00000000E+00
  -0.83000000E+00           0.00000000E+00
  -0.82000000E+00           0.00000000E+00
  -0.81000000E+00           0.00000000E+00
  -0.80000000E+00           0.00000000E+00
  -0.79000000E+00           0.00000000E+00
  -0.78000000E+00           0.00000000E+00
  -0.77000000E+00           0.00000000E+00
  -0.76000000E+00           0.00000000E+00
  -0.75000000E+00           0.00000000E+00
  -0.74000000E+00           0.00000000E+00
  -0.73000000E+00           0.00000000E+00
  -0.72000000E+00           0.00000000E+00
  -0.71000000E+00           0.00000000E+00
  -0.70000000E+00           0.00000000E+00
  -0.69000000E+00           0.00000000E+00
  -0.68000000E+00           0.00000000E+00
  -0.67000000E+00           0.00000000E+00
  -0.66000000E+00           0.00000000E+00
  -0.65000000E+00           0.00000000E+00
  -0.64000000E+00           0.00000000E+00
  -0.63000000E+00           0.00000000E+00
  -0.62000000E+00           0.00000000E+00
  -0.61000000E+00           0.00000000E+00
  -0.60000000E+00           0.00000000E+00
  -0.59000000E+00           0.00000000E+00
  -0.58000000E+00           0.00000000E+00
  -0.57000000E+00           0.00000000E+00
  -0.56000000E+00           0.00000000E+00
  -0.55000000E+00           0.00000000E+00
  -0.54000000E+00           0.00000000E+00
  -0.53000000E+00           0.00000000E+00
  -0.52000000E+00           0.00000000E+00
  -0.51000000E+00           0.00000000E+00
  -0.50000000E+00           0.00000000E+00
  -0.49000000E+00           0.00000000E+00
  -0.48000000E+00           0.00000000E+00
  -0.47000000E+00           0.00000000E+00
  -0.46000000E+00           0.00000000E+00
  -0.45000000E+00           0.00000000E+00
  -0.44000000E+00           0.00000000E+00
  -0.43000000E+00           0.00000000E+00
  -0.42000000E+00           0.00000000E+00
  -0.41000000E+00           0.00000000E+00
  -0.40000000E+00           0.00000000E+00
  -0.39000000E+00           0.00000000E+00
  -0.38000000E+00           0.00000000E+00
  -0.37000000E+00           0.00000000E+00
  -0.36000000E+00           0.00000000E+00
  -0.35000000E+00           0.00000000E+00
  -0.34000000E+00           0.00000000E+00
  -0.33000000E+00           0.00000000E+00
  -0.32000000E+00           0.00000000E+00
  -0.31000000E+00           0.00000000E+00
  -0.30000000E+00           0.00000000E+00
  -0.29000000E+00           0.00000000E+00
  -0.28000000E+00           0.00000000E+00
  -0.27000000E+00           0.00000000E+00
  -0.26000000E+00           0.00000000E+00
  -0.25000000E+00           0.00000000E+00
  -0.24000000E+00           0.00000000E+00
  -0.23000000E+00           0.00000000E+00
  -0.22000000E+00           0.00000000E+00
  -0.21000000E+00           0.00000000E+00
  -0.20000000E+00           0.00000000E+00
  -0.19000000E+00           0.00000000E+00
  -0.18000000E+00           0.00000000E+00
  -0.17000000E+00           0.00000000E+00
  -0.16000000E+00           0.00000000E+00
  -0.15000000E+00           0.00000000E+00
  -0.14000000E+00           0.00000000E+00
  -0.13000000E+00           0.00000000E+00
  -0.12000000E+00           0.00000000E+00
  -0.11000000E+00           0.00000000E+00
  -0.10000000E+00           0.00000000E+00
  -0.90000000E-01           0.00000000E+00
  -0.80000000E-01           0.00000000E+00
  -0.70000000E-01           0.00000000E+00
  -0.60000000E-01           0.00000000E+00
  -0.50000000E-01           0.00000000E+00
  -0.40000000E-01           0.00000000E+00
  -0.30000000E-01           0.00000000E+00
  -0.20000000E-01           0.00000000E+00
  -0.10000000E-01           0.00000000E+00
   0.00000000E+00           0.84945000E-02
   0.10000000E-01           0.67131200E-01
   0.20000000E-01           0.13443860E+00
   0.30000000E-01           0.20091250E+00
   0.40000000E-01           0.26803540E+00
   0.50000000E-01           0.33434910E+00
   0.60000000E-01           0.39947190E+00
   0.70000000E-01           0.46475250E+00
   0.80000000E-01           0.52798470E+00
   0.90000000E-01           0.59058020E+00
   0.10000000E+00           0.65301220E+00
   0.11000000E+00           0.71230880E+00
   0.12000000E+00           0.77132320E+00
   0.13000000E+00           0.82926330E+00
   0.14000000E+00           0.88573680E+00
   0.15000000E+00           0.94033310E+00
   0.16000000E+00           0.99372820E+00
   0.17000000E+00           0.10426590E+01
   0.18000000E+00           0.10920928E+01
   0.19000000E+00           0.11384222E+01
   0.20000000E+00           0.11828249E+01
   0.21000000E+00           0.12269031E+01
   0.22000000E+00           0.12659078E+01
   0.23000000E+00           0.13064573E+01
   0.24000000E+00           0.13421525E+01
   0.25000000E+00           0.13771331E+01
   0.26000000E+00           0.14087244E+01
   0.27000000E+00           0.14380016E+01
   0.28000000E+00           0.14650385E+01
   0.29000000E+00           0.14890988E+01
   0.30000000E+00           0.15098319E+01
   0.31000000E+00           0.15306602E+01
   0.32000000E+00           0.15473260E+01
   0.33000000E+00           0.15623337E+01
   0.34000000E+00           0.15751930E+01
   0.35000000E+00           0.15858573E+01
   0.36000000E+00           0.15924004E+01
   0.37000000E+00           0.16021628E+01
   0.38000000E+00           0.16023827E+01
   0.39000000E+00           0.16035558E+01
   0.40000000E+00           0.16007637E+01
   0.41000000E+00           0.15993745E+01
   0.42000000E+00           0.15939262E+01
   0.43000000E+00           0.15877562E+01
   0.44000000E+00           0.15782419E+01
   0.45000000E+00           0.15664125E+01
   0.46000000E+00           0.15543253E+01
   0.47000000E+00           0.15404260E+01
   0.48000000E+00           0.15250473E+01
   0.49000000E+00           0.15052947E+01
[...]
   0.13800000E+01           0.69012510E+00
   0.13900000E+01           0.69486670E+00
   0.14000000E+01           0.69993670E+00
   0.14100000E+01           0.70488980E+00
   0.14200000E+01           0.70963650E+00
   0.14300000E+01           0.71483660E+00
   0.14400000E+01           0.71975160E+00
   0.14500000E+01           0.72477000E+00
   0.14600000E+01           0.73029500E+00
   0.14700000E+01           0.73491060E+00
   0.14800000E+01           0.73952180E+00
   0.14900000E+01           0.74550730E+00
   0.15000000E+01           0.74985160E+00
   0.15100000E+01           0.75473540E+00
   0.15200000E+01           0.76022730E+00
   0.15300000E+01           0.76532840E+00
   0.15400000E+01           0.76969500E+00
   0.15500000E+01           0.77475630E+00
   0.15600000E+01           0.77963180E+00
   0.15700000E+01           0.78516970E+00
   0.15800000E+01           0.78976930E+00
   0.15900000E+01           0.79528880E+00
   0.16000000E+01           0.79925540E+00
   0.16100000E+01           0.80521670E+00
   0.16200000E+01           0.80982770E+00
   0.16300000E+01           0.81531390E+00
   0.16400000E+01           0.82018690E+00
   0.16500000E+01           0.82472820E+00
   0.16600000E+01           0.82967570E+00
   0.16700000E+01           0.83526400E+00
   0.16800000E+01           0.83968380E+00
   0.16900000E+01           0.84497390E+00
   0.17000000E+01           0.85011810E+00
   0.17100000E+01           0.85479150E+00
   0.17200000E+01           0.85988470E+00
   0.17300000E+01           0.86458110E+00
   0.17400000E+01           0.86972590E+00
   0.17500000E+01           0.87512870E+00
   0.17600000E+01           0.88030080E+00
   0.17700000E+01           0.88451360E+00
   0.17800000E+01           0.88977930E+00
   0.17900000E+01           0.89464660E+00
   0.18000000E+01           0.90004460E+00
   0.18100000E+01           0.90485170E+00
   0.18200000E+01           0.90993310E+00
   0.18300000E+01           0.91489740E+00
   0.18400000E+01           0.91936100E+00
   0.18500000E+01           0.92456340E+00
   0.18600000E+01           0.93010570E+00
   0.18700000E+01           0.93514180E+00
   0.18800000E+01           0.93992560E+00
   0.18900000E+01           0.94429460E+00
   0.19000000E+01           0.94948360E+00
   0.19100000E+01           0.95471190E+00
   0.19200000E+01           0.95936350E+00
   0.19300000E+01           0.96492020E+00
   0.19400000E+01           0.96981670E+00
   0.19500000E+01           0.97464420E+00
   0.19600000E+01           0.97971680E+00
   0.19700000E+01           0.98433460E+00
   0.19800000E+01           0.98966080E+00
   0.19900000E+01           0.99499490E+00
   0.20000000E+01           0.49942190E+00
 #T=    84.0000
  -0.20000000E+01           0.00000000E+00
  -0.19900000E+01           0.00000000E+00
  -0.19800000E+01           0.00000000E+00
  -0.19700000E+01           0.00000000E+00
  -0.19600000E+01           0.00000000E+00
  -0.19500000E+01           0.00000000E+00
  -0.19400000E+01           0.00000000E+00
  -0.19300000E+01           0.00000000E+00
  -0.19200000E+01           0.00000000E+00
  -0.19100000E+01           0.00000000E+00
  -0.19000000E+01           0.00000000E+00
  -0.18900000E+01           0.00000000E+00
  -0.18800000E+01           0.00000000E+00
  -0.18700000E+01           0.00000000E+00
  -0.18600000E+01           0.00000000E+00
  -0.18500000E+01           0.00000000E+00
  -0.18400000E+01           0.00000000E+00
  -0.18300000E+01           0.00000000E+00
  -0.18200000E+01           0.00000000E+00
  -0.18100000E+01           0.00000000E+00
  -0.18000000E+01           0.00000000E+00
  -0.17900000E+01           0.00000000E+00
  -0.17800000E+01           0.00000000E+00
  -0.17700000E+01           0.00000000E+00
  -0.17600000E+01           0.00000000E+00
  -0.17500000E+01           0.00000000E+00
  -0.17400000E+01           0.00000000E+00
  -0.17300000E+01           0.00000000E+00
  -0.17200000E+01           0.00000000E+00
  -0.17100000E+01           0.00000000E+00
  -0.17000000E+01           0.00000000E+00
  -0.16900000E+01           0.00000000E+00
  -0.16800000E+01           0.00000000E+00
  -0.16700000E+01           0.00000000E+00
  -0.16600000E+01           0.00000000E+00
  -0.16500000E+01           0.00000000E+00
  -0.16400000E+01           0.00000000E+00
  -0.16300000E+01           0.00000000E+00
  -0.16200000E+01           0.00000000E+00
  -0.16100000E+01           0.00000000E+00
  -0.16000000E+01           0.00000000E+00
  -0.15900000E+01           0.00000000E+00
  -0.15800000E+01           0.00000000E+00
  -0.15700000E+01           0.00000000E+00
  -0.15600000E+01           0.00000000E+00
  -0.15500000E+01           0.00000000E+00
  -0.15400000E+01           0.00000000E+00
  -0.15300000E+01           0.00000000E+00
  -0.15200000E+01           0.00000000E+00
  -0.15100000E+01           0.00000000E+00
  -0.15000000E+01           0.00000000E+00
  -0.14900000E+01           0.00000000E+00
  -0.14800000E+01           0.00000000E+00
  -0.14700000E+01           0.00000000E+00
  -0.14600000E+01           0.00000000E+00
  -0.14500000E+01           0.00000000E+00
  -0.14400000E+01           0.00000000E+00
  -0.14300000E+01           0.00000000E+00
  -0.14200000E+01           0.00000000E+00
  -0.14100000E+01           0.00000000E+00
  -0.14000000E+01           0.00000000E+00
  -0.13900000E+01           0.00000000E+00
  -0.13800000E+01           0.00000000E+00
  -0.13700000E+01           0.00000000E+00
  -0.13600000E+01           0.00000000E+00
  -0.13500000E+01           0.00000000E+00
  -0.13400000E+01           0.00000000E+00
  -0.13300000E+01           0.00000000E+00
  -0.13200000E+01           0.00000000E+00
  -0.13100000E+01           0.00000000E+00
  -0.13000000E+01           0.00000000E+00
  -0.12900000E+01           0.00000000E+00
  -0.12800000E+01           0.00000000E+00
  -0.12700000E+01           0.00000000E+00
  -0.12600000E+01           0.00000000E+00
  -0.12500000E+01           0.00000000E+00
  -0.12400000E+01           0.00000000E+00
  -0.12300000E+01           0.00000000E+00
  -0.12200000E+01           0.00000000E+00
  -0.12100000E+01           0.00000000E+00
  -0.12000000E+01           0.00000000E+00
  -0.11900000E+01           0.00000000E+00
  -0.11800000E+01           0.00000000E+00
  -0.11700000E+01           0.00000000E+00
  -0.11600000E+01           0.00000000E+00
  -0.11500000E+01           0.00000000E+00
  -0.11400000E+01           0.00000000E+00
  -0.11300000E+01           0.00000000E+00
  -0.11200000E+01           0.00000000E+00
  -0.11100000E+01           0.00000000E+00
  -0.11000000E+01           0.00000000E+00
  -0.10900000E+01           0.00000000E+00
  -0.10800000E+01           0.00000000E+00
  -0.10700000E+01           0.00000000E+00
  -0.10600000E+01           0.00000000E+00
  -0.10500000E+01           0.00000000E+00
  -0.10400000E+01           0.00000000E+00
  -0.10300000E+01           0.00000000E+00
  -0.10200000E+01           0.00000000E+00
  -0.10100000E+01           0.00000000E+00
  -0.10000000E+01           0.00000000E+00
  -0.99000000E+00           0.00000000E+00
  -0.98000000E+00           0.00000000E+00
  -0.97000000E+00           0.00000000E+00
  -0.96000000E+00           0.00000000E+00
  -0.95000000E+00           0.00000000E+00
  -0.94000000E+00           0.00000000E+00
  -0.93000000E+00           0.00000000E+00
  -0.92000000E+00           0.00000000E+00
  -0.91000000E+00           0.00000000E+00
  -0.90000000E+00           0.00000000E+00
  -0.89000000E+00           0.00000000E+00
  -0.88000000E+00           0.00000000E+00
  -0.87000000E+00           0.00000000E+00
  -0.86000000E+00           0.00000000E+00
  -0.85000000E+00           0.00000000E+00
  -0.84000000E+00           0.00000000E+00
  -0.83000000E+00           0.00000000E+00
  -0.82000000E+00           0.00000000E+00
  -0.81000000E+00           0.00000000E+00
  -0.80000000E+00           0.00000000E+00
  -0.79000000E+00           0.00000000E+00
  -0.78000000E+00           0.00000000E+00
  -0.77000000E+00           0.00000000E+00
  -0.76000000E+00           0.00000000E+00
  -0.75000000E+00           0.00000000E+00
  -0.74000000E+00           0.00000000E+00
  -0.73000000E+00           0.00000000E+00
  -0.72000000E+00           0.00000000E+00
  -0.71000000E+00           0.00000000E+00
  -0.70000000E+00           0.00000000E+00
  -0.69000000E+00           0.00000000E+00
  -0.68000000E+00           0.00000000E+00
  -0.67000000E+00           0.00000000E+00
  -0.66000000E+00           0.00000000E+00
  -0.65000000E+00           0.00000000E+00
  -0.64000000E+00           0.00000000E+00
  -0.63000000E+00           0.00000000E+00
  -0.62000000E+00           0.00000000E+00
  -0.61000000E+00           0.00000000E+00
  -0.60000000E+00           0.00000000E+00
  -0.59000000E+00           0.00000000E+00
  -0.58000000E+00           0.00000000E+00
  -0.57000000E+00           0.00000000E+00
  -0.56000000E+00           0.00000000E+00
  -0.55000000E+00           0.00000000E+00
  -0.54000000E+00           0.00000000E+00
  -0.53000000E+00           0.00000000E+00
  -0.52000000E+00           0.00000000E+00
  -0.51000000E+00           0.00000000E+00
  -0.50000000E+00           0.00000000E+00
  -0.49000000E+00           0.00000000E+00
  -0.48000000E+00           0.00000000E+00
  -0.47000000E+00           0.00000000E+00
  -0.46000000E+00           0.00000000E+00
  -0.45000000E+00           0.00000000E+00
  -0.44000000E+00           0.00000000E+00
  -0.43000000E+00           0.00000000E+00
  -0.42000000E+00           0.00000000E+00
  -0.41000000E+00           0.00000000E+00
  -0.40000000E+00           0.00000000E+00
  -0.39000000E+00           0.00000000E+00
  -0.38000000E+00           0.00000000E+00
  -0.37000000E+00           0.00000000E+00
  -0.36000000E+00           0.00000000E+00
  -0.35000000E+00           0.00000000E+00
  -0.34000000E+00           0.00000000E+00
  -0.33000000E+00           0.00000000E+00
  -0.32000000E+00           0.00000000E+00
  -0.31000000E+00           0.00000000E+00
  -0.30000000E+00           0.00000000E+00
  -0.29000000E+00           0.00000000E+00
  -0.28000000E+00           0.00000000E+00
  -0.27000000E+00           0.00000000E+00
  -0.26000000E+00           0.00000000E+00
  -0.25000000E+00           0.00000000E+00
  -0.24000000E+00           0.00000000E+00
  -0.23000000E+00           0.00000000E+00
  -0.22000000E+00           0.00000000E+00
  -0.21000000E+00           0.00000000E+00
  -0.20000000E+00           0.00000000E+00
  -0.19000000E+00           0.00000000E+00
  -0.18000000E+00           0.00000000E+00
  -0.17000000E+00           0.00000000E+00
  -0.16000000E+00           0.00000000E+00
  -0.15000000E+00           0.00000000E+00
  -0.14000000E+00           0.00000000E+00
  -0.13000000E+00           0.00000000E+00
  -0.12000000E+00           0.00000000E+00
  -0.11000000E+00           0.00000000E+00
  -0.10000000E+00           0.00000000E+00
  -0.90000000E-01           0.00000000E+00
  -0.80000000E-01           0.00000000E+00
  -0.70000000E-01           0.00000000E+00
  -0.60000000E-01           0.00000000E+00
  -0.50000000E-01           0.00000000E+00
  -0.40000000E-01           0.00000000E+00
  -0.30000000E-01           0.00000000E+00
  -0.20000000E-01           0.00000000E+00
  -0.10000000E-01           0.00000000E+00
   0.00000000E+00           0.63760000E-03
   0.10000000E-01           0.49672000E-02
   0.20000000E-01           0.99553000E-02
   0.30000000E-01           0.15009300E-01
   0.40000000E-01           0.19934400E-01
   0.50000000E-01           0.25004500E-01
   0.60000000E-01           0.29988700E-01
   0.70000000E-01           0.35159400E-01
   0.80000000E-01           0.39938100E-01
   0.90000000E-01           0.44983400E-01
   0.10000000E+00           0.49866300E-01
   0.11000000E+00           0.54991800E-01
   0.12000000E+00           0.59912400E-01
   0.13000000E+00           0.64988700E-01
   0.14000000E+00           0.70049100E-01
   0.15000000E+00           0.74939200E-01
   0.16000000E+00           0.79917000E-01
   0.17000000E+00           0.85119900E-01
   0.18000000E+00           0.90047400E-01
   0.19000000E+00           0.94982500E-01
   0.20000000E+00           0.99871300E-01
   0.21000000E+00           0.10494580E+00
   0.22000000E+00           0.11003060E+00
   0.23000000E+00           0.11519190E+00
   0.24000000E+00           0.12019750E+00
   0.25000000E+00           0.12494750E+00
   0.26000000E+00           0.12991790E+00
   0.27000000E+00           0.13501010E+00
   0.28000000E+00           0.14005990E+00
   0.29000000E+00           0.14515350E+00
   0.30000000E+00           0.15008840E+00
   0.31000000E+00           0.15494760E+00
   0.32000000E+00           0.16022860E+00
   0.33000000E+00           0.16498810E+00
   0.34000000E+00           0.17007110E+00
   0.35000000E+00           0.17512480E+00
   0.36000000E+00           0.18008630E+00
   0.37000000E+00           0.18498080E+00
   0.38000000E+00           0.18988720E+00
   0.39000000E+00           0.19507290E+00
   0.40000000E+00           0.19995500E+00
   0.41000000E+00           0.20505210E+00
   0.42000000E+00           0.21015690E+00
   0.43000000E+00           0.21497940E+00
   0.44000000E+00           0.22008650E+00
   0.45000000E+00           0.22504020E+00
   0.46000000E+00           0.22992550E+00
   0.47000000E+00           0.23527900E+00
   0.48000000E+00           0.24033260E+00
   0.49000000E+00           0.24494990E+00
   0.50000000E+00           0.25014490E+00
   0.51000000E+00           0.25503150E+00
   0.52000000E+00           0.25990010E+00
   0.53000000E+00           0.26493720E+00
   0.54000000E+00           0.27009020E+00
   0.55000000E+00           0.27523730E+00
   0.56000000E+00           0.28004070E+00
   0.57000000E+00           0.28500660E+00
   0.58000000E+00           0.28977320E+00
   0.59000000E+00           0.29499830E+00
   0.60000000E+00           0.30005870E+00
   0.61000000E+00           0.30516390E+00
   0.62000000E+00           0.30992380E+00
   0.63000000E+00           0.31512890E+00
   0.64000000E+00           0.32011040E+00
   0.65000000E+00           0.32528940E+00
   0.66000000E+00           0.33015140E+00
   0.67000000E+00           0.33532420E+00
   0.68000000E+00           0.34019330E+00
   0.69000000E+00           0.34527700E+00
   0.70000000E+00           0.35037330E+00
   0.71000000E+00           0.35531110E+00
   0.72000000E+00           0.35974650E+00
   0.73000000E+00           0.36464100E+00
   0.74000000E+00           0.37006430E+00
   0.75000000E+00           0.37516320E+00
   0.76000000E+00           0.37983410E+00
   0.77000000E+00           0.38508820E+00
   0.78000000E+00           0.39020000E+00
   0.79000000E+00           0.39516000E+00
   0.80000000E+00           0.40006450E+00
   0.81000000E+00           0.40507340E+00
   0.82000000E+00           0.41029210E+00
   0.83000000E+00           0.41523110E+00
   0.84000000E+00           0.41997290E+00
   0.85000000E+00           0.42497440E+00
   0.86000000E+00           0.42997850E+00
   0.87000000E+00           0.43541790E+00
   0.88000000E+00           0.43975270E+00
   0.89000000E+00           0.44504960E+00
   0.90000000E+00           0.45006780E+00
   0.91000000E+00           0.45504130E+00
   0.92000000E+00           0.45997680E+00
   0.93000000E+00           0.46484560E+00
   0.94000000E+00           0.46988760E+00
   0.95000000E+00           0.47521820E+00
   0.96000000E+00           0.48014600E+00
   0.97000000E+00           0.48526620E+00
   0.98000000E+00           0.49042940E+00
   0.99000000E+00           0.49546450E+00
   0.10000000E+01           0.49982060E+00
   0.10100000E+01           0.50530060E+00
   0.10200000E+01           0.51033780E+00
   0.10300000E+01           0.51519060E+00
   0.10400000E+01           0.52014680E+00
   0.10500000E+01           0.52525900E+00
   0.10600000E+01           0.53039210E+00
   0.10700000E+01           0.53544750E+00
   0.10800000E+01           0.54031760E+00
   0.10900000E+01           0.54516980E+00
   0.11000000E+01           0.54973020E+00
   0.11100000E+01           0.55528270E+00
   0.11200000E+01           0.56030050E+00
   0.11300000E+01           0.56470710E+00
   0.11400000E+01           0.56984980E+00
   0.11500000E+01           0.57475970E+00
   0.11600000E+01           0.57975870E+00
   0.11700000E+01           0.58502760E+00
   0.11800000E+01           0.58982370E+00
   0.11900000E+01           0.59579780E+00
   0.12000000E+01           0.59986660E+00
   0.12100000E+01           0.60495030E+00
   0.12200000E+01           0.60967310E+00
   0.12300000E+01           0.61529820E+00
   0.12400000E+01           0.61985450E+00
   0.12500000E+01           0.62455160E+00
   0.12600000E+01           0.63044600E+00
   0.12700000E+01           0.63515260E+00
   0.12800000E+01           0.63949960E+00
   0.12900000E+01           0.64476380E+00
   0.13000000E+01           0.64997030E+00
   0.13100000E+01           0.65513590E+00
   0.13200000E+01           0.66022550E+00
   0.13300000E+01           0.66500210E+00
   0.13400000E+01           0.67033970E+00
   0.13500000E+01           0.67471630E+00
   0.13600000E+01           0.68015350E+00
   0.13700000E+01           0.68479260E+00
   0.13800000E+01           0.69006300E+00
   0.13900000E+01           0.69534470E+00
   0.14000000E+01           0.69992530E+00
   0.14100000E+01           0.70481590E+00
   0.14200000E+01           0.71016530E+00
   0.14300000E+01           0.71470080E+00
   0.14400000E+01           0.71957590E+00
   0.14500000E+01           0.72503060E+00
   0.14600000E+01           0.73015870E+00
   0.14700000E+01           0.73510030E+00
   0.14800000E+01           0.74020030E+00
   0.14900000E+01           0.74537900E+00
   0.15000000E+01           0.74992380E+00
   0.15100000E+01           0.75522110E+00
   0.15200000E+01           0.76016530E+00
   0.15300000E+01           0.76482890E+00
   0.15400000E+01           0.77019740E+00
   0.15500000E+01           0.77551700E+00
   0.15600000E+01           0.78029340E+00
   0.15700000E+01           0.78494430E+00
   0.15800000E+01           0.79014070E+00
   0.15900000E+01           0.79505360E+00
   0.16000000E+01           0.79976250E+00
   0.16100000E+01           0.80501480E+00
   0.16200000E+01           0.80956080E+00
   0.16300000E+01           0.81504430E+00
   0.16400000E+01           0.81990780E+00
   0.16500000E+01           0.82436340E+00
   0.16600000E+01           0.83002120E+00
   0.16700000E+01           0.83521850E+00
   0.16800000E+01           0.83952510E+00
   0.16900000E+01           0.84460810E+00
   0.17000000E+01           0.84992440E+00
   0.17100000E+01           0.85475210E+00
   0.17200000E+01           0.85967820E+00
   0.17300000E+01           0.86501980E+00
   0.17400000E+01           0.86965170E+00
   0.17500000E+01           0.87494010E+00
   0.17600000E+01           0.87992370E+00
   0.17700000E+01           0.88421550E+00
   0.17800000E+01           0.89010060E+00
   0.17900000E+01           0.89504130E+00
   0.18000000E+01           0.90005540E+00
   0.18100000E+01           0.90437160E+00
   0.18200000E+01           0.90964970E+00
   0.18300000E+01           0.91511940E+00
   0.18400000E+01           0.91978160E+00
   0.18500000E+01           0.92537060E+00
   0.18600000E+01           0.93030200E+00
   0.18700000E+01           0.93450130E+00
   0.18800000E+01           0.93940270E+00
   0.18900000E+01           0.94515640E+00
   0.19000000E+01           0.94969420E+00
   0.19100000E+01           0.95506710E+00
   0.19200000E+01           0.95920270E+00
   0.19300000E+01           0.96446880E+00
   0.19400000E+01           0.96911340E+00
   0.19500000E+01           0.97461860E+00
   0.19600000E+01           0.98019080E+00
   0.19700000E+01           0.98479020E+00
   0.19800000E+01           0.98912570E+00
   0.19900000E+01           0.99443160E+00
   0.20000000E+01           0.49929030E+00
