 #written on 28Nov2024 at 17:54:22 
 #----------------- MONTECARLO -------------------#
 #        M                      P(M)             #
 #------------------------------------------------#
 #T=   140.0000
  -0.20000000E+01           0.00000000E+00
  -0.19900000E+01           0.00000000E+00
  -0.19800000E+01           0.00000000E+00
  -0.19700000E+01           0.00000000E+00
  -0.19600000E+01           0.00000000E+00
  -0.19500000E+01           0.00000000E+00
  -0.19400000E+01           0.00000000E+00
  -0.19300000E+01           0.00000000E+00
  -0.19200000E+01           0.00000000E+00
  -0.19100000E+01           0.00000000E+00
  -0.19000000E+01           0.00000000E+00
  -0.18900000E+01           0.00000000E+00
  -0.18800000E+01           0.00000000E+00
  -0.18700000E+01           0.00000000E+00
  -0.18600000E+01           0.00000000E+00
  -0.18500000E+01           0.00000000E+00
  -0.18400000E+01           0.00000000E+00
  -0.18300000E+01           0.00000000E+00
  -0.18200000E+01           0.00000000E+00
  -0.18100000E+01           0.00000000E+00
  -0.18000000E+01           0.00000000E+00
  -0.17900000E+01           0.00000000E+00
  -0.17800000E+01           0.00000000E+00
  -0.17700000E+01           0.00000000E+00
  -0.17600000E+01           0.00000000E+00
  -0.17500000E+01           0.00000000E+00
  -0.17400000E+01           0.00000000E+00
  -0.17300000E+01           0.00000000E+00
  -0.17200000E+01           0.00000000E+00
  -0.17100000E+01           0.00000000E+00
  -0.17000000E+01           0.00000000E+00
  -0.16900000E+01           0.00000000E+00
  -0.16800000E+01           0.00000000E+00
  -0.16700000E+01           0.00000000E+00
  -0.16600000E+01           0.00000000E+00
  -0.16500000E+01           0.00000000E+00
  -0.16400000E+01           0.00000000E+00
  -0.16300000E+01           0.00000000E+00
  -0.16200000E+01           0.00000000E+00
  -0.16100000E+01           0.00000000E+00
  -0.16000000E+01           0.00000000E+00
  -0.15900000E+01           0.00000000E+00
  -0.15800000E+01           0.00000000E+00
  -0.15700000E+01           0.00000000E+00
  -0.15600000E+01           0.00000000E+00
  -0.15500000E+01           0.00000000E+00
  -0.15400000E+01           0.00000000E+00
  -0.15300000E+01           0.00000000E+00
  -0.15200000E+01           0.00000000E+00
  -0.15100000E+01           0.00000000E+00
  -0.15000000E+01           0.00000000E+00
  -0.14900000E+01           0.00000000E+00
  -0.14800000E+01           0.00000000E+00
  -0.14700000E+01           0.00000000E+00
  -0.14600000E+01           0.00000000E+00
  -0.14500000E+01           0.00000000E+00
  -0.14400000E+01           0.00000000E+00
  -0.14300000E+01           0.00000000E+00
  -0.14200000E+01           0.00000000E+00
  -0.14100000E+01           0.00000000E+00
  -0.14000000E+01           0.00000000E+00
  -0.13900000E+01           0.00000000E+00
  -0.13800000E+01           0.00000000E+00
  -0.13700000E+01           0.00000000E+00
  -0.13600000E+01           0.00000000E+00
  -0.13500000E+01           0.00000000E+00
  -0.13400000E+01           0.00000000E+00
  -0.13300000E+01           0.00000000E+00
  -0.13200000E+01           0.00000000E+00
  -0.13100000E+01           0.00000000E+00
  -0.13000000E+01           0.00000000E+00
  -0.12900000E+01           0.00000000E+00
  -0.12800000E+01           0.00000000E+00
  -0.12700000E+01           0.00000000E+00
  -0.12600000E+01           0.00000000E+00
  -0.12500000E+01           0.00000000E+00
  -0.12400000E+01           0.00000000E+00
  -0.12300000E+01           0.00000000E+00
  -0.12200000E+01           0.00000000E+00
  -0.12100000E+01           0.00000000E+00
  -0.12000000E+01           0.00000000E+00
  -0.11900000E+01           0.00000000E+00
  -0.11800000E+01           0.00000000E+00
  -0.11700000E+01           0.00000000E+00
  -0.11600000E+01           0.00000000E+00
  -0.11500000E+01           0.00000000E+00
  -0.11400000E+01           0.00000000E+00
  -0.11300000E+01           0.00000000E+00
  -0.11200000E+01           0.00000000E+00
  -0.11100000E+01           0.00000000E+00
  -0.11000000E+01           0.00000000E+00
  -0.10900000E+01           0.00000000E+00
  -0.10800000E+01           0.00000000E+00
  -0.10700000E+01           0.00000000E+00
  -0.10600000E+01           0.00000000E+00
  -0.10500000E+01           0.00000000E+00
  -0.10400000E+01           0.00000000E+00
  -0.10300000E+01           0.00000000E+00
  -0.10200000E+01           0.00000000E+00
  -0.10100000E+01           0.00000000E+00
  -0.10000000E+01           0.00000000E+00
  -0.99000000E+00           0.00000000E+00
  -0.98000000E+00           0.00000000E+00
  -0.97000000E+00           0.00000000E+00
  -0.96000000E+00           0.00000000E+00
  -0.95000000E+00           0.00000000E+00
  -0.94000000E+00           0.00000000E+00
  -0.93000000E+00           0.00000000E+00
  -0.92000000E+00           0.00000000E+00
  -0.91000000E+00           0.00000000E+00
  -0.90000000E+00           0.00000000E+00
  -0.89000000E+00           0.00000000E+00
  -0.88000000E+00           0.00000000E+00
  -0.87000000E+00           0.00000000E+00
  -0.86000000E+00           0.00000000E+00
  -0.85000000E+00           0.00000000E+00
  -0.84000000E+00           0.00000000E+00
  -0.83000000E+00           0.00000000E+00
  -0.82000000E+00           0.00000000E+00
  -0.81000000E+00           0.00000000E+00
  -0.80000000E+00           0.00000000E+00
  -0.79000000E+00           0.00000000E+00
  -0.78000000E+00           0.00000000E+00
  -0.77000000E+00           0.00000000E+00
  -0.76000000E+00           0.00000000E+00
  -0.75000000E+00           0.00000000E+00
  -0.74000000E+00           0.00000000E+00
  -0.73000000E+00           0.00000000E+00
  -0.72000000E+00           0.00000000E+00
  -0.71000000E+00           0.00000000E+00
  -0.70000000E+00           0.00000000E+00
  -0.69000000E+00           0.00000000E+00
  -0.68000000E+00           0.00000000E+00
  -0.67000000E+00           0.00000000E+00
  -0.66000000E+00           0.00000000E+00
  -0.65000000E+00           0.00000000E+00
  -0.64000000E+00           0.00000000E+00
  -0.63000000E+00           0.00000000E+00
  -0.62000000E+00           0.00000000E+00
  -0.61000000E+00           0.00000000E+00
  -0.60000000E+00           0.00000000E+00
  -0.59000000E+00           0.00000000E+00
  -0.58000000E+00           0.00000000E+00
  -0.57000000E+00           0.00000000E+00
  -0.56000000E+00           0.00000000E+00
  -0.55000000E+00           0.00000000E+00
  -0.54000000E+00           0.00000000E+00
  -0.53000000E+00           0.00000000E+00
  -0.52000000E+00           0.00000000E+00
  -0.51000000E+00           0.00000000E+00
  -0.50000000E+00           0.00000000E+00
  -0.49000000E+00           0.00000000E+00
  -0.48000000E+00           0.00000000E+00
  -0.47000000E+00           0.00000000E+00
  -0.46000000E+00           0.00000000E+00
  -0.45000000E+00           0.00000000E+00
  -0.44000000E+00           0.00000000E+00
  -0.43000000E+00           0.00000000E+00
  -0.42000000E+00           0.00000000E+00
  -0.41000000E+00           0.00000000E+00
  -0.40000000E+00           0.00000000E+00
  -0.39000000E+00           0.00000000E+00
  -0.38000000E+00           0.00000000E+00
  -0.37000000E+00           0.00000000E+00
  -0.36000000E+00           0.00000000E+00
  -0.35000000E+00           0.00000000E+00
  -0.34000000E+00           0.00000000E+00
  -0.33000000E+00           0.00000000E+00
  -0.32000000E+00           0.00000000E+00
  -0.31000000E+00           0.00000000E+00
  -0.30000000E+00           0.00000000E+00
  -0.29000000E+00           0.00000000E+00
  -0.28000000E+00           0.00000000E+00
  -0.27000000E+00           0.00000000E+00
  -0.26000000E+00           0.00000000E+00
  -0.25000000E+00           0.00000000E+00
  -0.24000000E+00           0.00000000E+00
  -0.23000000E+00           0.00000000E+00
  -0.22000000E+00           0.00000000E+00
  -0.21000000E+00           0.00000000E+00
  -0.20000000E+00           0.00000000E+00
  -0.19000000E+00           0.00000000E+00
  -0.18000000E+00           0.00000000E+00
  -0.17000000E+00           0.00000000E+00
  -0.16000000E+00           0.00000000E+00
  -0.15000000E+00           0.00000000E+00
  -0.14000000E+00           0.00000000E+00
  -0.13000000E+00           0.00000000E+00
  -0.12000000E+00           0.00000000E+00
  -0.11000000E+00           0.00000000E+00
  -0.10000000E+00           0.00000000E+00
  -0.90000000E-01           0.00000000E+00
  -0.80000000E-01           0.00000000E+00
  -0.70000000E-01           0.00000000E+00
  -0.60000000E-01           0.00000000E+00
  -0.50000000E-01           0.00000000E+00
  -0.40000000E-01           0.00000000E+00
  -0.30000000E-01           0.00000000E+00
  -0.20000000E-01           0.00000000E+00
  -0.10000000E-01           0.00000000E+00
   0.00000000E+00           0.60516156E-02
   0.10000000E-01           0.47877976E-01
   0.20000000E-01           0.96016071E-01
   0.30000000E-01           0.14329932E+00
   0.40000000E-01           0.19086335E+00
   0.50000000E-01           0.23798274E+00
   0.60000000E-01           0.28498639E+00
   0.70000000E-01           0.33123563E+00
   0.80000000E-01           0.37738308E+00
   0.90000000E-01           0.42375570E+00
   0.10000000E+00           0.46753418E+00
   0.11000000E+00           0.51131454E+00
   0.12000000E+00           0.55510816E+00
   0.13000000E+00           0.59759031E+00
   0.14000000E+00           0.63979498E+00
   0.15000000E+00           0.68151233E+00
   0.16000000E+00           0.72122466E+00
   0.17000000E+00           0.76053682E+00
   0.18000000E+00           0.79792509E+00
   0.19000000E+00           0.83475400E+00
   0.20000000E+00           0.87075068E+00
   0.21000000E+00           0.90563920E+00
   0.22000000E+00           0.93983690E+00
   0.23000000E+00           0.97215179E+00
   0.24000000E+00           0.10032702E+01
   0.25000000E+00           0.10329053E+01
   0.26000000E+00           0.10614493E+01
   0.27000000E+00           0.10878695E+01
   0.28000000E+00           0.11149757E+01
   0.29000000E+00           0.11384679E+01
   0.30000000E+00           0.11616887E+01
   0.31000000E+00           0.11825094E+01
   0.32000000E+00           0.12026592E+01
   0.33000000E+00           0.12223330E+01
   0.34000000E+00           0.12398105E+01
   0.35000000E+00           0.12540580E+01
   0.36000000E+00           0.12696497E+01
   0.37000000E+00           0.12823693E+01
   0.38000000E+00           0.12937094E+01
   0.39000000E+00           0.13036232E+01
   0.40000000E+00           0.13119707E+01
   0.41000000E+00           0.13202632E+01
   0.42000000E+00           0.13261846E+01
   0.43000000E+00           0.13306447E+01
   0.44000000E+00           0.13333560E+01
   0.45000000E+00           0.13345368E+01
   0.46000000E+00           0.13357644E+01
   0.47000000E+00           0.13355082E+01
   0.48000000E+00           0.13321334E+01
   0.49000000E+00           0.13299156E+01
   0.50000000E+00           0.13249778E+01
   0.51000000E+00           0.13197380E+01
   0.52000000E+00           0.13133677E+01
   0.53000000E+00           0.13054937E+01
   0.54000000E+00           0.12965761E+01
   0.55000000E+00           0.12873782E+01
   0.56000000E+00           0.12764875E+01
   0.57000000E+00           0.12642671E+01
   0.58000000E+00           0.12526836E+01
   0.59000000E+00           0.12388591E+01
   0.60000000E+00           0.12236293E+01
   0.61000000E+00           0.12096676E+01
   0.62000000E+00           0.11941009E+01
   0.63000000E+00           0.11769282E+01
   0.64000000E+00           0.11599325E+01
   0.65000000E+00           0.11427957E+01
   0.66000000E+00           0.11251671E+01
   0.67000000E+00           0.11052569E+01
   0.68000000E+00           0.10861025E+01
   0.69000000E+00           0.10667383E+01
   0.70000000E+00           0.10465682E+01
   0.71000000E+00           0.10260821E+01
   0.72000000E+00           0.10056072E+01
   0.73000000E+00           0.98443452E+00
   0.74000000E+00           0.96297134E+00
   0.75000000E+00           0.94237083E+00
   0.76000000E+00           0.92076139E+00
   0.77000000E+00           0.89886148E+00
   0.78000000E+00           0.87743359E+00
   0.79000000E+00           0.85531990E+00
   0.80000000E+00           0.83405544E+00
   0.81000000E+00           0.81155493E+00
   0.82000000E+00           0.79084592E+00
   0.83000000E+00           0.76879405E+00
   0.84000000E+00           0.74657772E+00
   0.85000000E+00           0.72620017E+00
   0.86000000E+00           0.70507976E+00
   0.87000000E+00           0.68360264E+00
   0.88000000E+00           0.66300247E+00
   0.89000000E+00           0.64244031E+00
   0.90000000E+00           0.62082211E+00
   0.91000000E+00           0.60147619E+00
   0.92000000E+00           0.58206514E+00
   0.93000000E+00           0.56248104E+00
   0.94000000E+00           0.54248614E+00
   0.95000000E+00           0.52399702E+00
   0.96000000E+00           0.50528988E+00
   0.97000000E+00           0.48731318E+00
   0.98000000E+00           0.46882015E+00
   0.99000000E+00           0.45126565E+00
   0.10000000E+01           0.43426063E+00
   0.10100000E+01           0.41778206E+00
   0.10200000E+01           0.40112806E+00
   0.10300000E+01           0.38527058E+00
   0.10400000E+01           0.37004677E+00
   0.10500000E+01           0.35456871E+00
   0.10600000E+01           0.33999685E+00
   0.10700000E+01           0.32518087E+00
   0.10800000E+01           0.31149243E+00
   0.10900000E+01           0.29769039E+00
   0.11000000E+01           0.28413733E+00
   0.11100000E+01           0.27239107E+00
   0.11200000E+01           0.25938019E+00
   0.11300000E+01           0.24771548E+00
   0.11400000E+01           0.23590740E+00
   0.11500000E+01           0.22462883E+00
   0.11600000E+01           0.21396990E+00
   0.11700000E+01           0.20408036E+00
   0.11800000E+01           0.19369150E+00
   0.11900000E+01           0.18414753E+00
   0.12000000E+01           0.17478520E+00
   0.12100000E+01           0.16574422E+00
   0.12200000E+01           0.15761488E+00
   0.12300000E+01           0.14898206E+00
   0.12400000E+01           0.14133648E+00
   0.12500000E+01           0.13337577E+00
   0.12600000E+01           0.12632338E+00
   0.12700000E+01           0.11940867E+00
   0.12800000E+01           0.11305723E+00
   0.12900000E+01           0.10663206E+00
   0.13000000E+01           0.10038231E+00
   0.13100000E+01           0.94891497E-01
   0.13200000E+01           0.89153316E-01
   0.13300000E+01           0.83998554E-01
   0.13400000E+01           0.78920918E-01
   0.13500000E+01           0.74334524E-01
   0.13600000E+01           0.69713350E-01
   0.13700000E+01           0.65474405E-01
   0.13800000E+01           0.61658248E-01
   0.13900000E+01           0.57542942E-01
   0.14000000E+01           0.53943452E-01
   0.14100000E+01           0.50461139E-01
   0.14200000E+01           0.47139796E-01
   0.14300000E+01           0.44107823E-01
   0.14400000E+01           0.41003827E-01
   0.14500000E+01           0.38392687E-01
   0.14600000E+01           0.35744218E-01
   0.14700000E+01           0.33370663E-01
   0.14800000E+01           0.30947874E-01
   0.14900000E+01           0.28833333E-01
   0.15000000E+01           0.26796173E-01
   0.15100000E+01           0.24812415E-01
   0.15200000E+01           0.23073299E-01
   0.15300000E+01           0.21376190E-01
   0.15400000E+01           0.19827636E-01
   0.15500000E+01           0.18362075E-01
   0.15600000E+01           0.16980697E-01
   0.15700000E+01           0.15586139E-01
   0.15800000E+01           0.14452466E-01
   0.15900000E+01           0.13333333E-01
   0.16000000E+01           0.12300085E-01
   0.16100000E+01           0.11331973E-01
   0.16200000E+01           0.10383248E-01
   0.16300000E+01           0.94767857E-02
   0.16400000E+01           0.87204932E-02
   0.16500000E+01           0.80125850E-02
   0.16600000E+01           0.73314626E-02
   0.16700000E+01           0.66950680E-02
   0.16800000E+01           0.61267007E-02
   0.16900000E+01           0.55903912E-02
   0.17000000E+01           0.50198980E-02
   0.17100000E+01           0.46541667E-02
   0.17200000E+01           0.41976190E-02
   0.17300000E+01           0.38241497E-02
   0.17400000E+01           0.34354592E-02
   0.17500000E+01           0.31454082E-02
   0.17600000E+01           0.28519558E-02
   0.17700000E+01           0.25908163E-02
   0.17800000E+01           0.22995748E-02
   0.17900000E+01           0.20877551E-02
   0.18000000E+01           0.18718537E-02
   0.18100000E+01           0.16692177E-02
   0.18200000E+01           0.15059524E-02
   0.18300000E+01           0.13301871E-02
   0.18400000E+01           0.11980442E-02
   0.18500000E+01           0.10632653E-02
   0.18600000E+01           0.94914966E-03
   0.18700000E+01           0.83129252E-03
   0.18800000E+01           0.72176871E-03
   0.18900000E+01           0.64421769E-03
   0.19000000E+01           0.58146259E-03
   0.19100000E+01           0.48545918E-03
   0.19200000E+01           0.42772109E-03
   0.19300000E+01           0.37712585E-03
   0.19400000E+01           0.33027211E-03
   0.19500000E+01           0.28120748E-03
   0.19600000E+01           0.24268707E-03
   0.19700000E+01           0.21062925E-03
   0.19800000E+01           0.17210884E-03
   0.19900000E+01           0.14651361E-03
   0.20000000E+01           0.62585034E-04
 #T=   141.0000
  -0.20000000E+01           0.00000000E+00
  -0.19900000E+01           0.00000000E+00
  -0.19800000E+01           0.00000000E+00
  -0.19700000E+01           0.00000000E+00
  -0.19600000E+01           0.00000000E+00
  -0.19500000E+01           0.00000000E+00
  -0.19400000E+01           0.00000000E+00
  -0.19300000E+01           0.00000000E+00
  -0.19200000E+01           0.00000000E+00
  -0.19100000E+01           0.00000000E+00
  -0.19000000E+01           0.00000000E+00
  -0.18900000E+01           0.00000000E+00
  -0.18800000E+01           0.00000000E+00
  -0.18700000E+01           0.00000000E+00
  -0.18600000E+01           0.00000000E+00
  -0.18500000E+01           0.00000000E+00
  -0.18400000E+01           0.00000000E+00
  -0.18300000E+01           0.00000000E+00
  -0.18200000E+01           0.00000000E+00
  -0.18100000E+01           0.00000000E+00
  -0.18000000E+01           0.00000000E+00
  -0.17900000E+01           0.00000000E+00
  -0.17800000E+01           0.00000000E+00
  -0.17700000E+01           0.00000000E+00
  -0.17600000E+01           0.00000000E+00
  -0.17500000E+01           0.00000000E+00
  -0.17400000E+01           0.00000000E+00
  -0.17300000E+01           0.00000000E+00
  -0.17200000E+01           0.00000000E+00
  -0.17100000E+01           0.00000000E+00
  -0.17000000E+01           0.00000000E+00
  -0.16900000E+01           0.00000000E+00
  -0.16800000E+01           0.00000000E+00
  -0.16700000E+01           0.00000000E+00
  -0.16600000E+01           0.00000000E+00
  -0.16500000E+01           0.00000000E+00
  -0.16400000E+01           0.00000000E+00
  -0.16300000E+01           0.00000000E+00
  -0.16200000E+01           0.00000000E+00
  -0.16100000E+01           0.00000000E+00
  -0.16000000E+01           0.00000000E+00
  -0.15900000E+01           0.00000000E+00
  -0.15800000E+01           0.00000000E+00
  -0.15700000E+01           0.00000000E+00
  -0.15600000E+01           0.00000000E+00
  -0.15500000E+01           0.00000000E+00
  -0.15400000E+01           0.00000000E+00
  -0.15300000E+01           0.00000000E+00
  -0.15200000E+01           0.00000000E+00
  -0.15100000E+01           0.00000000E+00
  -0.15000000E+01           0.00000000E+00
  -0.14900000E+01           0.00000000E+00
  -0.14800000E+01           0.00000000E+00
  -0.14700000E+01           0.00000000E+00
  -0.14600000E+01           0.00000000E+00
  -0.14500000E+01           0.00000000E+00
  -0.14400000E+01           0.00000000E+00
  -0.14300000E+01           0.00000000E+00
  -0.14200000E+01           0.00000000E+00
  -0.14100000E+01           0.00000000E+00
  -0.14000000E+01           0.00000000E+00
  -0.13900000E+01           0.00000000E+00
  -0.13800000E+01           0.00000000E+00
  -0.13700000E+01           0.00000000E+00
  -0.13600000E+01           0.00000000E+00
  -0.13500000E+01           0.00000000E+00
  -0.13400000E+01           0.00000000E+00
  -0.13300000E+01           0.00000000E+00
  -0.13200000E+01           0.00000000E+00
  -0.13100000E+01           0.00000000E+00
  -0.13000000E+01           0.00000000E+00
  -0.12900000E+01           0.00000000E+00
  -0.12800000E+01           0.00000000E+00
  -0.12700000E+01           0.00000000E+00
  -0.12600000E+01           0.00000000E+00
  -0.12500000E+01           0.00000000E+00
  -0.12400000E+01           0.00000000E+00
  -0.12300000E+01           0.00000000E+00
  -0.12200000E+01           0.00000000E+00
  -0.12100000E+01           0.00000000E+00
  -0.12000000E+01           0.00000000E+00
  -0.11900000E+01           0.00000000E+00
  -0.11800000E+01           0.00000000E+00
  -0.11700000E+01           0.00000000E+00
  -0.11600000E+01           0.00000000E+00
  -0.11500000E+01           0.00000000E+00
  -0.11400000E+01           0.00000000E+00
  -0.11300000E+01           0.00000000E+00
  -0.11200000E+01           0.00000000E+00
  -0.11100000E+01           0.00000000E+00
  -0.11000000E+01           0.00000000E+00
  -0.10900000E+01           0.00000000E+00
  -0.10800000E+01           0.00000000E+00
  -0.10700000E+01           0.00000000E+00
  -0.10600000E+01           0.00000000E+00
  -0.10500000E+01           0.00000000E+00
  -0.10400000E+01           0.00000000E+00
  -0.10300000E+01           0.00000000E+00
  -0.10200000E+01           0.00000000E+00
  -0.10100000E+01           0.00000000E+00
  -0.10000000E+01           0.00000000E+00
  -0.99000000E+00           0.00000000E+00
  -0.98000000E+00           0.00000000E+00
  -0.97000000E+00           0.00000000E+00
  -0.96000000E+00           0.00000000E+00
  -0.95000000E+00           0.00000000E+00
  -0.94000000E+00           0.00000000E+00
  -0.93000000E+00           0.00000000E+00
  -0.92000000E+00           0.00000000E+00
  -0.91000000E+00           0.00000000E+00
  -0.90000000E+00           0.00000000E+00
  -0.89000000E+00           0.00000000E+00
  -0.88000000E+00           0.00000000E+00
  -0.87000000E+00           0.00000000E+00
  -0.86000000E+00           0.00000000E+00
  -0.85000000E+00           0.00000000E+00
  -0.84000000E+00           0.00000000E+00
  -0.83000000E+00           0.00000000E+00
  -0.82000000E+00           0.00000000E+00
  -0.81000000E+00           0.00000000E+00
  -0.80000000E+00           0.00000000E+00
  -0.79000000E+00           0.00000000E+00
  -0.78000000E+00           0.00000000E+00
  -0.77000000E+00           0.00000000E+00
  -0.76000000E+00           0.00000000E+00
  -0.75000000E+00           0.00000000E+00
  -0.74000000E+00           0.00000000E+00
  -0.73000000E+00           0.00000000E+00
  -0.72000000E+00           0.00000000E+00
  -0.71000000E+00           0.00000000E+00
  -0.70000000E+00           0.00000000E+00
  -0.69000000E+00           0.00000000E+00
  -0.68000000E+00           0.00000000E+00
  -0.67000000E+00           0.00000000E+00
  -0.66000000E+00           0.00000000E+00
  -0.65000000E+00           0.00000000E+00
  -0.64000000E+00           0.00000000E+00
  -0.63000000E+00           0.00000000E+00
  -0.62000000E+00           0.00000000E+00
  -0.61000000E+00           0.00000000E+00
  -0.60000000E+00           0.00000000E+00
  -0.59000000E+00           0.00000000E+00
  -0.58000000E+00           0.00000000E+00
  -0.57000000E+00           0.00000000E+00
  -0.56000000E+00           0.00000000E+00
  -0.55000000E+00           0.00000000E+00
  -0.54000000E+00           0.00000000E+00
  -0.53000000E+00           0.00000000E+00
  -0.52000000E+00           0.00000000E+00
  -0.51000000E+00           0.00000000E+00
  -0.50000000E+00           0.00000000E+00
  -0.49000000E+00           0.00000000E+00
  -0.48000000E+00           0.00000000E+00
  -0.47000000E+00           0.00000000E+00
  -0.46000000E+00           0.00000000E+00
  -0.45000000E+00           0.00000000E+00
  -0.44000000E+00           0.00000000E+00
  -0.43000000E+00           0.00000000E+00
  -0.42000000E+00           0.00000000E+00
  -0.41000000E+00           0.00000000E+00
  -0.40000000E+00           0.00000000E+00
  -0.39000000E+00           0.00000000E+00
  -0.38000000E+00           0.00000000E+00
  -0.37000000E+00           0.00000000E+00
  -0.36000000E+00           0.00000000E+00
  -0.35000000E+00           0.00000000E+00
  -0.34000000E+00           0.00000000E+00
  -0.33000000E+00           0.00000000E+00
  -0.32000000E+00           0.00000000E+00
  -0.31000000E+00           0.00000000E+00
  -0.30000000E+00           0.00000000E+00
  -0.29000000E+00           0.00000000E+00
  -0.28000000E+00           0.00000000E+00
  -0.27000000E+00           0.00000000E+00
  -0.26000000E+00           0.00000000E+00
  -0.25000000E+00           0.00000000E+00
  -0.24000000E+00           0.00000000E+00
  -0.23000000E+00           0.00000000E+00
  -0.22000000E+00           0.00000000E+00
  -0.21000000E+00           0.00000000E+00
  -0.20000000E+00           0.00000000E+00
  -0.19000000E+00           0.00000000E+00
  -0.18000000E+00           0.00000000E+00
  -0.17000000E+00           0.00000000E+00
  -0.16000000E+00           0.00000000E+00
  -0.15000000E+00           0.00000000E+00
  -0.14000000E+00           0.00000000E+00
  -0.13000000E+00           0.00000000E+00
  -0.12000000E+00           0.00000000E+00
  -0.11000000E+00           0.00000000E+00
  -0.10000000E+00           0.00000000E+00
  -0.90000000E-01           0.00000000E+00
  -0.80000000E-01           0.00000000E+00
  -0.70000000E-01           0.00000000E+00
  -0.60000000E-01           0.00000000E+00
  -0.50000000E-01           0.00000000E+00
  -0.40000000E-01           0.00000000E+00
  -0.30000000E-01           0.00000000E+00
  -0.20000000E-01           0.00000000E+00
  -0.10000000E-01           0.00000000E+00
   0.00000000E+00           0.59512755E-02
   0.10000000E-01           0.47449660E-01
   0.20000000E-01           0.94733248E-01
   0.30000000E-01           0.14204328E+00
   0.40000000E-01           0.18951463E+00
   0.50000000E-01           0.23607577E+00
   0.60000000E-01           0.28323061E+00
   0.70000000E-01           0.32786888E+00
   0.80000000E-01           0.37429354E+00
   0.90000000E-01           0.41989150E+00
   0.10000000E+00           0.46390332E+00
   0.11000000E+00           0.50819966E+00
   0.12000000E+00           0.55091403E+00
   0.13000000E+00           0.59317228E+00
   0.14000000E+00           0.63512560E+00
   0.15000000E+00           0.67574966E+00
   0.16000000E+00           0.71588206E+00
   0.17000000E+00           0.75455689E+00
   0.18000000E+00           0.79174031E+00
   0.19000000E+00           0.82913444E+00
   0.20000000E+00           0.86551939E+00
   0.21000000E+00           0.89985281E+00
   0.22000000E+00           0.93324490E+00
   0.23000000E+00           0.96546165E+00
   0.24000000E+00           0.99617160E+00
   0.25000000E+00           0.10254227E+01
   0.26000000E+00           0.10545289E+01
   0.27000000E+00           0.10808172E+01
   0.28000000E+00           0.11079247E+01
   0.29000000E+00           0.11308077E+01
   0.30000000E+00           0.11537820E+01
   0.31000000E+00           0.11761358E+01
   0.32000000E+00           0.11963187E+01
   0.33000000E+00           0.12152702E+01
   0.34000000E+00           0.12330173E+01
   0.35000000E+00           0.12485660E+01
   0.36000000E+00           0.12618861E+01
   0.37000000E+00           0.12754231E+01
   0.38000000E+00           0.12879117E+01
   0.39000000E+00           0.12964946E+01
   0.40000000E+00           0.13059450E+01
   0.41000000E+00           0.13147106E+01
   0.42000000E+00           0.13193797E+01
   0.43000000E+00           0.13250611E+01
   0.44000000E+00           0.13280475E+01
   0.45000000E+00           0.13295259E+01
   0.46000000E+00           0.13305514E+01
   0.47000000E+00           0.13300015E+01
   0.48000000E+00           0.13279165E+01
   0.49000000E+00           0.13246841E+01
   0.50000000E+00           0.13206927E+01
   0.51000000E+00           0.13154763E+01
   0.52000000E+00           0.13098662E+01
   0.53000000E+00           0.13021366E+01
   0.54000000E+00           0.12931069E+01
   0.55000000E+00           0.12838355E+01
   0.56000000E+00           0.12740186E+01
   0.57000000E+00           0.12622594E+01
   0.58000000E+00           0.12498179E+01
   0.59000000E+00           0.12367798E+01
   0.60000000E+00           0.12233553E+01
   0.61000000E+00           0.12082303E+01
   0.62000000E+00           0.11924614E+01
   0.63000000E+00           0.11761702E+01
   0.64000000E+00           0.11600693E+01
   0.65000000E+00           0.11422268E+01
   0.66000000E+00           0.11241689E+01
   0.67000000E+00           0.11074243E+01
   0.68000000E+00           0.10870459E+01
   0.69000000E+00           0.10674507E+01
   0.70000000E+00           0.10478575E+01
   0.71000000E+00           0.10276468E+01
   0.72000000E+00           0.10078388E+01
   0.73000000E+00           0.98710680E+00
   0.74000000E+00           0.96587568E+00
   0.75000000E+00           0.94460570E+00
   0.76000000E+00           0.92339150E+00
   0.77000000E+00           0.90212117E+00
   0.78000000E+00           0.88134753E+00
   0.79000000E+00           0.85853971E+00
   0.80000000E+00           0.83707423E+00
   0.81000000E+00           0.81609668E+00
   0.82000000E+00           0.79435655E+00
   0.83000000E+00           0.77295434E+00
   0.84000000E+00           0.75171556E+00
   0.85000000E+00           0.73013665E+00
   0.86000000E+00           0.70923274E+00
   0.87000000E+00           0.68838886E+00
   0.88000000E+00           0.66751803E+00
   0.89000000E+00           0.64713189E+00
   0.90000000E+00           0.62643231E+00
   0.91000000E+00           0.60626276E+00
   0.92000000E+00           0.58676811E+00
   0.93000000E+00           0.56703844E+00
   0.94000000E+00           0.54749124E+00
   0.95000000E+00           0.52910391E+00
   0.96000000E+00           0.50985672E+00
   0.97000000E+00           0.49223844E+00
   0.98000000E+00           0.47429167E+00
   0.99000000E+00           0.45669787E+00
   0.10000000E+01           0.43913767E+00
   0.10100000E+01           0.42231684E+00
   0.10200000E+01           0.40644804E+00
   0.10300000E+01           0.39028707E+00
   0.10400000E+01           0.37501862E+00
   0.10500000E+01           0.35959966E+00
   0.10600000E+01           0.34439915E+00
   0.10700000E+01           0.33035315E+00
   0.10800000E+01           0.31584872E+00
   0.10900000E+01           0.30230595E+00
   0.11000000E+01           0.28903486E+00
   0.11100000E+01           0.27636063E+00
   0.11200000E+01           0.26351607E+00
   0.11300000E+01           0.25198963E+00
   0.11400000E+01           0.24022874E+00
   0.11500000E+01           0.22921777E+00
   0.11600000E+01           0.21810502E+00
   0.11700000E+01           0.20769592E+00
   0.11800000E+01           0.19757679E+00
   0.11900000E+01           0.18782330E+00
   0.12000000E+01           0.17808138E+00
   0.12100000E+01           0.16946344E+00
   0.12200000E+01           0.16051505E+00
   0.12300000E+01           0.15245408E+00
   0.12400000E+01           0.14439549E+00
   0.12500000E+01           0.13658580E+00
   0.12600000E+01           0.12970434E+00
   0.12700000E+01           0.12241701E+00
   0.12800000E+01           0.11573002E+00
   0.12900000E+01           0.10920867E+00
   0.13000000E+01           0.10300969E+00
   0.13100000E+01           0.97214881E-01
   0.13200000E+01           0.91710034E-01
   0.13300000E+01           0.86300085E-01
   0.13400000E+01           0.81136565E-01
   0.13500000E+01           0.76312585E-01
   0.13600000E+01           0.71830867E-01
   0.13700000E+01           0.67444218E-01
   0.13800000E+01           0.63296088E-01
   0.13900000E+01           0.59269473E-01
   0.14000000E+01           0.55712500E-01
   0.14100000E+01           0.52172364E-01
   0.14200000E+01           0.48746088E-01
   0.14300000E+01           0.45628741E-01
   0.14400000E+01           0.42612415E-01
   0.14500000E+01           0.39665476E-01
   0.14600000E+01           0.37071344E-01
   0.14700000E+01           0.34632908E-01
   0.14800000E+01           0.32134014E-01
   0.14900000E+01           0.29834099E-01
   0.15000000E+01           0.27796259E-01
   0.15100000E+01           0.25807653E-01
   0.15200000E+01           0.24036650E-01
   0.15300000E+01           0.22231293E-01
   0.15400000E+01           0.20676871E-01
   0.15500000E+01           0.19129762E-01
   0.15600000E+01           0.17698044E-01
   0.15700000E+01           0.16347959E-01
   0.15800000E+01           0.15077381E-01
   0.15900000E+01           0.13863095E-01
   0.16000000E+01           0.12802381E-01
   0.16100000E+01           0.11835204E-01
   0.16200000E+01           0.10840901E-01
   0.16300000E+01           0.99929422E-02
   0.16400000E+01           0.91994048E-02
   0.16500000E+01           0.83775510E-02
   0.16600000E+01           0.77190476E-02
   0.16700000E+01           0.70833333E-02
   0.16800000E+01           0.64016156E-02
   0.16900000E+01           0.58951531E-02
   0.17000000E+01           0.53275510E-02
   0.17100000E+01           0.48870748E-02
   0.17200000E+01           0.44149660E-02
   0.17300000E+01           0.40227891E-02
   0.17400000E+01           0.36406463E-02
   0.17500000E+01           0.33389456E-02
   0.17600000E+01           0.30003401E-02
   0.17700000E+01           0.27099490E-02
   0.17800000E+01           0.24090986E-02
   0.17900000E+01           0.21869898E-02
   0.18000000E+01           0.19733844E-02
   0.18100000E+01           0.17687075E-02
   0.18200000E+01           0.16048469E-02
   0.18300000E+01           0.14070578E-02
   0.18400000E+01           0.12772959E-02
   0.18500000E+01           0.11331633E-02
   0.18600000E+01           0.10081633E-02
   0.18700000E+01           0.89319728E-03
   0.18800000E+01           0.79676871E-03
   0.18900000E+01           0.69625850E-03
   0.19000000E+01           0.61811224E-03
   0.19100000E+01           0.54268707E-03
   0.19200000E+01           0.47440476E-03
   0.19300000E+01           0.41105442E-03
   0.19400000E+01           0.34846939E-03
   0.19500000E+01           0.30442177E-03
   0.19600000E+01           0.26879252E-03
   0.19700000E+01           0.22431973E-03
   0.19800000E+01           0.19319728E-03
   0.19900000E+01           0.16198980E-03
   0.20000000E+01           0.67602041E-04
 #T=   142.0000
  -0.20000000E+01           0.00000000E+00
  -0.19900000E+01           0.00000000E+00
  -0.19800000E+01           0.00000000E+00
  -0.19700000E+01           0.00000000E+00
  -0.19600000E+01           0.00000000E+00
  -0.19500000E+01           0.00000000E+00
  -0.19400000E+01           0.00000000E+00
  -0.19300000E+01           0.00000000E+00
  -0.19200000E+01           0.00000000E+00
  -0.19100000E+01           0.00000000E+00
  -0.19000000E+01           0.00000000E+00
  -0.18900000E+01           0.00000000E+00
  -0.18800000E+01           0.00000000E+00
  -0.18700000E+01           0.00000000E+00
  -0.18600000E+01           0.00000000E+00
  -0.18500000E+01           0.00000000E+00
  -0.18400000E+01           0.00000000E+00
  -0.18300000E+01           0.00000000E+00
  -0.18200000E+01           0.00000000E+00
  -0.18100000E+01           0.00000000E+00
  -0.18000000E+01           0.00000000E+00
  -0.17900000E+01           0.00000000E+00
  -0.17800000E+01           0.00000000E+00
  -0.17700000E+01           0.00000000E+00
  -0.17600000E+01           0.00000000E+00
  -0.17500000E+01           0.00000000E+00
  -0.17400000E+01           0.00000000E+00
  -0.17300000E+01           0.00000000E+00
  -0.17200000E+01           0.00000000E+00
  -0.17100000E+01           0.00000000E+00
  -0.17000000E+01           0.00000000E+00
  -0.16900000E+01           0.00000000E+00
  -0.16800000E+01           0.00000000E+00
  -0.16700000E+01           0.00000000E+00
  -0.16600000E+01           0.00000000E+00
  -0.16500000E+01           0.00000000E+00
  -0.16400000E+01           0.00000000E+00
  -0.16300000E+01           0.00000000E+00
  -0.16200000E+01           0.00000000E+00
  -0.16100000E+01           0.00000000E+00
  -0.16000000E+01           0.00000000E+00
  -0.15900000E+01           0.00000000E+00
  -0.15800000E+01           0.00000000E+00
  -0.15700000E+01           0.00000000E+00
  -0.15600000E+01           0.00000000E+00
  -0.15500000E+01           0.00000000E+00
  -0.15400000E+01           0.00000000E+00
  -0.15300000E+01           0.00000000E+00
  -0.15200000E+01           0.00000000E+00
  -0.15100000E+01           0.00000000E+00
  -0.15000000E+01           0.00000000E+00
  -0.14900000E+01           0.00000000E+00
  -0.14800000E+01           0.00000000E+00
  -0.14700000E+01           0.00000000E+00
  -0.14600000E+01           0.00000000E+00
  -0.14500000E+01           0.00000000E+00
  -0.14400000E+01           0.00000000E+00
  -0.14300000E+01           0.00000000E+00
  -0.14200000E+01           0.00000000E+00
  -0.14100000E+01           0.00000000E+00
  -0.14000000E+01           0.00000000E+00
  -0.13900000E+01           0.00000000E+00
  -0.13800000E+01           0.00000000E+00
  -0.13700000E+01           0.00000000E+00
  -0.13600000E+01           0.00000000E+00
  -0.13500000E+01           0.00000000E+00
  -0.13400000E+01           0.00000000E+00
  -0.13300000E+01           0.00000000E+00
  -0.13200000E+01           0.00000000E+00
  -0.13100000E+01           0.00000000E+00
  -0.13000000E+01           0.00000000E+00
  -0.12900000E+01           0.00000000E+00
  -0.12800000E+01           0.00000000E+00
  -0.12700000E+01           0.00000000E+00
  -0.12600000E+01           0.00000000E+00
  -0.12500000E+01           0.00000000E+00
  -0.12400000E+01           0.00000000E+00
  -0.12300000E+01           0.00000000E+00
  -0.12200000E+01           0.00000000E+00
  -0.12100000E+01           0.00000000E+00
  -0.12000000E+01           0.00000000E+00
  -0.11900000E+01           0.00000000E+00
  -0.11800000E+01           0.00000000E+00
  -0.11700000E+01           0.00000000E+00
  -0.11600000E+01           0.00000000E+00
  -0.11500000E+01           0.00000000E+00
  -0.11400000E+01           0.00000000E+00
  -0.11300000E+01           0.00000000E+00
  -0.11200000E+01           0.00000000E+00
  -0.11100000E+01           0.00000000E+00
  -0.11000000E+01           0.00000000E+00
  -0.10900000E+01           0.00000000E+00
  -0.10800000E+01           0.00000000E+00
  -0.10700000E+01           0.00000000E+00
  -0.10600000E+01           0.00000000E+00
  -0.10500000E+01           0.00000000E+00
  -0.10400000E+01           0.00000000E+00
  -0.10300000E+01           0.00000000E+00
  -0.10200000E+01           0.00000000E+00
  -0.10100000E+01           0.00000000E+00
  -0.10000000E+01           0.00000000E+00
  -0.99000000E+00           0.00000000E+00
  -0.98000000E+00           0.00000000E+00
  -0.97000000E+00           0.00000000E+00
  -0.96000000E+00           0.00000000E+00
  -0.95000000E+00           0.00000000E+00
  -0.94000000E+00           0.00000000E+00
  -0.93000000E+00           0.00000000E+00
  -0.92000000E+00           0.00000000E+00
  -0.91000000E+00           0.00000000E+00
  -0.90000000E+00           0.00000000E+00
  -0.89000000E+00           0.00000000E+00
  -0.88000000E+00           0.00000000E+00
  -0.87000000E+00           0.00000000E+00
  -0.86000000E+00           0.00000000E+00
  -0.85000000E+00           0.00000000E+00
  -0.84000000E+00           0.00000000E+00
  -0.83000000E+00           0.00000000E+00
  -0.82000000E+00           0.00000000E+00
  -0.81000000E+00           0.00000000E+00
  -0.80000000E+00           0.00000000E+00
  -0.79000000E+00           0.00000000E+00
  -0.78000000E+00           0.00000000E+00
  -0.77000000E+00           0.00000000E+00
  -0.76000000E+00           0.00000000E+00
  -0.75000000E+00           0.00000000E+00
  -0.74000000E+00           0.00000000E+00
  -0.73000000E+00           0.00000000E+00
  -0.72000000E+00           0.00000000E+00
  -0.71000000E+00           0.00000000E+00
  -0.70000000E+00           0.00000000E+00
  -0.69000000E+00           0.00000000E+00
  -0.68000000E+00           0.00000000E+00
  -0.67000000E+00           0.00000000E+00
  -0.66000000E+00           0.00000000E+00
  -0.65000000E+00           0.00000000E+00
  -0.64000000E+00           0.00000000E+00
  -0.63000000E+00           0.00000000E+00
  -0.62000000E+00           0.00000000E+00
  -0.61000000E+00           0.00000000E+00
  -0.60000000E+00           0.00000000E+00
  -0.59000000E+00           0.00000000E+00
  -0.58000000E+00           0.00000000E+00
  -0.57000000E+00           0.00000000E+00
  -0.56000000E+00           0.00000000E+00
  -0.55000000E+00           0.00000000E+00
  -0.54000000E+00           0.00000000E+00
  -0.53000000E+00           0.00000000E+00
  -0.52000000E+00           0.00000000E+00
  -0.51000000E+00           0.00000000E+00
  -0.50000000E+00           0.00000000E+00
  -0.49000000E+00           0.00000000E+00
  -0.48000000E+00           0.00000000E+00
  -0.47000000E+00           0.00000000E+00
  -0.46000000E+00           0.00000000E+00
  -0.45000000E+00           0.00000000E+00
  -0.44000000E+00           0.00000000E+00
  -0.43000000E+00           0.00000000E+00
  -0.42000000E+00           0.00000000E+00
  -0.41000000E+00           0.00000000E+00
  -0.40000000E+00           0.00000000E+00
  -0.39000000E+00           0.00000000E+00
  -0.38000000E+00           0.00000000E+00
  -0.37000000E+00           0.00000000E+00
  -0.36000000E+00           0.00000000E+00
  -0.35000000E+00           0.00000000E+00
  -0.34000000E+00           0.00000000E+00
  -0.33000000E+00           0.00000000E+00
  -0.32000000E+00           0.00000000E+00
  -0.31000000E+00           0.00000000E+00
  -0.30000000E+00           0.00000000E+00
  -0.29000000E+00           0.00000000E+00
  -0.28000000E+00           0.00000000E+00
  -0.27000000E+00           0.00000000E+00
  -0.26000000E+00           0.00000000E+00
  -0.25000000E+00           0.00000000E+00
  -0.24000000E+00           0.00000000E+00
  -0.23000000E+00           0.00000000E+00
  -0.22000000E+00           0.00000000E+00
  -0.21000000E+00           0.00000000E+00
  -0.20000000E+00           0.00000000E+00
  -0.19000000E+00           0.00000000E+00
  -0.18000000E+00           0.00000000E+00
  -0.17000000E+00           0.00000000E+00
  -0.16000000E+00           0.00000000E+00
  -0.15000000E+00           0.00000000E+00
  -0.14000000E+00           0.00000000E+00
  -0.13000000E+00           0.00000000E+00
  -0.12000000E+00           0.00000000E+00
  -0.11000000E+00           0.00000000E+00
  -0.10000000E+00           0.00000000E+00
  -0.90000000E-01           0.00000000E+00
  -0.80000000E-01           0.00000000E+00
  -0.70000000E-01           0.00000000E+00
  -0.60000000E-01           0.00000000E+00
  -0.50000000E-01           0.00000000E+00
  -0.40000000E-01           0.00000000E+00
  -0.30000000E-01           0.00000000E+00
  -0.20000000E-01           0.00000000E+00
  -0.10000000E-01           0.00000000E+00
   0.00000000E+00           0.58553571E-02
   0.10000000E-01           0.46988861E-01
   0.20000000E-01           0.94178997E-01
   0.30000000E-01           0.14073810E+00
   0.40000000E-01           0.18790213E+00
   0.50000000E-01           0.23403656E+00
   0.60000000E-01           0.28028818E+00
   0.70000000E-01           0.32581488E+00
   0.80000000E-01           0.37184481E+00
   0.90000000E-01           0.41642423E+00
   0.10000000E+00           0.46037449E+00
   0.11000000E+00           0.50354753E+00
   0.12000000E+00           0.54723197E+00
   0.13000000E+00           0.58880238E+00
   0.14000000E+00           0.63084345E+00
   0.15000000E+00           0.67061854E+00
   0.16000000E+00           0.71031947E+00
   0.17000000E+00           0.74951616E+00
   0.18000000E+00           0.78631718E+00
   0.19000000E+00           0.82319966E+00
   0.20000000E+00           0.85990425E+00
   0.21000000E+00           0.89363869E+00
   0.22000000E+00           0.92651701E+00
   0.23000000E+00           0.95949838E+00
   0.24000000E+00           0.99014838E+00
   0.25000000E+00           0.10192244E+01
   0.26000000E+00           0.10473611E+01
   0.27000000E+00           0.10746642E+01
   0.28000000E+00           0.11008830E+01
   0.29000000E+00           0.11237090E+01
   0.30000000E+00           0.11471860E+01
   0.31000000E+00           0.11691153E+01
   0.32000000E+00           0.11889651E+01
   0.33000000E+00           0.12081602E+01
   0.34000000E+00           0.12249500E+01
   0.35000000E+00           0.12416015E+01
   0.36000000E+00           0.12555528E+01
   0.37000000E+00           0.12686596E+01
   0.38000000E+00           0.12804153E+01
   0.39000000E+00           0.12909668E+01
   0.40000000E+00           0.12993221E+01
   0.41000000E+00           0.13076533E+01
   0.42000000E+00           0.13140488E+01
   0.43000000E+00           0.13177287E+01
   0.44000000E+00           0.13224718E+01
   0.45000000E+00           0.13247558E+01
   0.46000000E+00           0.13246358E+01
   0.47000000E+00           0.13238760E+01
   0.48000000E+00           0.13232756E+01
   0.49000000E+00           0.13207412E+01
   0.50000000E+00           0.13169757E+01
   0.51000000E+00           0.13122978E+01
   0.52000000E+00           0.13061319E+01
   0.53000000E+00           0.12983517E+01
   0.54000000E+00           0.12896768E+01
   0.55000000E+00           0.12806136E+01
   0.56000000E+00           0.12707859E+01
   0.57000000E+00           0.12595634E+01
   0.58000000E+00           0.12476423E+01
   0.59000000E+00           0.12355324E+01
   0.60000000E+00           0.12223229E+01
   0.61000000E+00           0.12065304E+01
   0.62000000E+00           0.11924519E+01
   0.63000000E+00           0.11763699E+01
   0.64000000E+00           0.11595481E+01
   0.65000000E+00           0.11422289E+01
   0.66000000E+00           0.11245505E+01
   0.67000000E+00           0.11062308E+01
   0.68000000E+00           0.10878038E+01
   0.69000000E+00           0.10693063E+01
   0.70000000E+00           0.10497338E+01
   0.71000000E+00           0.10299198E+01
   0.72000000E+00           0.10093202E+01
   0.73000000E+00           0.98918512E+00
   0.74000000E+00           0.96779328E+00
   0.75000000E+00           0.94755714E+00
   0.76000000E+00           0.92626684E+00
   0.77000000E+00           0.90495009E+00
   0.78000000E+00           0.88342670E+00
   0.79000000E+00           0.86223810E+00
   0.80000000E+00           0.84059422E+00
   0.81000000E+00           0.81942364E+00
   0.82000000E+00           0.79823418E+00
   0.83000000E+00           0.77681139E+00
   0.84000000E+00           0.75563784E+00
   0.85000000E+00           0.73408835E+00
   0.86000000E+00           0.71306726E+00
   0.87000000E+00           0.69273010E+00
   0.88000000E+00           0.67178656E+00
   0.89000000E+00           0.65137092E+00
   0.90000000E+00           0.63101071E+00
   0.91000000E+00           0.61111981E+00
   0.92000000E+00           0.59102143E+00
   0.93000000E+00           0.57236803E+00
   0.94000000E+00           0.55280536E+00
   0.95000000E+00           0.53376259E+00
   0.96000000E+00           0.51552364E+00
   0.97000000E+00           0.49651122E+00
   0.98000000E+00           0.47899702E+00
   0.99000000E+00           0.46146122E+00
   0.10000000E+01           0.44418206E+00
   0.10100000E+01           0.42750094E+00
   0.10200000E+01           0.41106658E+00
   0.10300000E+01           0.39483554E+00
   0.10400000E+01           0.37961446E+00
   0.10500000E+01           0.36437526E+00
   0.10600000E+01           0.34934073E+00
   0.10700000E+01           0.33449209E+00
   0.10800000E+01           0.32055119E+00
   0.10900000E+01           0.30689294E+00
   0.11000000E+01           0.29367951E+00
   0.11100000E+01           0.28078495E+00
   0.11200000E+01           0.26808673E+00
   0.11300000E+01           0.25601471E+00
   0.11400000E+01           0.24459940E+00
   0.11500000E+01           0.23313274E+00
   0.11600000E+01           0.22202066E+00
   0.11700000E+01           0.21183699E+00
   0.11800000E+01           0.20127398E+00
   0.11900000E+01           0.19163963E+00
   0.12000000E+01           0.18220238E+00
   0.12100000E+01           0.17312917E+00
   0.12200000E+01           0.16436199E+00
   0.12300000E+01           0.15596947E+00
   0.12400000E+01           0.14789515E+00
   0.12500000E+01           0.13998767E+00
   0.12600000E+01           0.13243282E+00
   0.12700000E+01           0.12554813E+00
   0.12800000E+01           0.11832577E+00
   0.12900000E+01           0.11193946E+00
   0.13000000E+01           0.10567942E+00
   0.13100000E+01           0.99710544E-01
   0.13200000E+01           0.94367432E-01
   0.13300000E+01           0.88541752E-01
   0.13400000E+01           0.83679252E-01
   0.13500000E+01           0.78475680E-01
   0.13600000E+01           0.73879252E-01
   0.13700000E+01           0.69522024E-01
   0.13800000E+01           0.65310459E-01
   0.13900000E+01           0.61103571E-01
   0.14000000E+01           0.57357993E-01
   0.14100000E+01           0.53845068E-01
   0.14200000E+01           0.50544303E-01
   0.14300000E+01           0.47068367E-01
   0.14400000E+01           0.44101956E-01
   0.14500000E+01           0.41161735E-01
   0.14600000E+01           0.38329082E-01
   0.14700000E+01           0.35810969E-01
   0.14800000E+01           0.33399575E-01
   0.14900000E+01           0.31102296E-01
   0.15000000E+01           0.28813265E-01
   0.15100000E+01           0.26855697E-01
   0.15200000E+01           0.25068112E-01
   0.15300000E+01           0.23217942E-01
   0.15400000E+01           0.21407653E-01
   0.15500000E+01           0.19908929E-01
   0.15600000E+01           0.18407313E-01
   0.15700000E+01           0.17070663E-01
   0.15800000E+01           0.15744133E-01
   0.15900000E+01           0.14522874E-01
   0.16000000E+01           0.13440561E-01
   0.16100000E+01           0.12333418E-01
   0.16200000E+01           0.11430357E-01
   0.16300000E+01           0.10428571E-01
   0.16400000E+01           0.95687075E-02
   0.16500000E+01           0.88625850E-02
   0.16600000E+01           0.81230442E-02
   0.16700000E+01           0.74754252E-02
   0.16800000E+01           0.67611395E-02
   0.16900000E+01           0.61938776E-02
   0.17000000E+01           0.56370748E-02
   0.17100000E+01           0.51638605E-02
   0.17200000E+01           0.46738095E-02
   0.17300000E+01           0.42536565E-02
   0.17400000E+01           0.38672619E-02
   0.17500000E+01           0.35068027E-02
   0.17600000E+01           0.32026361E-02
   0.17700000E+01           0.28843537E-02
   0.17800000E+01           0.26090136E-02
   0.17900000E+01           0.23400510E-02
   0.18000000E+01           0.21201531E-02
   0.18100000E+01           0.18962585E-02
   0.18200000E+01           0.17115646E-02
   0.18300000E+01           0.15455782E-02
   0.18400000E+01           0.13535714E-02
   0.18500000E+01           0.11955782E-02
   0.18600000E+01           0.10636054E-02
   0.18700000E+01           0.95195578E-03
   0.18800000E+01           0.86981293E-03
   0.18900000E+01           0.77423469E-03
   0.19000000E+01           0.66998299E-03
   0.19100000E+01           0.57465986E-03
   0.19200000E+01           0.51930272E-03
   0.19300000E+01           0.44421769E-03
   0.19400000E+01           0.37993197E-03
   0.19500000E+01           0.33630952E-03
   0.19600000E+01           0.28920068E-03
   0.19700000E+01           0.24778912E-03
   0.19800000E+01           0.20986395E-03
   0.19900000E+01           0.18154762E-03
   0.20000000E+01           0.83758503E-04
 #T=   143.0000
  -0.20000000E+01           0.00000000E+00
  -0.19900000E+01           0.00000000E+00
  -0.19800000E+01           0.00000000E+00
  -0.19700000E+01           0.00000000E+00
  -0.19600000E+01           0.00000000E+00
  -0.19500000E+01           0.00000000E+00
  -0.19400000E+01           0.00000000E+00
  -0.19300000E+01           0.00000000E+00
  -0.19200000E+01           0.00000000E+00
  -0.19100000E+01           0.00000000E+00
  -0.19000000E+01           0.00000000E+00
  -0.18900000E+01           0.00000000E+00
  -0.18800000E+01           0.00000000E+00
  -0.18700000E+01           0.00000000E+00
  -0.18600000E+01           0.00000000E+00
  -0.18500000E+01           0.00000000E+00
  -0.18400000E+01           0.00000000E+00
  -0.18300000E+01           0.00000000E+00
  -0.18200000E+01           0.00000000E+00
  -0.18100000E+01           0.00000000E+00
  -0.18000000E+01           0.00000000E+00
  -0.17900000E+01           0.00000000E+00
  -0.17800000E+01           0.00000000E+00
  -0.17700000E+01           0.00000000E+00
  -0.17600000E+01           0.00000000E+00
  -0.17500000E+01           0.00000000E+00
  -0.17400000E+01           0.00000000E+00
  -0.17300000E+01           0.00000000E+00
  -0.17200000E+01           0.00000000E+00
  -0.17100000E+01           0.00000000E+00
  -0.17000000E+01           0.00000000E+00
  -0.16900000E+01           0.00000000E+00
  -0.16800000E+01           0.00000000E+00
  -0.16700000E+01           0.00000000E+00
  -0.16600000E+01           0.00000000E+00
  -0.16500000E+01           0.00000000E+00
  -0.16400000E+01           0.00000000E+00
  -0.16300000E+01           0.00000000E+00
  -0.16200000E+01           0.00000000E+00
  -0.16100000E+01           0.00000000E+00
  -0.16000000E+01           0.00000000E+00
  -0.15900000E+01           0.00000000E+00
  -0.15800000E+01           0.00000000E+00
  -0.15700000E+01           0.00000000E+00
  -0.15600000E+01           0.00000000E+00
  -0.15500000E+01           0.00000000E+00
  -0.15400000E+01           0.00000000E+00
  -0.15300000E+01           0.00000000E+00
  -0.15200000E+01           0.00000000E+00
  -0.15100000E+01           0.00000000E+00
  -0.15000000E+01           0.00000000E+00
  -0.14900000E+01           0.00000000E+00
  -0.14800000E+01           0.00000000E+00
  -0.14700000E+01           0.00000000E+00
  -0.14600000E+01           0.00000000E+00
  -0.14500000E+01           0.00000000E+00
  -0.14400000E+01           0.00000000E+00
  -0.14300000E+01           0.00000000E+00
  -0.14200000E+01           0.00000000E+00
  -0.14100000E+01           0.00000000E+00
  -0.14000000E+01           0.00000000E+00
  -0.13900000E+01           0.00000000E+00
  -0.13800000E+01           0.00000000E+00
  -0.13700000E+01           0.00000000E+00
  -0.13600000E+01           0.00000000E+00
  -0.13500000E+01           0.00000000E+00
  -0.13400000E+01           0.00000000E+00
  -0.13300000E+01           0.00000000E+00
  -0.13200000E+01           0.00000000E+00
  -0.13100000E+01           0.00000000E+00
  -0.13000000E+01           0.00000000E+00
  -0.12900000E+01           0.00000000E+00
  -0.12800000E+01           0.00000000E+00
  -0.12700000E+01           0.00000000E+00
  -0.12600000E+01           0.00000000E+00
  -0.12500000E+01           0.00000000E+00
  -0.12400000E+01           0.00000000E+00
  -0.12300000E+01           0.00000000E+00
  -0.12200000E+01           0.00000000E+00
  -0.12100000E+01           0.00000000E+00
  -0.12000000E+01           0.00000000E+00
  -0.11900000E+01           0.00000000E+00
  -0.11800000E+01           0.00000000E+00
  -0.11700000E+01           0.00000000E+00
  -0.11600000E+01           0.00000000E+00
  -0.11500000E+01           0.00000000E+00
  -0.11400000E+01           0.00000000E+00
  -0.11300000E+01           0.00000000E+00
  -0.11200000E+01           0.00000000E+00
  -0.11100000E+01           0.00000000E+00
  -0.11000000E+01           0.00000000E+00
  -0.10900000E+01           0.00000000E+00
  -0.10800000E+01           0.00000000E+00
  -0.10700000E+01           0.00000000E+00
  -0.10600000E+01           0.00000000E+00
  -0.10500000E+01           0.00000000E+00
  -0.10400000E+01           0.00000000E+00
  -0.10300000E+01           0.00000000E+00
  -0.10200000E+01           0.00000000E+00
  -0.10100000E+01           0.00000000E+00
  -0.10000000E+01           0.00000000E+00
  -0.99000000E+00           0.00000000E+00
  -0.98000000E+00           0.00000000E+00
  -0.97000000E+00           0.00000000E+00
  -0.96000000E+00           0.00000000E+00
  -0.95000000E+00           0.00000000E+00
  -0.94000000E+00           0.00000000E+00
  -0.93000000E+00           0.00000000E+00
  -0.92000000E+00           0.00000000E+00
  -0.91000000E+00           0.00000000E+00
  -0.90000000E+00           0.00000000E+00
  -0.89000000E+00           0.00000000E+00
  -0.88000000E+00           0.00000000E+00
  -0.87000000E+00           0.00000000E+00
  -0.86000000E+00           0.00000000E+00
  -0.85000000E+00           0.00000000E+00
  -0.84000000E+00           0.00000000E+00
  -0.83000000E+00           0.00000000E+00
  -0.82000000E+00           0.00000000E+00
  -0.81000000E+00           0.00000000E+00
  -0.80000000E+00           0.00000000E+00
  -0.79000000E+00           0.00000000E+00
  -0.78000000E+00           0.00000000E+00
  -0.77000000E+00           0.00000000E+00
  -0.76000000E+00           0.00000000E+00
  -0.75000000E+00           0.00000000E+00
  -0.74000000E+00           0.00000000E+00
  -0.73000000E+00           0.00000000E+00
  -0.72000000E+00           0.00000000E+00
  -0.71000000E+00           0.00000000E+00
  -0.70000000E+00           0.00000000E+00
  -0.69000000E+00           0.00000000E+00
  -0.68000000E+00           0.00000000E+00
  -0.67000000E+00           0.00000000E+00
  -0.66000000E+00           0.00000000E+00
  -0.65000000E+00           0.00000000E+00
  -0.64000000E+00           0.00000000E+00
  -0.63000000E+00           0.00000000E+00
  -0.62000000E+00           0.00000000E+00
  -0.61000000E+00           0.00000000E+00
  -0.60000000E+00           0.00000000E+00
  -0.59000000E+00           0.00000000E+00
  -0.58000000E+00           0.00000000E+00
  -0.57000000E+00           0.00000000E+00
  -0.56000000E+00           0.00000000E+00
  -0.55000000E+00           0.00000000E+00
  -0.54000000E+00           0.00000000E+00
  -0.53000000E+00           0.00000000E+00
  -0.52000000E+00           0.00000000E+00
  -0.51000000E+00           0.00000000E+00
  -0.50000000E+00           0.00000000E+00
  -0.49000000E+00           0.00000000E+00
  -0.48000000E+00           0.00000000E+00
  -0.47000000E+00           0.00000000E+00
  -0.46000000E+00           0.00000000E+00
  -0.45000000E+00           0.00000000E+00
  -0.44000000E+00           0.00000000E+00
  -0.43000000E+00           0.00000000E+00
  -0.42000000E+00           0.00000000E+00
  -0.41000000E+00           0.00000000E+00
  -0.40000000E+00           0.00000000E+00
  -0.39000000E+00           0.00000000E+00
  -0.38000000E+00           0.00000000E+00
  -0.37000000E+00           0.00000000E+00
  -0.36000000E+00           0.00000000E+00
  -0.35000000E+00           0.00000000E+00
  -0.34000000E+00           0.00000000E+00
  -0.33000000E+00           0.00000000E+00
  -0.32000000E+00           0.00000000E+00
  -0.31000000E+00           0.00000000E+00
  -0.30000000E+00           0.00000000E+00
  -0.29000000E+00           0.00000000E+00
  -0.28000000E+00           0.00000000E+00
  -0.27000000E+00           0.00000000E+00
  -0.26000000E+00           0.00000000E+00
  -0.25000000E+00           0.00000000E+00
  -0.24000000E+00           0.00000000E+00
  -0.23000000E+00           0.00000000E+00
  -0.22000000E+00           0.00000000E+00
  -0.21000000E+00           0.00000000E+00
  -0.20000000E+00           0.00000000E+00
  -0.19000000E+00           0.00000000E+00
  -0.18000000E+00           0.00000000E+00
  -0.17000000E+00           0.00000000E+00
  -0.16000000E+00           0.00000000E+00
  -0.15000000E+00           0.00000000E+00
  -0.14000000E+00           0.00000000E+00
  -0.13000000E+00           0.00000000E+00
  -0.12000000E+00           0.00000000E+00
  -0.11000000E+00           0.00000000E+00
  -0.10000000E+00           0.00000000E+00
  -0.90000000E-01           0.00000000E+00
  -0.80000000E-01           0.00000000E+00
  -0.70000000E-01           0.00000000E+00
  -0.60000000E-01           0.00000000E+00
  -0.50000000E-01           0.00000000E+00
  -0.40000000E-01           0.00000000E+00
  -0.30000000E-01           0.00000000E+00
  -0.20000000E-01           0.00000000E+00
  -0.10000000E-01           0.00000000E+00
   0.00000000E+00           0.58892007E-02
   0.10000000E-01           0.46782823E-01
   0.20000000E-01           0.93385714E-01
   0.30000000E-01           0.13997313E+00
   0.40000000E-01           0.18643827E+00
   0.50000000E-01           0.23238622E+00
   0.60000000E-01           0.27795434E+00
   0.70000000E-01           0.32353801E+00
   0.80000000E-01           0.36867568E+00
   0.90000000E-01           0.41340502E+00
   0.10000000E+00           0.45703112E+00
   0.11000000E+00           0.50051446E+00
   0.12000000E+00           0.54284345E+00
   0.13000000E+00           0.58395799E+00
   0.14000000E+00           0.62587764E+00
   0.15000000E+00           0.66598605E+00
   0.16000000E+00           0.70572253E+00
   0.17000000E+00           0.74392321E+00
   0.18000000E+00           0.78145051E+00
   0.19000000E+00           0.81868061E+00
   0.20000000E+00           0.85322432E+00
   0.21000000E+00           0.88748427E+00
   0.22000000E+00           0.92041207E+00
   0.23000000E+00           0.95200043E+00
   0.24000000E+00           0.98314447E+00
   0.25000000E+00           0.10129498E+01
   0.26000000E+00           0.10412687E+01
   0.27000000E+00           0.10674241E+01
   0.28000000E+00           0.10930909E+01
   0.29000000E+00           0.11164850E+01
   0.30000000E+00           0.11399448E+01
   0.31000000E+00           0.11612216E+01
   0.32000000E+00           0.11813137E+01
   0.33000000E+00           0.12013827E+01
   0.34000000E+00           0.12177997E+01
   0.35000000E+00           0.12343683E+01
   0.36000000E+00           0.12493930E+01
   0.37000000E+00           0.12630097E+01
   0.38000000E+00           0.12744401E+01
   0.39000000E+00           0.12840235E+01
   0.40000000E+00           0.12934327E+01
   0.41000000E+00           0.13016570E+01
   0.42000000E+00           0.13068863E+01
   0.43000000E+00           0.13129497E+01
   0.44000000E+00           0.13156276E+01
   0.45000000E+00           0.13189697E+01
   0.46000000E+00           0.13202432E+01
   0.47000000E+00           0.13191842E+01
   0.48000000E+00           0.13177889E+01
   0.49000000E+00           0.13164141E+01
   0.50000000E+00           0.13126382E+01
   0.51000000E+00           0.13076957E+01
   0.52000000E+00           0.13019699E+01
   0.53000000E+00           0.12951230E+01
   0.54000000E+00           0.12877147E+01
   0.55000000E+00           0.12777613E+01
   0.56000000E+00           0.12691747E+01
   0.57000000E+00           0.12578037E+01
   0.58000000E+00           0.12451361E+01
   0.59000000E+00           0.12335406E+01
   0.60000000E+00           0.12204634E+01
   0.61000000E+00           0.12051639E+01
   0.62000000E+00           0.11912785E+01
   0.63000000E+00           0.11757137E+01
   0.64000000E+00           0.11595157E+01
   0.65000000E+00           0.11421622E+01
   0.66000000E+00           0.11248481E+01
   0.67000000E+00           0.11073174E+01
   0.68000000E+00           0.10895397E+01
   0.69000000E+00           0.10695975E+01
   0.70000000E+00           0.10504704E+01
   0.71000000E+00           0.10308816E+01
   0.72000000E+00           0.10110662E+01
   0.73000000E+00           0.99140162E+00
   0.74000000E+00           0.97046998E+00
   0.75000000E+00           0.94964073E+00
   0.76000000E+00           0.92888988E+00
   0.77000000E+00           0.90783316E+00
   0.78000000E+00           0.88667304E+00
   0.79000000E+00           0.86600884E+00
   0.80000000E+00           0.84447457E+00
   0.81000000E+00           0.82306037E+00
   0.82000000E+00           0.80153810E+00
   0.83000000E+00           0.78079473E+00
   0.84000000E+00           0.75936395E+00
   0.85000000E+00           0.73802526E+00
   0.86000000E+00           0.71790714E+00
   0.87000000E+00           0.69689949E+00
   0.88000000E+00           0.67662942E+00
   0.89000000E+00           0.65620646E+00
   0.90000000E+00           0.63562287E+00
   0.91000000E+00           0.61595587E+00
   0.92000000E+00           0.59575213E+00
   0.93000000E+00           0.57670383E+00
   0.94000000E+00           0.55695468E+00
   0.95000000E+00           0.53834116E+00
   0.96000000E+00           0.51954005E+00
   0.97000000E+00           0.50205391E+00
   0.98000000E+00           0.48389889E+00
   0.99000000E+00           0.46659626E+00
   0.10000000E+01           0.44887483E+00
   0.10100000E+01           0.43202517E+00
   0.10200000E+01           0.41565595E+00
   0.10300000E+01           0.39988257E+00
   0.10400000E+01           0.38422942E+00
   0.10500000E+01           0.36921939E+00
   0.10600000E+01           0.35416582E+00
   0.10700000E+01           0.33929294E+00
   0.10800000E+01           0.32533112E+00
   0.10900000E+01           0.31130247E+00
   0.11000000E+01           0.29803316E+00
   0.11100000E+01           0.28527568E+00
   0.11200000E+01           0.27241122E+00
   0.11300000E+01           0.26065017E+00
   0.11400000E+01           0.24821429E+00
   0.11500000E+01           0.23719974E+00
   0.11600000E+01           0.22604158E+00
   0.11700000E+01           0.21552942E+00
   0.11800000E+01           0.20544626E+00
   0.11900000E+01           0.19534983E+00
   0.12000000E+01           0.18559677E+00
   0.12100000E+01           0.17635595E+00
   0.12200000E+01           0.16770519E+00
   0.12300000E+01           0.15916726E+00
   0.12400000E+01           0.15085060E+00
   0.12500000E+01           0.14289685E+00
   0.12600000E+01           0.13540527E+00
   0.12700000E+01           0.12849201E+00
   0.12800000E+01           0.12148444E+00
   0.12900000E+01           0.11497900E+00
   0.13000000E+01           0.10824983E+00
   0.13100000E+01           0.10254932E+00
   0.13200000E+01           0.96236310E-01
   0.13300000E+01           0.91036565E-01
   0.13400000E+01           0.85906293E-01
   0.13500000E+01           0.80790646E-01
   0.13600000E+01           0.75999490E-01
   0.13700000E+01           0.71540391E-01
   0.13800000E+01           0.67197874E-01
   0.13900000E+01           0.63040136E-01
   0.14000000E+01           0.59142517E-01
   0.14100000E+01           0.55497959E-01
   0.14200000E+01           0.51972789E-01
   0.14300000E+01           0.48653146E-01
   0.14400000E+01           0.45427296E-01
   0.14500000E+01           0.42509354E-01
   0.14600000E+01           0.39688690E-01
   0.14700000E+01           0.37117347E-01
   0.14800000E+01           0.34640561E-01
   0.14900000E+01           0.32170663E-01
   0.15000000E+01           0.29898469E-01
   0.15100000E+01           0.27953231E-01
   0.15200000E+01           0.25973044E-01
   0.15300000E+01           0.24062415E-01
   0.15400000E+01           0.22197109E-01
   0.15500000E+01           0.20768793E-01
   0.15600000E+01           0.19281037E-01
   0.15700000E+01           0.17808333E-01
   0.15800000E+01           0.16482058E-01
   0.15900000E+01           0.15180527E-01
   0.16000000E+01           0.14053912E-01
   0.16100000E+01           0.12887245E-01
   0.16200000E+01           0.11936565E-01
   0.16300000E+01           0.10879337E-01
   0.16400000E+01           0.10089201E-01
   0.16500000E+01           0.92940476E-02
   0.16600000E+01           0.84782313E-02
   0.16700000E+01           0.77586735E-02
   0.16800000E+01           0.71242347E-02
   0.16900000E+01           0.65477041E-02
   0.17000000E+01           0.60027211E-02
   0.17100000E+01           0.54510204E-02
   0.17200000E+01           0.49873299E-02
   0.17300000E+01           0.45028061E-02
   0.17400000E+01           0.41052721E-02
   0.17500000E+01           0.37220238E-02
   0.17600000E+01           0.33831633E-02
   0.17700000E+01           0.30663265E-02
   0.17800000E+01           0.27528061E-02
   0.17900000E+01           0.24926871E-02
   0.18000000E+01           0.22511054E-02
   0.18100000E+01           0.20430272E-02
   0.18200000E+01           0.18125000E-02
   0.18300000E+01           0.16314626E-02
   0.18400000E+01           0.14572279E-02
   0.18500000E+01           0.12931122E-02
   0.18600000E+01           0.11647109E-02
   0.18700000E+01           0.10300170E-02
   0.18800000E+01           0.92312925E-03
   0.18900000E+01           0.82278912E-03
   0.19000000E+01           0.71760204E-03
   0.19100000E+01           0.62278912E-03
   0.19200000E+01           0.55586735E-03
   0.19300000E+01           0.48673469E-03
   0.19400000E+01           0.41318027E-03
   0.19500000E+01           0.36130952E-03
   0.19600000E+01           0.30969388E-03
   0.19700000E+01           0.26488095E-03
   0.19800000E+01           0.22763605E-03
   0.19900000E+01           0.20697279E-03
   0.20000000E+01           0.89200680E-04
 #T=   144.0000
  -0.20000000E+01           0.00000000E+00
  -0.19900000E+01           0.00000000E+00
  -0.19800000E+01           0.00000000E+00
  -0.19700000E+01           0.00000000E+00
  -0.19600000E+01           0.00000000E+00
  -0.19500000E+01           0.00000000E+00
  -0.19400000E+01           0.00000000E+00
  -0.19300000E+01           0.00000000E+00
  -0.19200000E+01           0.00000000E+00
  -0.19100000E+01           0.00000000E+00
  -0.19000000E+01           0.00000000E+00
  -0.18900000E+01           0.00000000E+00
  -0.18800000E+01           0.00000000E+00
  -0.18700000E+01           0.00000000E+00
  -0.18600000E+01           0.00000000E+00
  -0.18500000E+01           0.00000000E+00
  -0.18400000E+01           0.00000000E+00
  -0.18300000E+01           0.00000000E+00
  -0.18200000E+01           0.00000000E+00
  -0.18100000E+01           0.00000000E+00
  -0.18000000E+01           0.00000000E+00
  -0.17900000E+01           0.00000000E+00
  -0.17800000E+01           0.00000000E+00
  -0.17700000E+01           0.00000000E+00
  -0.17600000E+01           0.00000000E+00
  -0.17500000E+01           0.00000000E+00
  -0.17400000E+01           0.00000000E+00
  -0.17300000E+01           0.00000000E+00
  -0.17200000E+01           0.00000000E+00
  -0.17100000E+01           0.00000000E+00
  -0.17000000E+01           0.00000000E+00
  -0.16900000E+01           0.00000000E+00
  -0.16800000E+01           0.00000000E+00
  -0.16700000E+01           0.00000000E+00
  -0.16600000E+01           0.00000000E+00
  -0.16500000E+01           0.00000000E+00
  -0.16400000E+01           0.00000000E+00
  -0.16300000E+01           0.00000000E+00
  -0.16200000E+01           0.00000000E+00
  -0.16100000E+01           0.00000000E+00
  -0.16000000E+01           0.00000000E+00
  -0.15900000E+01           0.00000000E+00
  -0.15800000E+01           0.00000000E+00
  -0.15700000E+01           0.00000000E+00
  -0.15600000E+01           0.00000000E+00
  -0.15500000E+01           0.00000000E+00
  -0.15400000E+01           0.00000000E+00
  -0.15300000E+01           0.00000000E+00
  -0.15200000E+01           0.00000000E+00
  -0.15100000E+01           0.00000000E+00
  -0.15000000E+01           0.00000000E+00
  -0.14900000E+01           0.00000000E+00
  -0.14800000E+01           0.00000000E+00
  -0.14700000E+01           0.00000000E+00
  -0.14600000E+01           0.00000000E+00
  -0.14500000E+01           0.00000000E+00
  -0.14400000E+01           0.00000000E+00
  -0.14300000E+01           0.00000000E+00
  -0.14200000E+01           0.00000000E+00
  -0.14100000E+01           0.00000000E+00
  -0.14000000E+01           0.00000000E+00
  -0.13900000E+01           0.00000000E+00
  -0.13800000E+01           0.00000000E+00
  -0.13700000E+01           0.00000000E+00
  -0.13600000E+01           0.00000000E+00
  -0.13500000E+01           0.00000000E+00
  -0.13400000E+01           0.00000000E+00
  -0.13300000E+01           0.00000000E+00
  -0.13200000E+01           0.00000000E+00
  -0.13100000E+01           0.00000000E+00
  -0.13000000E+01           0.00000000E+00
  -0.12900000E+01           0.00000000E+00
  -0.12800000E+01           0.00000000E+00
  -0.12700000E+01           0.00000000E+00
  -0.12600000E+01           0.00000000E+00
  -0.12500000E+01           0.00000000E+00
  -0.12400000E+01           0.00000000E+00
  -0.12300000E+01           0.00000000E+00
  -0.12200000E+01           0.00000000E+00
  -0.12100000E+01           0.00000000E+00
  -0.12000000E+01           0.00000000E+00
  -0.11900000E+01           0.00000000E+00
  -0.11800000E+01           0.00000000E+00
  -0.11700000E+01           0.00000000E+00
  -0.11600000E+01           0.00000000E+00
  -0.11500000E+01           0.00000000E+00
  -0.11400000E+01           0.00000000E+00
  -0.11300000E+01           0.00000000E+00
  -0.11200000E+01           0.00000000E+00
  -0.11100000E+01           0.00000000E+00
  -0.11000000E+01           0.00000000E+00
  -0.10900000E+01           0.00000000E+00
  -0.10800000E+01           0.00000000E+00
  -0.10700000E+01           0.00000000E+00
  -0.10600000E+01           0.00000000E+00
  -0.10500000E+01           0.00000000E+00
  -0.10400000E+01           0.00000000E+00
  -0.10300000E+01           0.00000000E+00
  -0.10200000E+01           0.00000000E+00
  -0.10100000E+01           0.00000000E+00
  -0.10000000E+01           0.00000000E+00
  -0.99000000E+00           0.00000000E+00
  -0.98000000E+00           0.00000000E+00
  -0.97000000E+00           0.00000000E+00
  -0.96000000E+00           0.00000000E+00
  -0.95000000E+00           0.00000000E+00
  -0.94000000E+00           0.00000000E+00
  -0.93000000E+00           0.00000000E+00
  -0.92000000E+00           0.00000000E+00
  -0.91000000E+00           0.00000000E+00
  -0.90000000E+00           0.00000000E+00
  -0.89000000E+00           0.00000000E+00
  -0.88000000E+00           0.00000000E+00
  -0.87000000E+00           0.00000000E+00
  -0.86000000E+00           0.00000000E+00
  -0.85000000E+00           0.00000000E+00
  -0.84000000E+00           0.00000000E+00
  -0.83000000E+00           0.00000000E+00
  -0.82000000E+00           0.00000000E+00
  -0.81000000E+00           0.00000000E+00
  -0.80000000E+00           0.00000000E+00
  -0.79000000E+00           0.00000000E+00
  -0.78000000E+00           0.00000000E+00
  -0.77000000E+00           0.00000000E+00
  -0.76000000E+00           0.00000000E+00
  -0.75000000E+00           0.00000000E+00
  -0.74000000E+00           0.00000000E+00
  -0.73000000E+00           0.00000000E+00
  -0.72000000E+00           0.00000000E+00
  -0.71000000E+00           0.00000000E+00
  -0.70000000E+00           0.00000000E+00
  -0.69000000E+00           0.00000000E+00
  -0.68000000E+00           0.00000000E+00
  -0.67000000E+00           0.00000000E+00
  -0.66000000E+00           0.00000000E+00
  -0.65000000E+00           0.00000000E+00
  -0.64000000E+00           0.00000000E+00
  -0.63000000E+00           0.00000000E+00
  -0.62000000E+00           0.00000000E+00
  -0.61000000E+00           0.00000000E+00
  -0.60000000E+00           0.00000000E+00
  -0.59000000E+00           0.00000000E+00
  -0.58000000E+00           0.00000000E+00
  -0.57000000E+00           0.00000000E+00
  -0.56000000E+00           0.00000000E+00
  -0.55000000E+00           0.00000000E+00
  -0.54000000E+00           0.00000000E+00
  -0.53000000E+00           0.00000000E+00
  -0.52000000E+00           0.00000000E+00
  -0.51000000E+00           0.00000000E+00
  -0.50000000E+00           0.00000000E+00
  -0.49000000E+00           0.00000000E+00
  -0.48000000E+00           0.00000000E+00
  -0.47000000E+00           0.00000000E+00
  -0.46000000E+00           0.00000000E+00
  -0.45000000E+00           0.00000000E+00
  -0.44000000E+00           0.00000000E+00
  -0.43000000E+00           0.00000000E+00
  -0.42000000E+00           0.00000000E+00
  -0.41000000E+00           0.00000000E+00
  -0.40000000E+00           0.00000000E+00
  -0.39000000E+00           0.00000000E+00
  -0.38000000E+00           0.00000000E+00
  -0.37000000E+00           0.00000000E+00
  -0.36000000E+00           0.00000000E+00
  -0.35000000E+00           0.00000000E+00
  -0.34000000E+00           0.00000000E+00
  -0.33000000E+00           0.00000000E+00
  -0.32000000E+00           0.00000000E+00
  -0.31000000E+00           0.00000000E+00
  -0.30000000E+00           0.00000000E+00
  -0.29000000E+00           0.00000000E+00
  -0.28000000E+00           0.00000000E+00
  -0.27000000E+00           0.00000000E+00
  -0.26000000E+00           0.00000000E+00
  -0.25000000E+00           0.00000000E+00
  -0.24000000E+00           0.00000000E+00
  -0.23000000E+00           0.00000000E+00
  -0.22000000E+00           0.00000000E+00
  -0.21000000E+00           0.00000000E+00
  -0.20000000E+00           0.00000000E+00
  -0.19000000E+00           0.00000000E+00
  -0.18000000E+00           0.00000000E+00
  -0.17000000E+00           0.00000000E+00
  -0.16000000E+00           0.00000000E+00
  -0.15000000E+00           0.00000000E+00
  -0.14000000E+00           0.00000000E+00
  -0.13000000E+00           0.00000000E+00
  -0.12000000E+00           0.00000000E+00
  -0.11000000E+00           0.00000000E+00
  -0.10000000E+00           0.00000000E+00
  -0.90000000E-01           0.00000000E+00
  -0.80000000E-01           0.00000000E+00
  -0.70000000E-01           0.00000000E+00
  -0.60000000E-01           0.00000000E+00
  -0.50000000E-01           0.00000000E+00
  -0.40000000E-01           0.00000000E+00
  -0.30000000E-01           0.00000000E+00
  -0.20000000E-01           0.00000000E+00
  -0.10000000E-01           0.00000000E+00
   0.00000000E+00           0.58686224E-02
   0.10000000E-01           0.46221684E-01
   0.20000000E-01           0.92656803E-01
   0.30000000E-01           0.13908929E+00
   0.40000000E-01           0.18507049E+00
   0.50000000E-01           0.23076352E+00
   0.60000000E-01           0.27638138E+00
   0.70000000E-01           0.32161446E+00
   0.80000000E-01           0.36609286E+00
   0.90000000E-01           0.40992959E+00
   0.10000000E+00           0.45361182E+00
   0.11000000E+00           0.49674328E+00
   0.12000000E+00           0.53897083E+00
   0.13000000E+00           0.58007509E+00
   0.14000000E+00           0.62103988E+00
   0.15000000E+00           0.66152517E+00
   0.16000000E+00           0.70005102E+00
   0.17000000E+00           0.73878274E+00
   0.18000000E+00           0.77564711E+00
   0.19000000E+00           0.81160901E+00
   0.20000000E+00           0.84748682E+00
   0.21000000E+00           0.88116709E+00
   0.22000000E+00           0.91383452E+00
   0.23000000E+00           0.94617687E+00
   0.24000000E+00           0.97604855E+00
   0.25000000E+00           0.10057668E+01
   0.26000000E+00           0.10347240E+01
   0.27000000E+00           0.10603202E+01
   0.28000000E+00           0.10877559E+01
   0.29000000E+00           0.11108901E+01
   0.30000000E+00           0.11335227E+01
   0.31000000E+00           0.11543052E+01
   0.32000000E+00           0.11736917E+01
   0.33000000E+00           0.11937494E+01
   0.34000000E+00           0.12121801E+01
   0.35000000E+00           0.12267140E+01
   0.36000000E+00           0.12421770E+01
   0.37000000E+00           0.12568224E+01
   0.38000000E+00           0.12674269E+01
   0.39000000E+00           0.12775031E+01
   0.40000000E+00           0.12880077E+01
   0.41000000E+00           0.12955134E+01
   0.42000000E+00           0.13015566E+01
   0.43000000E+00           0.13077258E+01
   0.44000000E+00           0.13097245E+01
   0.45000000E+00           0.13140469E+01
   0.46000000E+00           0.13141436E+01
   0.47000000E+00           0.13150667E+01
   0.48000000E+00           0.13134969E+01
   0.49000000E+00           0.13121415E+01
[...]
   0.13800000E+01           0.38682934E+00
   0.13900000E+01           0.37824983E+00
   0.14000000E+01           0.36974209E+00
   0.14100000E+01           0.36113903E+00
   0.14200000E+01           0.35272900E+00
   0.14300000E+01           0.34463342E+00
   0.14400000E+01           0.33693019E+00
   0.14500000E+01           0.32859932E+00
   0.14600000E+01           0.32081675E+00
   0.14700000E+01           0.31299898E+00
   0.14800000E+01           0.30514175E+00
   0.14900000E+01           0.29778750E+00
   0.15000000E+01           0.29009082E+00
   0.15100000E+01           0.28293002E+00
   0.15200000E+01           0.27591735E+00
   0.15300000E+01           0.26833172E+00
   0.15400000E+01           0.26116820E+00
   0.15500000E+01           0.25488937E+00
   0.15600000E+01           0.24803835E+00
   0.15700000E+01           0.24113886E+00
   0.15800000E+01           0.23463486E+00
   0.15900000E+01           0.22829541E+00
   0.16000000E+01           0.22199702E+00
   0.16100000E+01           0.21602840E+00
   0.16200000E+01           0.20981803E+00
   0.16300000E+01           0.20408580E+00
   0.16400000E+01           0.19801624E+00
   0.16500000E+01           0.19257594E+00
   0.16600000E+01           0.18692219E+00
   0.16700000E+01           0.18126020E+00
   0.16800000E+01           0.17604549E+00
   0.16900000E+01           0.17084039E+00
   0.17000000E+01           0.16582236E+00
   0.17100000E+01           0.16090587E+00
   0.17200000E+01           0.15602687E+00
   0.17300000E+01           0.15119345E+00
   0.17400000E+01           0.14637151E+00
   0.17500000E+01           0.14200553E+00
   0.17600000E+01           0.13747389E+00
   0.17700000E+01           0.13314337E+00
   0.17800000E+01           0.12892959E+00
   0.17900000E+01           0.12481335E+00
   0.18000000E+01           0.12077398E+00
   0.18100000E+01           0.11674974E+00
   0.18200000E+01           0.11308588E+00
   0.18300000E+01           0.10941207E+00
   0.18400000E+01           0.10587585E+00
   0.18500000E+01           0.10208759E+00
   0.18600000E+01           0.98840646E-01
   0.18700000E+01           0.95501786E-01
   0.18800000E+01           0.92165901E-01
   0.18900000E+01           0.88984524E-01
   0.19000000E+01           0.86026446E-01
   0.19100000E+01           0.82961565E-01
   0.19200000E+01           0.80128486E-01
   0.19300000E+01           0.77172109E-01
   0.19400000E+01           0.74525255E-01
   0.19500000E+01           0.71996173E-01
   0.19600000E+01           0.69332143E-01
   0.19700000E+01           0.66814286E-01
   0.19800000E+01           0.64357908E-01
   0.19900000E+01           0.61942602E-01
   0.20000000E+01           0.30204762E-01
 #T=   259.0000
  -0.20000000E+01           0.00000000E+00
  -0.19900000E+01           0.00000000E+00
  -0.19800000E+01           0.00000000E+00
  -0.19700000E+01           0.00000000E+00
  -0.19600000E+01           0.00000000E+00
  -0.19500000E+01           0.00000000E+00
  -0.19400000E+01           0.00000000E+00
  -0.19300000E+01           0.00000000E+00
  -0.19200000E+01           0.00000000E+00
  -0.19100000E+01           0.00000000E+00
  -0.19000000E+01           0.00000000E+00
  -0.18900000E+01           0.00000000E+00
  -0.18800000E+01           0.00000000E+00
  -0.18700000E+01           0.00000000E+00
  -0.18600000E+01           0.00000000E+00
  -0.18500000E+01           0.00000000E+00
  -0.18400000E+01           0.00000000E+00
  -0.18300000E+01           0.00000000E+00
  -0.18200000E+01           0.00000000E+00
  -0.18100000E+01           0.00000000E+00
  -0.18000000E+01           0.00000000E+00
  -0.17900000E+01           0.00000000E+00
  -0.17800000E+01           0.00000000E+00
  -0.17700000E+01           0.00000000E+00
  -0.17600000E+01           0.00000000E+00
  -0.17500000E+01           0.00000000E+00
  -0.17400000E+01           0.00000000E+00
  -0.17300000E+01           0.00000000E+00
  -0.17200000E+01           0.00000000E+00
  -0.17100000E+01           0.00000000E+00
  -0.17000000E+01           0.00000000E+00
  -0.16900000E+01           0.00000000E+00
  -0.16800000E+01           0.00000000E+00
  -0.16700000E+01           0.00000000E+00
  -0.16600000E+01           0.00000000E+00
  -0.16500000E+01           0.00000000E+00
  -0.16400000E+01           0.00000000E+00
  -0.16300000E+01           0.00000000E+00
  -0.16200000E+01           0.00000000E+00
  -0.16100000E+01           0.00000000E+00
  -0.16000000E+01           0.00000000E+00
  -0.15900000E+01           0.00000000E+00
  -0.15800000E+01           0.00000000E+00
  -0.15700000E+01           0.00000000E+00
  -0.15600000E+01           0.00000000E+00
  -0.15500000E+01           0.00000000E+00
  -0.15400000E+01           0.00000000E+00
  -0.15300000E+01           0.00000000E+00
  -0.15200000E+01           0.00000000E+00
  -0.15100000E+01           0.00000000E+00
  -0.15000000E+01           0.00000000E+00
  -0.14900000E+01           0.00000000E+00
  -0.14800000E+01           0.00000000E+00
  -0.14700000E+01           0.00000000E+00
  -0.14600000E+01           0.00000000E+00
  -0.14500000E+01           0.00000000E+00
  -0.14400000E+01           0.00000000E+00
  -0.14300000E+01           0.00000000E+00
  -0.14200000E+01           0.00000000E+00
  -0.14100000E+01           0.00000000E+00
  -0.14000000E+01           0.00000000E+00
  -0.13900000E+01           0.00000000E+00
  -0.13800000E+01           0.00000000E+00
  -0.13700000E+01           0.00000000E+00
  -0.13600000E+01           0.00000000E+00
  -0.13500000E+01           0.00000000E+00
  -0.13400000E+01           0.00000000E+00
  -0.13300000E+01           0.00000000E+00
  -0.13200000E+01           0.00000000E+00
  -0.13100000E+01           0.00000000E+00
  -0.13000000E+01           0.00000000E+00
  -0.12900000E+01           0.00000000E+00
  -0.12800000E+01           0.00000000E+00
  -0.12700000E+01           0.00000000E+00
  -0.12600000E+01           0.00000000E+00
  -0.12500000E+01           0.00000000E+00
  -0.12400000E+01           0.00000000E+00
  -0.12300000E+01           0.00000000E+00
  -0.12200000E+01           0.00000000E+00
  -0.12100000E+01           0.00000000E+00
  -0.12000000E+01           0.00000000E+00
  -0.11900000E+01           0.00000000E+00
  -0.11800000E+01           0.00000000E+00
  -0.11700000E+01           0.00000000E+00
  -0.11600000E+01           0.00000000E+00
  -0.11500000E+01           0.00000000E+00
  -0.11400000E+01           0.00000000E+00
  -0.11300000E+01           0.00000000E+00
  -0.11200000E+01           0.00000000E+00
  -0.11100000E+01           0.00000000E+00
  -0.11000000E+01           0.00000000E+00
  -0.10900000E+01           0.00000000E+00
  -0.10800000E+01           0.00000000E+00
  -0.10700000E+01           0.00000000E+00
  -0.10600000E+01           0.00000000E+00
  -0.10500000E+01           0.00000000E+00
  -0.10400000E+01           0.00000000E+00
  -0.10300000E+01           0.00000000E+00
  -0.10200000E+01           0.00000000E+00
  -0.10100000E+01           0.00000000E+00
  -0.10000000E+01           0.00000000E+00
  -0.99000000E+00           0.00000000E+00
  -0.98000000E+00           0.00000000E+00
  -0.97000000E+00           0.00000000E+00
  -0.96000000E+00           0.00000000E+00
  -0.95000000E+00           0.00000000E+00
  -0.94000000E+00           0.00000000E+00
  -0.93000000E+00           0.00000000E+00
  -0.92000000E+00           0.00000000E+00
  -0.91000000E+00           0.00000000E+00
  -0.90000000E+00           0.00000000E+00
  -0.89000000E+00           0.00000000E+00
  -0.88000000E+00           0.00000000E+00
  -0.87000000E+00           0.00000000E+00
  -0.86000000E+00           0.00000000E+00
  -0.85000000E+00           0.00000000E+00
  -0.84000000E+00           0.00000000E+00
  -0.83000000E+00           0.00000000E+00
  -0.82000000E+00           0.00000000E+00
  -0.81000000E+00           0.00000000E+00
  -0.80000000E+00           0.00000000E+00
  -0.79000000E+00           0.00000000E+00
  -0.78000000E+00           0.00000000E+00
  -0.77000000E+00           0.00000000E+00
  -0.76000000E+00           0.00000000E+00
  -0.75000000E+00           0.00000000E+00
  -0.74000000E+00           0.00000000E+00
  -0.73000000E+00           0.00000000E+00
  -0.72000000E+00           0.00000000E+00
  -0.71000000E+00           0.00000000E+00
  -0.70000000E+00           0.00000000E+00
  -0.69000000E+00           0.00000000E+00
  -0.68000000E+00           0.00000000E+00
  -0.67000000E+00           0.00000000E+00
  -0.66000000E+00           0.00000000E+00
  -0.65000000E+00           0.00000000E+00
  -0.64000000E+00           0.00000000E+00
  -0.63000000E+00           0.00000000E+00
  -0.62000000E+00           0.00000000E+00
  -0.61000000E+00           0.00000000E+00
  -0.60000000E+00           0.00000000E+00
  -0.59000000E+00           0.00000000E+00
  -0.58000000E+00           0.00000000E+00
  -0.57000000E+00           0.00000000E+00
  -0.56000000E+00           0.00000000E+00
  -0.55000000E+00           0.00000000E+00
  -0.54000000E+00           0.00000000E+00
  -0.53000000E+00           0.00000000E+00
  -0.52000000E+00           0.00000000E+00
  -0.51000000E+00           0.00000000E+00
  -0.50000000E+00           0.00000000E+00
  -0.49000000E+00           0.00000000E+00
  -0.48000000E+00           0.00000000E+00
  -0.47000000E+00           0.00000000E+00
  -0.46000000E+00           0.00000000E+00
  -0.45000000E+00           0.00000000E+00
  -0.44000000E+00           0.00000000E+00
  -0.43000000E+00           0.00000000E+00
  -0.42000000E+00           0.00000000E+00
  -0.41000000E+00           0.00000000E+00
  -0.40000000E+00           0.00000000E+00
  -0.39000000E+00           0.00000000E+00
  -0.38000000E+00           0.00000000E+00
  -0.37000000E+00           0.00000000E+00
  -0.36000000E+00           0.00000000E+00
  -0.35000000E+00           0.00000000E+00
  -0.34000000E+00           0.00000000E+00
  -0.33000000E+00           0.00000000E+00
  -0.32000000E+00           0.00000000E+00
  -0.31000000E+00           0.00000000E+00
  -0.30000000E+00           0.00000000E+00
  -0.29000000E+00           0.00000000E+00
  -0.28000000E+00           0.00000000E+00
  -0.27000000E+00           0.00000000E+00
  -0.26000000E+00           0.00000000E+00
  -0.25000000E+00           0.00000000E+00
  -0.24000000E+00           0.00000000E+00
  -0.23000000E+00           0.00000000E+00
  -0.22000000E+00           0.00000000E+00
  -0.21000000E+00           0.00000000E+00
  -0.20000000E+00           0.00000000E+00
  -0.19000000E+00           0.00000000E+00
  -0.18000000E+00           0.00000000E+00
  -0.17000000E+00           0.00000000E+00
  -0.16000000E+00           0.00000000E+00
  -0.15000000E+00           0.00000000E+00
  -0.14000000E+00           0.00000000E+00
  -0.13000000E+00           0.00000000E+00
  -0.12000000E+00           0.00000000E+00
  -0.11000000E+00           0.00000000E+00
  -0.10000000E+00           0.00000000E+00
  -0.90000000E-01           0.00000000E+00
  -0.80000000E-01           0.00000000E+00
  -0.70000000E-01           0.00000000E+00
  -0.60000000E-01           0.00000000E+00
  -0.50000000E-01           0.00000000E+00
  -0.40000000E-01           0.00000000E+00
  -0.30000000E-01           0.00000000E+00
  -0.20000000E-01           0.00000000E+00
  -0.10000000E-01           0.00000000E+00
   0.00000000E+00           0.27215986E-02
   0.10000000E-01           0.21765646E-01
   0.20000000E-01           0.43539371E-01
   0.30000000E-01           0.65225340E-01
   0.40000000E-01           0.86839966E-01
   0.50000000E-01           0.10853444E+00
   0.60000000E-01           0.12999167E+00
   0.70000000E-01           0.15144541E+00
   0.80000000E-01           0.17324753E+00
   0.90000000E-01           0.19437474E+00
   0.10000000E+00           0.21531250E+00
   0.11000000E+00           0.23653121E+00
   0.12000000E+00           0.25734660E+00
   0.13000000E+00           0.27786531E+00
   0.14000000E+00           0.29864549E+00
   0.15000000E+00           0.31895221E+00
   0.16000000E+00           0.33885816E+00
   0.17000000E+00           0.35867976E+00
   0.18000000E+00           0.37829362E+00
   0.19000000E+00           0.39794464E+00
   0.20000000E+00           0.41701216E+00
   0.21000000E+00           0.43598827E+00
   0.22000000E+00           0.45442032E+00
   0.23000000E+00           0.47316862E+00
   0.24000000E+00           0.49124813E+00
   0.25000000E+00           0.50908937E+00
   0.26000000E+00           0.52646650E+00
   0.27000000E+00           0.54318478E+00
   0.28000000E+00           0.56075060E+00
   0.29000000E+00           0.57733248E+00
   0.30000000E+00           0.59318554E+00
   0.31000000E+00           0.60893155E+00
   0.32000000E+00           0.62352951E+00
   0.33000000E+00           0.63872526E+00
   0.34000000E+00           0.65409991E+00
   0.35000000E+00           0.66829626E+00
   0.36000000E+00           0.68200187E+00
   0.37000000E+00           0.69531879E+00
   0.38000000E+00           0.70798384E+00
   0.39000000E+00           0.72102406E+00
   0.40000000E+00           0.73287398E+00
   0.41000000E+00           0.74500918E+00
   0.42000000E+00           0.75615383E+00
   0.43000000E+00           0.76742662E+00
   0.44000000E+00           0.77815910E+00
   0.45000000E+00           0.78749022E+00
   0.46000000E+00           0.79733503E+00
   0.47000000E+00           0.80694524E+00
   0.48000000E+00           0.81570935E+00
   0.49000000E+00           0.82354821E+00
   0.50000000E+00           0.83164082E+00
   0.51000000E+00           0.83971990E+00
   0.52000000E+00           0.84586395E+00
   0.53000000E+00           0.85290935E+00
   0.54000000E+00           0.85896250E+00
   0.55000000E+00           0.86464065E+00
   0.56000000E+00           0.86927313E+00
   0.57000000E+00           0.87451361E+00
   0.58000000E+00           0.87873929E+00
   0.59000000E+00           0.88352585E+00
   0.60000000E+00           0.88687798E+00
   0.61000000E+00           0.88946420E+00
   0.62000000E+00           0.89231752E+00
   0.63000000E+00           0.89458954E+00
   0.64000000E+00           0.89650485E+00
   0.65000000E+00           0.89845153E+00
   0.66000000E+00           0.89925442E+00
   0.67000000E+00           0.89948172E+00
   0.68000000E+00           0.89996182E+00
   0.69000000E+00           0.89961378E+00
   0.70000000E+00           0.89895213E+00
   0.71000000E+00           0.89850680E+00
   0.72000000E+00           0.89708359E+00
   0.73000000E+00           0.89558274E+00
   0.74000000E+00           0.89399065E+00
   0.75000000E+00           0.89151794E+00
   0.76000000E+00           0.88870544E+00
   0.77000000E+00           0.88603002E+00
   0.78000000E+00           0.88217985E+00
   0.79000000E+00           0.87872117E+00
   0.80000000E+00           0.87454634E+00
   0.81000000E+00           0.87035859E+00
   0.82000000E+00           0.86614328E+00
   0.83000000E+00           0.86105196E+00
   0.84000000E+00           0.85619898E+00
   0.85000000E+00           0.85049991E+00
   0.86000000E+00           0.84454770E+00
   0.87000000E+00           0.83904966E+00
   0.88000000E+00           0.83299379E+00
   0.89000000E+00           0.82639150E+00
   0.90000000E+00           0.82024957E+00
   0.91000000E+00           0.81310765E+00
   0.92000000E+00           0.80586344E+00
   0.93000000E+00           0.79892092E+00
   0.94000000E+00           0.79145876E+00
   0.95000000E+00           0.78358333E+00
   0.96000000E+00           0.77553869E+00
   0.97000000E+00           0.76750757E+00
   0.98000000E+00           0.75986990E+00
   0.99000000E+00           0.75140808E+00
   0.10000000E+01           0.74306182E+00
   0.10100000E+01           0.73424507E+00
   0.10200000E+01           0.72542721E+00
   0.10300000E+01           0.71648163E+00
   0.10400000E+01           0.70795519E+00
   0.10500000E+01           0.69872372E+00
   0.10600000E+01           0.68945391E+00
   0.10700000E+01           0.68035969E+00
   0.10800000E+01           0.67089192E+00
   0.10900000E+01           0.66163852E+00
   0.11000000E+01           0.65243384E+00
   0.11100000E+01           0.64278410E+00
   0.11200000E+01           0.63316973E+00
   0.11300000E+01           0.62363776E+00
   0.11400000E+01           0.61403980E+00
   0.11500000E+01           0.60454847E+00
   0.11600000E+01           0.59454065E+00
   0.11700000E+01           0.58510315E+00
   0.11800000E+01           0.57550595E+00
   0.11900000E+01           0.56621012E+00
   0.12000000E+01           0.55648223E+00
   0.12100000E+01           0.54588010E+00
   0.12200000E+01           0.53649337E+00
   0.12300000E+01           0.52709243E+00
   0.12400000E+01           0.51829872E+00
   0.12500000E+01           0.50841293E+00
   0.12600000E+01           0.49856854E+00
   0.12700000E+01           0.48908452E+00
   0.12800000E+01           0.47982568E+00
   0.12900000E+01           0.47032279E+00
   0.13000000E+01           0.46072415E+00
   0.13100000E+01           0.45179745E+00
   0.13200000E+01           0.44270757E+00
   0.13300000E+01           0.43365119E+00
   0.13400000E+01           0.42457262E+00
   0.13500000E+01           0.41534498E+00
   0.13600000E+01           0.40668138E+00
   0.13700000E+01           0.39764073E+00
   0.13800000E+01           0.38910791E+00
   0.13900000E+01           0.38019073E+00
   0.14000000E+01           0.37232815E+00
   0.14100000E+01           0.36348588E+00
   0.14200000E+01           0.35524770E+00
   0.14300000E+01           0.34707806E+00
   0.14400000E+01           0.33880162E+00
   0.14500000E+01           0.33092296E+00
   0.14600000E+01           0.32308690E+00
   0.14700000E+01           0.31500451E+00
   0.14800000E+01           0.30745901E+00
   0.14900000E+01           0.29989855E+00
   0.15000000E+01           0.29239218E+00
   0.15100000E+01           0.28545128E+00
   0.15200000E+01           0.27787491E+00
   0.15300000E+01           0.27081046E+00
   0.15400000E+01           0.26391514E+00
   0.15500000E+01           0.25679379E+00
   0.15600000E+01           0.25031437E+00
   0.15700000E+01           0.24357474E+00
   0.15800000E+01           0.23681718E+00
   0.15900000E+01           0.23068639E+00
   0.16000000E+01           0.22428308E+00
   0.16100000E+01           0.21803299E+00
   0.16200000E+01           0.21181556E+00
   0.16300000E+01           0.20595544E+00
   0.16400000E+01           0.20038997E+00
   0.16500000E+01           0.19454014E+00
   0.16600000E+01           0.18892347E+00
   0.16700000E+01           0.18313980E+00
   0.16800000E+01           0.17807968E+00
   0.16900000E+01           0.17299218E+00
   0.17000000E+01           0.16761352E+00
   0.17100000E+01           0.16246097E+00
   0.17200000E+01           0.15768946E+00
   0.17300000E+01           0.15302543E+00
   0.17400000E+01           0.14822917E+00
   0.17500000E+01           0.14371556E+00
   0.17600000E+01           0.13927381E+00
   0.17700000E+01           0.13507211E+00
   0.17800000E+01           0.13053665E+00
   0.17900000E+01           0.12637491E+00
   0.18000000E+01           0.12232304E+00
   0.18100000E+01           0.11854906E+00
   0.18200000E+01           0.11481122E+00
   0.18300000E+01           0.11083988E+00
   0.18400000E+01           0.10727704E+00
   0.18500000E+01           0.10377211E+00
   0.18600000E+01           0.10026046E+00
   0.18700000E+01           0.96764966E-01
   0.18800000E+01           0.93705867E-01
   0.18900000E+01           0.90562160E-01
   0.19000000E+01           0.87365306E-01
   0.19100000E+01           0.84307398E-01
   0.19200000E+01           0.81506463E-01
   0.19300000E+01           0.78630272E-01
   0.19400000E+01           0.75730442E-01
   0.19500000E+01           0.73227806E-01
   0.19600000E+01           0.70576871E-01
   0.19700000E+01           0.68045918E-01
   0.19800000E+01           0.65410799E-01
   0.19900000E+01           0.63065051E-01
   0.20000000E+01           0.30697789E-01
