 #written on 28Nov2024 at 17:54:22 
 #----------------------------------------------- MONTECARLO ---------------------------------------------------#
 # Temp      Magnetization     Energy_ave          C_M              Sus              U_E              U_M       #
 #--------------------------------------------------------------------------------------------------------------#
 140.0000   0.46422744E-02  -0.75971021E+03   0.11485590E+01   0.66483653E-04   0.66664456E+00   0.43478359E+00
 141.0000   0.46619680E-02  -0.75854712E+03   0.11530420E+01   0.66487191E-04   0.66664409E+00   0.43490767E+00
 142.0000   0.46838401E-02  -0.75738349E+03   0.11557346E+01   0.66565191E-04   0.66664364E+00   0.43535644E+00
 143.0000   0.47051186E-02  -0.75622991E+03   0.11584061E+01   0.66592190E-04   0.66664319E+00   0.43563725E+00
 144.0000   0.47182010E-02  -0.75507993E+03   0.11645592E+01   0.66459976E-04   0.66664266E+00   0.43619670E+00
 145.0000   0.47403406E-02  -0.75389845E+03   0.11650896E+01   0.66546426E-04   0.66664224E+00   0.43618686E+00
 146.0000   0.47549288E-02  -0.75274556E+03   0.11627132E+01   0.66526174E-04   0.66664188E+00   0.43629251E+00
 147.0000   0.47754338E-02  -0.75158193E+03   0.11722660E+01   0.66619496E-04   0.66664125E+00   0.43641920E+00
 148.0000   0.47982645E-02  -0.75040584E+03   0.11749541E+01   0.66750827E-04   0.66664076E+00   0.43697372E+00
 149.0000   0.48131787E-02  -0.74922715E+03   0.11799896E+01   0.66590706E-04   0.66664022E+00   0.43719423E+00
 150.0000   0.48338803E-02  -0.74805245E+03   0.11774826E+01   0.66659693E-04   0.66663983E+00   0.43784383E+00
 151.0000   0.48531765E-02  -0.74687971E+03   0.11790909E+01   0.66620347E-04   0.66663935E+00   0.43808740E+00
 152.0000   0.48701238E-02  -0.74567708E+03   0.11872655E+01   0.66848667E-04   0.66663871E+00   0.43760668E+00
 153.0000   0.48907698E-02  -0.74448866E+03   0.11926216E+01   0.66966045E-04   0.66663812E+00   0.43725612E+00
 154.0000   0.49083673E-02  -0.74330601E+03   0.11923552E+01   0.66959377E-04   0.66663766E+00   0.43712368E+00
 155.0000   0.49265863E-02  -0.74211426E+03   0.11962413E+01   0.67052552E-04   0.66663709E+00   0.43764084E+00
 156.0000   0.49452232E-02  -0.74090875E+03   0.11999690E+01   0.66916235E-04   0.66663652E+00   0.43839352E+00
 157.0000   0.49641143E-02  -0.73970126E+03   0.12082612E+01   0.66936098E-04   0.66663582E+00   0.43807675E+00
 158.0000   0.49869612E-02  -0.73848943E+03   0.12071590E+01   0.66950953E-04   0.66663535E+00   0.43931295E+00
 159.0000   0.50039912E-02  -0.73729655E+03   0.12136240E+01   0.67158609E-04   0.66663468E+00   0.43871338E+00
 160.0000   0.50166145E-02  -0.73607166E+03   0.12133439E+01   0.67033996E-04   0.66663418E+00   0.43884774E+00
 161.0000   0.50382790E-02  -0.73486448E+03   0.12181907E+01   0.67053671E-04   0.66663353E+00   0.43919310E+00
 162.0000   0.50594190E-02  -0.73364213E+03   0.12257722E+01   0.67148807E-04   0.66663279E+00   0.43955887E+00
 163.0000   0.50746178E-02  -0.73240542E+03   0.12260173E+01   0.67150333E-04   0.66663225E+00   0.44011998E+00
 164.0000   0.50892975E-02  -0.73116678E+03   0.12345465E+01   0.67086291E-04   0.66663147E+00   0.44025391E+00
 165.0000   0.51099631E-02  -0.72994417E+03   0.12427445E+01   0.67176468E-04   0.66663068E+00   0.43997726E+00
 166.0000   0.51317335E-02  -0.72869915E+03   0.12469908E+01   0.67296800E-04   0.66662999E+00   0.44029931E+00
 167.0000   0.51469026E-02  -0.72744160E+03   0.12518835E+01   0.67329920E-04   0.66662928E+00   0.44026724E+00
 168.0000   0.51656923E-02  -0.72618238E+03   0.12610030E+01   0.67330007E-04   0.66662842E+00   0.44045650E+00
 169.0000   0.51793237E-02  -0.72490150E+03   0.12682048E+01   0.67320374E-04   0.66662760E+00   0.44051463E+00
 170.0000   0.52058441E-02  -0.72364381E+03   0.12755313E+01   0.67648155E-04   0.66662677E+00   0.44021633E+00
 171.0000   0.52257284E-02  -0.72238541E+03   0.12757596E+01   0.67565119E-04   0.66662615E+00   0.44163292E+00
 172.0000   0.52378249E-02  -0.72108676E+03   0.12864616E+01   0.67493382E-04   0.66662519E+00   0.44173687E+00
 173.0000   0.52581376E-02  -0.71981437E+03   0.12942106E+01   0.67640546E-04   0.66662430E+00   0.44088941E+00
 174.0000   0.52740832E-02  -0.71851620E+03   0.13023338E+01   0.67624253E-04   0.66662339E+00   0.44083298E+00
 175.0000   0.52904711E-02  -0.71722083E+03   0.13074855E+01   0.67643560E-04   0.66662256E+00   0.44127410E+00
 176.0000   0.53130693E-02  -0.71590142E+03   0.13203176E+01   0.67787780E-04   0.66662145E+00   0.44173653E+00
 177.0000   0.53284289E-02  -0.71456430E+03   0.13237272E+01   0.67744770E-04   0.66662064E+00   0.44216816E+00
 178.0000   0.53508796E-02  -0.71325700E+03   0.13369137E+01   0.68099349E-04   0.66661948E+00   0.44104182E+00
 179.0000   0.53655295E-02  -0.71191942E+03   0.13383538E+01   0.67864228E-04   0.66661872E+00   0.44204721E+00
 180.0000   0.53868070E-02  -0.71056891E+03   0.13535661E+01   0.67964433E-04   0.66661745E+00   0.44246178E+00
 181.0000   0.54034072E-02  -0.70918476E+03   0.13656086E+01   0.67903722E-04   0.66661626E+00   0.44261037E+00
 182.0000   0.54175986E-02  -0.70782100E+03   0.13726378E+01   0.68146156E-04   0.66661524E+00   0.44142790E+00
 183.0000   0.54372479E-02  -0.70645336E+03   0.13812702E+01   0.68076222E-04   0.66661415E+00   0.44237103E+00
 184.0000   0.54592164E-02  -0.70505993E+03   0.13968563E+01   0.68170011E-04   0.66661276E+00   0.44292025E+00
 185.0000   0.54736895E-02  -0.70366518E+03   0.14125507E+01   0.68142228E-04   0.66661134E+00   0.44280808E+00
 186.0000   0.54920422E-02  -0.70225761E+03   0.14176314E+01   0.68476837E-04   0.66661032E+00   0.44191524E+00
 187.0000   0.55099321E-02  -0.70083168E+03   0.14280881E+01   0.68414167E-04   0.66660906E+00   0.44290067E+00
 188.0000   0.55310158E-02  -0.69939607E+03   0.14509537E+01   0.68525558E-04   0.66660726E+00   0.44271249E+00
 189.0000   0.55445345E-02  -0.69795917E+03   0.14510113E+01   0.68615623E-04   0.66660638E+00   0.44233661E+00
 190.0000   0.55663953E-02  -0.69649062E+03   0.14699473E+01   0.68633501E-04   0.66660468E+00   0.44281424E+00
 191.0000   0.55864606E-02  -0.69502807E+03   0.14727875E+01   0.68790416E-04   0.66660364E+00   0.44268430E+00
 192.0000   0.56077641E-02  -0.69356921E+03   0.14868621E+01   0.68930529E-04   0.66660211E+00   0.44314686E+00
 193.0000   0.56232219E-02  -0.69205126E+03   0.15013852E+01   0.68720352E-04   0.66660050E+00   0.44386174E+00
 194.0000   0.56396620E-02  -0.69055470E+03   0.15116686E+01   0.68866997E-04   0.66659907E+00   0.44339417E+00
 195.0000   0.56558852E-02  -0.68901898E+03   0.15260982E+01   0.68969060E-04   0.66659741E+00   0.44308364E+00
 196.0000   0.56742954E-02  -0.68746622E+03   0.15315415E+01   0.68956163E-04   0.66659613E+00   0.44334881E+00
 197.0000   0.56956479E-02  -0.68593885E+03   0.15470611E+01   0.69185905E-04   0.66659436E+00   0.44332464E+00
 198.0000   0.57154255E-02  -0.68436169E+03   0.15553060E+01   0.69350684E-04   0.66659290E+00   0.44332276E+00
 199.0000   0.57312217E-02  -0.68280417E+03   0.15589191E+01   0.69380542E-04   0.66659164E+00   0.44312095E+00
 200.0000   0.57467235E-02  -0.68126649E+03   0.15607016E+01   0.69351325E-04   0.66659045E+00   0.44404997E+00
 201.0000   0.57654661E-02  -0.67967781E+03   0.15714439E+01   0.69640311E-04   0.66658879E+00   0.44275680E+00
 202.0000   0.57846830E-02  -0.67809875E+03   0.15764651E+01   0.69350509E-04   0.66658739E+00   0.44436280E+00
 203.0000   0.57997185E-02  -0.67652625E+03   0.15865063E+01   0.69683018E-04   0.66658572E+00   0.44337648E+00
 204.0000   0.58205520E-02  -0.67494862E+03   0.15866608E+01   0.69499159E-04   0.66658453E+00   0.44448701E+00
 205.0000   0.58454061E-02  -0.67335971E+03   0.15945061E+01   0.69901333E-04   0.66658292E+00   0.44423473E+00
 206.0000   0.58553120E-02  -0.67178128E+03   0.15933193E+01   0.69908135E-04   0.66658176E+00   0.44350031E+00
 207.0000   0.58771785E-02  -0.67018813E+03   0.15818941E+01   0.69910399E-04   0.66658115E+00   0.44417555E+00
 208.0000   0.58927329E-02  -0.66856812E+03   0.15972810E+01   0.70060525E-04   0.66657906E+00   0.44357399E+00
 209.0000   0.59150674E-02  -0.66698636E+03   0.16026247E+01   0.70172455E-04   0.66657750E+00   0.44424683E+00
 210.0000   0.59284465E-02  -0.66537120E+03   0.15913565E+01   0.70200349E-04   0.66657684E+00   0.44422139E+00
 211.0000   0.59495460E-02  -0.66378830E+03   0.15935329E+01   0.70213101E-04   0.66657543E+00   0.44453209E+00
 212.0000   0.59656528E-02  -0.66218663E+03   0.15933120E+01   0.70345210E-04   0.66657412E+00   0.44392336E+00
 213.0000   0.59869037E-02  -0.66058033E+03   0.15882664E+01   0.70628486E-04   0.66657308E+00   0.44390599E+00
 214.0000   0.60014160E-02  -0.65900503E+03   0.15936373E+01   0.70649806E-04   0.66657143E+00   0.44421609E+00
 215.0000   0.60188608E-02  -0.65740833E+03   0.15850128E+01   0.70614074E-04   0.66657060E+00   0.44412689E+00
 216.0000   0.60351995E-02  -0.65583556E+03   0.15824082E+01   0.70710724E-04   0.66656939E+00   0.44433111E+00
 217.0000   0.60552330E-02  -0.65422001E+03   0.15866858E+01   0.70823115E-04   0.66656774E+00   0.44398989E+00
 218.0000   0.60720468E-02  -0.65264312E+03   0.15810767E+01   0.70916022E-04   0.66656669E+00   0.44435777E+00
 219.0000   0.60927083E-02  -0.65106295E+03   0.15829722E+01   0.70941408E-04   0.66656516E+00   0.44455859E+00
 220.0000   0.61081089E-02  -0.64949672E+03   0.15757354E+01   0.71232857E-04   0.66656421E+00   0.44378168E+00
 221.0000   0.61284858E-02  -0.64791656E+03   0.15633063E+01   0.71201414E-04   0.66656359E+00   0.44444380E+00
 222.0000   0.61434890E-02  -0.64636448E+03   0.15713731E+01   0.71242795E-04   0.66656161E+00   0.44421243E+00
 223.0000   0.61575775E-02  -0.64479232E+03   0.15535170E+01   0.71340951E-04   0.66656135E+00   0.44368426E+00
 224.0000   0.61778177E-02  -0.64323684E+03   0.15431458E+01   0.71516797E-04   0.66656061E+00   0.44413102E+00
 225.0000   0.61956410E-02  -0.64169252E+03   0.15431349E+01   0.71375889E-04   0.66655915E+00   0.44443302E+00
 226.0000   0.62150073E-02  -0.64013370E+03   0.15422128E+01   0.71663098E-04   0.66655772E+00   0.44401445E+00
 227.0000   0.62339013E-02  -0.63859773E+03   0.15312061E+01   0.71766750E-04   0.66655702E+00   0.44413078E+00
 228.0000   0.62470162E-02  -0.63712026E+03   0.15171786E+01   0.71734252E-04   0.66655655E+00   0.44432433E+00
 229.0000   0.62648397E-02  -0.63558448E+03   0.15127718E+01   0.71748395E-04   0.66655537E+00   0.44498984E+00
 230.0000   0.62778309E-02  -0.63409564E+03   0.15042007E+01   0.71948390E-04   0.66655451E+00   0.44414882E+00
 231.0000   0.62983007E-02  -0.63257444E+03   0.14997500E+01   0.71777448E-04   0.66655333E+00   0.44502270E+00
 232.0000   0.63154425E-02  -0.63106355E+03   0.15010276E+01   0.71951515E-04   0.66655169E+00   0.44454892E+00
 233.0000   0.63359761E-02  -0.62957183E+03   0.14927367E+01   0.72189172E-04   0.66655079E+00   0.44417518E+00
 234.0000   0.63473679E-02  -0.62811004E+03   0.14830144E+01   0.72061869E-04   0.66655002E+00   0.44459503E+00
 235.0000   0.63621291E-02  -0.62664403E+03   0.14748615E+01   0.72238030E-04   0.66654912E+00   0.44395037E+00
 236.0000   0.63812632E-02  -0.62518520E+03   0.14685829E+01   0.72331721E-04   0.66654807E+00   0.44410285E+00
 237.0000   0.63942095E-02  -0.62371060E+03   0.14601728E+01   0.72227760E-04   0.66654718E+00   0.44452186E+00
 238.0000   0.64201563E-02  -0.62226380E+03   0.14548758E+01   0.72318183E-04   0.66654605E+00   0.44525924E+00
 239.0000   0.64380639E-02  -0.62079803E+03   0.14407375E+01   0.72760660E-04   0.66654565E+00   0.44411631E+00
 240.0000   0.64452078E-02  -0.61934230E+03   0.14417423E+01   0.72702361E-04   0.66654397E+00   0.44331832E+00
 241.0000   0.64647620E-02  -0.61789939E+03   0.14322615E+01   0.72706442E-04   0.66654319E+00   0.44421059E+00
 242.0000   0.64741089E-02  -0.61648054E+03   0.14274815E+01   0.72813377E-04   0.66654201E+00   0.44354190E+00
 243.0000   0.64986575E-02  -0.61506629E+03   0.14164374E+01   0.72849965E-04   0.66654137E+00   0.44391731E+00
 244.0000   0.65113224E-02  -0.61365970E+03   0.14097100E+01   0.72653752E-04   0.66654036E+00   0.44485484E+00
 245.0000   0.65330761E-02  -0.61221641E+03   0.14089935E+01   0.73070239E-04   0.66653879E+00   0.44420395E+00
 246.0000   0.65432911E-02  -0.61082979E+03   0.14006500E+01   0.72921557E-04   0.66653792E+00   0.44425683E+00
 247.0000   0.65640951E-02  -0.60943456E+03   0.13938049E+01   0.73070137E-04   0.66653692E+00   0.44436372E+00
 248.0000   0.65799343E-02  -0.60803496E+03   0.13873084E+01   0.72908712E-04   0.66653586E+00   0.44505317E+00
 249.0000   0.65944714E-02  -0.60664866E+03   0.13815275E+01   0.73229633E-04   0.66653476E+00   0.44376299E+00
 250.0000   0.66063398E-02  -0.60527033E+03   0.13737826E+01   0.73099365E-04   0.66653385E+00   0.44432057E+00
 251.0000   0.66258966E-02  -0.60388471E+03   0.13688258E+01   0.73235980E-04   0.66653265E+00   0.44399875E+00
 252.0000   0.66408495E-02  -0.60251427E+03   0.13590318E+01   0.73218751E-04   0.66653194E+00   0.44462541E+00
 253.0000   0.66581117E-02  -0.60116452E+03   0.13553654E+01   0.73446188E-04   0.66653062E+00   0.44448001E+00
 254.0000   0.66785578E-02  -0.59984574E+03   0.13505435E+01   0.73511917E-04   0.66652943E+00   0.44448995E+00
 255.0000   0.66944743E-02  -0.59848795E+03   0.13472977E+01   0.73451986E-04   0.66652805E+00   0.44506046E+00
 256.0000   0.67067866E-02  -0.59712784E+03   0.13354513E+01   0.73562308E-04   0.66652756E+00   0.44441393E+00
 257.0000   0.67169672E-02  -0.59579892E+03   0.13322715E+01   0.73369123E-04   0.66652618E+00   0.44509119E+00
 258.0000   0.67394821E-02  -0.59445905E+03   0.13208818E+01   0.73780739E-04   0.66652567E+00   0.44424528E+00
 259.0000   0.67535526E-02  -0.59312559E+03   0.13155234E+01   0.73722899E-04   0.66652451E+00   0.44444638E+00
