 #written on 11Aug2024 at 13:54:24 
 #----------------------------------------------- MONTECARLO ---------------------------------------------------#
 # Temp      Magnetization     Energy_ave          C_M              Sus              U_E              U_M       #
 #--------------------------------------------------------------------------------------------------------------#
 390.0000   0.91167393E-02  -0.47754736E+03   0.18862609E+01   0.96321174E-04   0.66600233E+00   0.44195380E+00
 391.0000   0.91173329E-02  -0.47560516E+03   0.18908135E+01   0.96497648E-04   0.66599189E+00   0.44120249E+00
 392.0000   0.91334252E-02  -0.47372149E+03   0.19023907E+01   0.96398454E-04   0.66597890E+00   0.44184183E+00
 393.0000   0.91642448E-02  -0.47180998E+03   0.19060637E+01   0.96636683E-04   0.66596835E+00   0.44188374E+00
 394.0000   0.91727978E-02  -0.46993856E+03   0.19131314E+01   0.96380253E-04   0.66595654E+00   0.44262534E+00
 395.0000   0.91962570E-02  -0.46801275E+03   0.19226390E+01   0.96789835E-04   0.66594347E+00   0.44220338E+00
 396.0000   0.92090933E-02  -0.46608821E+03   0.19338495E+01   0.96929604E-04   0.66592965E+00   0.44158000E+00
 397.0000   0.92266187E-02  -0.46411613E+03   0.19512688E+01   0.96807982E-04   0.66591287E+00   0.44226470E+00
 398.0000   0.92421522E-02  -0.46219156E+03   0.19607314E+01   0.96998457E-04   0.66589913E+00   0.44205858E+00
 399.0000   0.92650756E-02  -0.46023938E+03   0.19624524E+01   0.97199122E-04   0.66588806E+00   0.44258654E+00
 400.0000   0.92819291E-02  -0.45827389E+03   0.19731746E+01   0.97196147E-04   0.66587301E+00   0.44243702E+00
 401.0000   0.92907105E-02  -0.45628220E+03   0.19804887E+01   0.97294033E-04   0.66585925E+00   0.44219380E+00
 402.0000   0.93024119E-02  -0.45425133E+03   0.19930129E+01   0.97312330E-04   0.66584284E+00   0.44239954E+00
 403.0000   0.93302095E-02  -0.45227471E+03   0.20025915E+01   0.97508495E-04   0.66582737E+00   0.44292280E+00
 404.0000   0.93416002E-02  -0.45029967E+03   0.20161587E+01   0.97538987E-04   0.66581017E+00   0.44277214E+00
 405.0000   0.93605665E-02  -0.44829468E+03   0.20231349E+01   0.97455990E-04   0.66579522E+00   0.44294065E+00
 406.0000   0.93716676E-02  -0.44620487E+03   0.20291670E+01   0.97343984E-04   0.66578003E+00   0.44364090E+00
 407.0000   0.93904708E-02  -0.44418983E+03   0.20466738E+01   0.97800834E-04   0.66575974E+00   0.44223000E+00
 408.0000   0.94066218E-02  -0.44215154E+03   0.20510113E+01   0.97888968E-04   0.66574501E+00   0.44272047E+00
 409.0000   0.94271042E-02  -0.44006035E+03   0.20706859E+01   0.97891486E-04   0.66572268E+00   0.44353766E+00
 410.0000   0.94407860E-02  -0.43800792E+03   0.20818559E+01   0.98236527E-04   0.66570410E+00   0.44267981E+00
 411.0000   0.94586741E-02  -0.43592425E+03   0.20880496E+01   0.97873520E-04   0.66568741E+00   0.44319228E+00
 412.0000   0.94717456E-02  -0.43385023E+03   0.21004910E+01   0.98145916E-04   0.66566717E+00   0.44302002E+00
 413.0000   0.94936419E-02  -0.43174337E+03   0.21145124E+01   0.98469274E-04   0.66564560E+00   0.44253192E+00
 414.0000   0.95061930E-02  -0.42961218E+03   0.21271149E+01   0.98177456E-04   0.66562443E+00   0.44374317E+00
 415.0000   0.95281480E-02  -0.42749663E+03   0.21369577E+01   0.98339361E-04   0.66560425E+00   0.44373334E+00
 416.0000   0.95439502E-02  -0.42533361E+03   0.21424410E+01   0.98411343E-04   0.66558563E+00   0.44367814E+00
 417.0000   0.95455630E-02  -0.42321043E+03   0.21581812E+01   0.98571603E-04   0.66556137E+00   0.44293164E+00
 418.0000   0.95774944E-02  -0.42102135E+03   0.21750862E+01   0.98999546E-04   0.66553563E+00   0.44252202E+00
 419.0000   0.95963267E-02  -0.41883954E+03   0.21823855E+01   0.99119351E-04   0.66551443E+00   0.44293408E+00
 420.0000   0.96060762E-02  -0.41664846E+03   0.21990613E+01   0.99008658E-04   0.66548818E+00   0.44305513E+00
 421.0000   0.96306743E-02  -0.41442968E+03   0.22026125E+01   0.99412924E-04   0.66546792E+00   0.44286719E+00
 422.0000   0.96386167E-02  -0.41222720E+03   0.22204240E+01   0.98951101E-04   0.66543940E+00   0.44398327E+00
 423.0000   0.96544585E-02  -0.41001807E+03   0.22439727E+01   0.99121536E-04   0.66540740E+00   0.44359607E+00
 424.0000   0.96763094E-02  -0.40772384E+03   0.22711649E+01   0.99591718E-04   0.66537164E+00   0.44335829E+00
 425.0000   0.96917608E-02  -0.40549395E+03   0.22674021E+01   0.99478063E-04   0.66535313E+00   0.44359151E+00
 426.0000   0.97056765E-02  -0.40322494E+03   0.22742761E+01   0.99593886E-04   0.66532817E+00   0.44340831E+00
 427.0000   0.97271879E-02  -0.40089056E+03   0.22935781E+01   0.99851942E-04   0.66529478E+00   0.44337787E+00
 428.0000   0.97442051E-02  -0.39860934E+03   0.23168925E+01   0.99774059E-04   0.66525852E+00   0.44412505E+00
 429.0000   0.97612942E-02  -0.39628105E+03   0.23327701E+01   0.99880346E-04   0.66522562E+00   0.44387819E+00
 430.0000   0.97820028E-02  -0.39398379E+03   0.23443245E+01   0.99916177E-04   0.66519464E+00   0.44378388E+00
 431.0000   0.97957505E-02  -0.39164686E+03   0.23478825E+01   0.10020974E-03   0.66516759E+00   0.44391277E+00
 432.0000   0.98151099E-02  -0.38930950E+03   0.23672235E+01   0.10038874E-03   0.66513029E+00   0.44350841E+00
 433.0000   0.98333945E-02  -0.38685163E+03   0.23892452E+01   0.10042101E-03   0.66508917E+00   0.44371628E+00
 434.0000   0.98462098E-02  -0.38449502E+03   0.24040325E+01   0.10049524E-03   0.66505207E+00   0.44394052E+00
 435.0000   0.98652563E-02  -0.38207591E+03   0.24248903E+01   0.10046920E-03   0.66501021E+00   0.44398318E+00
 436.0000   0.98864861E-02  -0.37965783E+03   0.24338003E+01   0.10047298E-03   0.66497488E+00   0.44468730E+00
 437.0000   0.99022566E-02  -0.37718430E+03   0.24411777E+01   0.10090213E-03   0.66494012E+00   0.44397704E+00
 438.0000   0.99119562E-02  -0.37478947E+03   0.24550014E+01   0.10088203E-03   0.66489952E+00   0.44377185E+00
 439.0000   0.99414590E-02  -0.37231234E+03   0.24706653E+01   0.10142945E-03   0.66485622E+00   0.44349703E+00
 440.0000   0.99429434E-02  -0.36988735E+03   0.24722615E+01   0.10099203E-03   0.66482279E+00   0.44387588E+00
 441.0000   0.99570854E-02  -0.36735408E+03   0.24834210E+01   0.10087400E-03   0.66478028E+00   0.44429298E+00
 442.0000   0.99871089E-02  -0.36490592E+03   0.24936696E+01   0.10137560E-03   0.66473815E+00   0.44397820E+00
 443.0000   0.10002307E-01  -0.36238245E+03   0.24919776E+01   0.10161561E-03   0.66470321E+00   0.44361465E+00
 444.0000   0.10018269E-01  -0.35997222E+03   0.24910641E+01   0.10152148E-03   0.66466827E+00   0.44449819E+00
 445.0000   0.10038006E-01  -0.35747713E+03   0.25041180E+01   0.10154036E-03   0.66461939E+00   0.44417193E+00
 446.0000   0.10054535E-01  -0.35489017E+03   0.24911056E+01   0.10170114E-03   0.66458947E+00   0.44450398E+00
 447.0000   0.10071144E-01  -0.35238331E+03   0.24775375E+01   0.10208610E-03   0.66456160E+00   0.44362134E+00
 448.0000   0.10092844E-01  -0.34991471E+03   0.24531285E+01   0.10197012E-03   0.66454246E+00   0.44461861E+00
 449.0000   0.10104578E-01  -0.34749462E+03   0.24248551E+01   0.10198046E-03   0.66452692E+00   0.44442127E+00
 450.0000   0.10123080E-01  -0.34506314E+03   0.24094446E+01   0.10225033E-03   0.66450003E+00   0.44416385E+00
 451.0000   0.10138606E-01  -0.34268152E+03   0.23756020E+01   0.10235678E-03   0.66448941E+00   0.44431951E+00
 452.0000   0.10154862E-01  -0.34032705E+03   0.23395587E+01   0.10243155E-03   0.66448128E+00   0.44456006E+00
 453.0000   0.10176781E-01  -0.33803302E+03   0.22927826E+01   0.10245862E-03   0.66448560E+00   0.44521210E+00
 454.0000   0.10185277E-01  -0.33578837E+03   0.22425166E+01   0.10275509E-03   0.66449399E+00   0.44398444E+00
 455.0000   0.10211687E-01  -0.33356994E+03   0.21956272E+01   0.10268657E-03   0.66449966E+00   0.44483384E+00
 456.0000   0.10227036E-01  -0.33134894E+03   0.21463777E+01   0.10291885E-03   0.66450981E+00   0.44436689E+00
 457.0000   0.10238624E-01  -0.32926212E+03   0.20873892E+01   0.10289053E-03   0.66453251E+00   0.44473110E+00
 458.0000   0.10250532E-01  -0.32721420E+03   0.20233290E+01   0.10310207E-03   0.66456230E+00   0.44402121E+00
 459.0000   0.10251018E-01  -0.32520088E+03   0.19760469E+01   0.10289051E-03   0.66457564E+00   0.44391594E+00
 460.0000   0.10278197E-01  -0.32321993E+03   0.19189929E+01   0.10315166E-03   0.66460155E+00   0.44414780E+00
 461.0000   0.10290745E-01  -0.32135261E+03   0.18576951E+01   0.10357091E-03   0.66463522E+00   0.44367748E+00
 462.0000   0.10320950E-01  -0.31948912E+03   0.18135031E+01   0.10348028E-03   0.66465146E+00   0.44469885E+00
 463.0000   0.10324514E-01  -0.31772603E+03   0.17588268E+01   0.10330736E-03   0.66468139E+00   0.44453024E+00
 464.0000   0.10338774E-01  -0.31595746E+03   0.16966790E+01   0.10329511E-03   0.66472243E+00   0.44467137E+00
 465.0000   0.10352248E-01  -0.31433239E+03   0.16543816E+01   0.10354489E-03   0.66474251E+00   0.44455468E+00
 466.0000   0.10362162E-01  -0.31273362E+03   0.16144724E+01   0.10335980E-03   0.66476176E+00   0.44437279E+00
 467.0000   0.10375739E-01  -0.31111730E+03   0.15673336E+01   0.10326975E-03   0.66479008E+00   0.44471500E+00
 468.0000   0.10385949E-01  -0.30956827E+03   0.15220333E+01   0.10350627E-03   0.66481843E+00   0.44428409E+00
 469.0000   0.10399485E-01  -0.30808695E+03   0.14879899E+01   0.10329349E-03   0.66483486E+00   0.44502007E+00
 470.0000   0.10413863E-01  -0.30660955E+03   0.14469606E+01   0.10374498E-03   0.66486042E+00   0.44441641E+00
 471.0000   0.10426640E-01  -0.30515359E+03   0.14095123E+01   0.10356522E-03   0.66488334E+00   0.44458125E+00
 472.0000   0.10449837E-01  -0.30377233E+03   0.13746747E+01   0.10405682E-03   0.66490399E+00   0.44360059E+00
 473.0000   0.10457583E-01  -0.30245825E+03   0.13462336E+01   0.10390994E-03   0.66491870E+00   0.44387422E+00
 474.0000   0.10475788E-01  -0.30112641E+03   0.13145001E+01   0.10365030E-03   0.66493795E+00   0.44508888E+00
 475.0000   0.10478844E-01  -0.29977887E+03   0.12862556E+01   0.10393561E-03   0.66495292E+00   0.44417570E+00
 476.0000   0.10497384E-01  -0.29849260E+03   0.12634013E+01   0.10392018E-03   0.66496180E+00   0.44432719E+00
 477.0000   0.10507105E-01  -0.29721643E+03   0.12361048E+01   0.10397444E-03   0.66497737E+00   0.44399884E+00
 478.0000   0.10509167E-01  -0.29600303E+03   0.12129560E+01   0.10389508E-03   0.66498862E+00   0.44390972E+00
 479.0000   0.10529290E-01  -0.29483845E+03   0.11963737E+01   0.10377029E-03   0.66499174E+00   0.44445453E+00
 480.0000   0.10542914E-01  -0.29364557E+03   0.11708913E+01   0.10385295E-03   0.66500769E+00   0.44475453E+00
 481.0000   0.10553036E-01  -0.29249712E+03   0.11522167E+01   0.10365865E-03   0.66501448E+00   0.44515320E+00
 482.0000   0.10566551E-01  -0.29131378E+03   0.11297515E+01   0.10405933E-03   0.66502670E+00   0.44400599E+00
 483.0000   0.10577236E-01  -0.29022349E+03   0.11164425E+01   0.10395306E-03   0.66502722E+00   0.44414827E+00
 484.0000   0.10584134E-01  -0.28909051E+03   0.10920261E+01   0.10426531E-03   0.66504406E+00   0.44353658E+00
 485.0000   0.10590801E-01  -0.28801575E+03   0.10779229E+01   0.10391976E-03   0.66504676E+00   0.44426461E+00
 486.0000   0.10610770E-01  -0.28694626E+03   0.10640690E+01   0.10397432E-03   0.66504913E+00   0.44431546E+00
 487.0000   0.10613656E-01  -0.28587963E+03   0.10426969E+01   0.10360064E-03   0.66506326E+00   0.44502196E+00
 488.0000   0.10627433E-01  -0.28481940E+03   0.10306958E+01   0.10397152E-03   0.66506350E+00   0.44406360E+00
 489.0000   0.10638809E-01  -0.28384013E+03   0.10164247E+01   0.10402316E-03   0.66506817E+00   0.44431396E+00
