 #written on 11Aug2024 at 13:54:25 
 #----------------- MONTECARLO -------------------#
 #        M                      P(M)             #
 #------------------------------------------------#
 #T=   390.0000
  -0.40000000E+01           0.00000000E+00
  -0.39900000E+01           0.00000000E+00
  -0.39800000E+01           0.00000000E+00
  -0.39700000E+01           0.00000000E+00
  -0.39600000E+01           0.00000000E+00
  -0.39500000E+01           0.00000000E+00
  -0.39400000E+01           0.00000000E+00
  -0.39300000E+01           0.00000000E+00
  -0.39200000E+01           0.00000000E+00
  -0.39100000E+01           0.00000000E+00
  -0.39000000E+01           0.00000000E+00
  -0.38900000E+01           0.00000000E+00
  -0.38800000E+01           0.00000000E+00
  -0.38700000E+01           0.00000000E+00
  -0.38600000E+01           0.00000000E+00
  -0.38500000E+01           0.00000000E+00
  -0.38400000E+01           0.00000000E+00
  -0.38300000E+01           0.00000000E+00
  -0.38200000E+01           0.00000000E+00
  -0.38100000E+01           0.00000000E+00
  -0.38000000E+01           0.00000000E+00
  -0.37900000E+01           0.00000000E+00
  -0.37800000E+01           0.00000000E+00
  -0.37700000E+01           0.00000000E+00
  -0.37600000E+01           0.00000000E+00
  -0.37500000E+01           0.00000000E+00
  -0.37400000E+01           0.00000000E+00
  -0.37300000E+01           0.00000000E+00
  -0.37200000E+01           0.00000000E+00
  -0.37100000E+01           0.00000000E+00
  -0.37000000E+01           0.00000000E+00
  -0.36900000E+01           0.00000000E+00
  -0.36800000E+01           0.00000000E+00
  -0.36700000E+01           0.00000000E+00
  -0.36600000E+01           0.00000000E+00
  -0.36500000E+01           0.00000000E+00
  -0.36400000E+01           0.00000000E+00
  -0.36300000E+01           0.00000000E+00
  -0.36200000E+01           0.00000000E+00
  -0.36100000E+01           0.00000000E+00
  -0.36000000E+01           0.00000000E+00
  -0.35900000E+01           0.00000000E+00
  -0.35800000E+01           0.00000000E+00
  -0.35700000E+01           0.00000000E+00
  -0.35600000E+01           0.00000000E+00
  -0.35500000E+01           0.00000000E+00
  -0.35400000E+01           0.00000000E+00
  -0.35300000E+01           0.00000000E+00
  -0.35200000E+01           0.00000000E+00
  -0.35100000E+01           0.00000000E+00
  -0.35000000E+01           0.00000000E+00
  -0.34900000E+01           0.00000000E+00
  -0.34800000E+01           0.00000000E+00
  -0.34700000E+01           0.00000000E+00
  -0.34600000E+01           0.00000000E+00
  -0.34500000E+01           0.00000000E+00
  -0.34400000E+01           0.00000000E+00
  -0.34300000E+01           0.00000000E+00
  -0.34200000E+01           0.00000000E+00
  -0.34100000E+01           0.00000000E+00
  -0.34000000E+01           0.00000000E+00
  -0.33900000E+01           0.00000000E+00
  -0.33800000E+01           0.00000000E+00
  -0.33700000E+01           0.00000000E+00
  -0.33600000E+01           0.00000000E+00
  -0.33500000E+01           0.00000000E+00
  -0.33400000E+01           0.00000000E+00
  -0.33300000E+01           0.00000000E+00
  -0.33200000E+01           0.00000000E+00
  -0.33100000E+01           0.00000000E+00
  -0.33000000E+01           0.00000000E+00
  -0.32900000E+01           0.00000000E+00
  -0.32800000E+01           0.00000000E+00
  -0.32700000E+01           0.00000000E+00
  -0.32600000E+01           0.00000000E+00
  -0.32500000E+01           0.00000000E+00
  -0.32400000E+01           0.00000000E+00
  -0.32300000E+01           0.00000000E+00
  -0.32200000E+01           0.00000000E+00
  -0.32100000E+01           0.00000000E+00
  -0.32000000E+01           0.00000000E+00
  -0.31900000E+01           0.00000000E+00
  -0.31800000E+01           0.00000000E+00
  -0.31700000E+01           0.00000000E+00
  -0.31600000E+01           0.00000000E+00
  -0.31500000E+01           0.00000000E+00
  -0.31400000E+01           0.00000000E+00
  -0.31300000E+01           0.00000000E+00
  -0.31200000E+01           0.00000000E+00
  -0.31100000E+01           0.00000000E+00
  -0.31000000E+01           0.00000000E+00
  -0.30900000E+01           0.00000000E+00
  -0.30800000E+01           0.00000000E+00
  -0.30700000E+01           0.00000000E+00
  -0.30600000E+01           0.00000000E+00
  -0.30500000E+01           0.00000000E+00
  -0.30400000E+01           0.00000000E+00
  -0.30300000E+01           0.00000000E+00
  -0.30200000E+01           0.00000000E+00
  -0.30100000E+01           0.00000000E+00
  -0.30000000E+01           0.00000000E+00
  -0.29900000E+01           0.00000000E+00
  -0.29800000E+01           0.00000000E+00
  -0.29700000E+01           0.00000000E+00
  -0.29600000E+01           0.00000000E+00
  -0.29500000E+01           0.00000000E+00
  -0.29400000E+01           0.00000000E+00
  -0.29300000E+01           0.00000000E+00
  -0.29200000E+01           0.00000000E+00
  -0.29100000E+01           0.00000000E+00
  -0.29000000E+01           0.00000000E+00
  -0.28900000E+01           0.00000000E+00
  -0.28800000E+01           0.00000000E+00
  -0.28700000E+01           0.00000000E+00
  -0.28600000E+01           0.00000000E+00
  -0.28500000E+01           0.00000000E+00
  -0.28400000E+01           0.00000000E+00
  -0.28300000E+01           0.00000000E+00
  -0.28200000E+01           0.00000000E+00
  -0.28100000E+01           0.00000000E+00
  -0.28000000E+01           0.00000000E+00
  -0.27900000E+01           0.00000000E+00
  -0.27800000E+01           0.00000000E+00
  -0.27700000E+01           0.00000000E+00
  -0.27600000E+01           0.00000000E+00
  -0.27500000E+01           0.00000000E+00
  -0.27400000E+01           0.00000000E+00
  -0.27300000E+01           0.00000000E+00
  -0.27200000E+01           0.00000000E+00
  -0.27100000E+01           0.00000000E+00
  -0.27000000E+01           0.00000000E+00
  -0.26900000E+01           0.00000000E+00
  -0.26800000E+01           0.00000000E+00
  -0.26700000E+01           0.00000000E+00
  -0.26600000E+01           0.00000000E+00
  -0.26500000E+01           0.00000000E+00
  -0.26400000E+01           0.00000000E+00
  -0.26300000E+01           0.00000000E+00
  -0.26200000E+01           0.00000000E+00
  -0.26100000E+01           0.00000000E+00
  -0.26000000E+01           0.00000000E+00
  -0.25900000E+01           0.00000000E+00
  -0.25800000E+01           0.00000000E+00
  -0.25700000E+01           0.00000000E+00
  -0.25600000E+01           0.00000000E+00
  -0.25500000E+01           0.00000000E+00
  -0.25400000E+01           0.00000000E+00
  -0.25300000E+01           0.00000000E+00
  -0.25200000E+01           0.00000000E+00
  -0.25100000E+01           0.00000000E+00
  -0.25000000E+01           0.00000000E+00
  -0.24900000E+01           0.00000000E+00
  -0.24800000E+01           0.00000000E+00
  -0.24700000E+01           0.00000000E+00
  -0.24600000E+01           0.00000000E+00
  -0.24500000E+01           0.00000000E+00
  -0.24400000E+01           0.00000000E+00
  -0.24300000E+01           0.00000000E+00
  -0.24200000E+01           0.00000000E+00
  -0.24100000E+01           0.00000000E+00
  -0.24000000E+01           0.00000000E+00
  -0.23900000E+01           0.00000000E+00
  -0.23800000E+01           0.00000000E+00
  -0.23700000E+01           0.00000000E+00
  -0.23600000E+01           0.00000000E+00
  -0.23500000E+01           0.00000000E+00
  -0.23400000E+01           0.00000000E+00
  -0.23300000E+01           0.00000000E+00
  -0.23200000E+01           0.00000000E+00
  -0.23100000E+01           0.00000000E+00
  -0.23000000E+01           0.00000000E+00
  -0.22900000E+01           0.00000000E+00
  -0.22800000E+01           0.00000000E+00
  -0.22700000E+01           0.00000000E+00
  -0.22600000E+01           0.00000000E+00
  -0.22500000E+01           0.00000000E+00
  -0.22400000E+01           0.00000000E+00
  -0.22300000E+01           0.00000000E+00
  -0.22200000E+01           0.00000000E+00
  -0.22100000E+01           0.00000000E+00
  -0.22000000E+01           0.00000000E+00
  -0.21900000E+01           0.00000000E+00
  -0.21800000E+01           0.00000000E+00
  -0.21700000E+01           0.00000000E+00
  -0.21600000E+01           0.00000000E+00
  -0.21500000E+01           0.00000000E+00
  -0.21400000E+01           0.00000000E+00
  -0.21300000E+01           0.00000000E+00
  -0.21200000E+01           0.00000000E+00
  -0.21100000E+01           0.00000000E+00
  -0.21000000E+01           0.00000000E+00
  -0.20900000E+01           0.00000000E+00
  -0.20800000E+01           0.00000000E+00
  -0.20700000E+01           0.00000000E+00
  -0.20600000E+01           0.00000000E+00
  -0.20500000E+01           0.00000000E+00
  -0.20400000E+01           0.00000000E+00
  -0.20300000E+01           0.00000000E+00
  -0.20200000E+01           0.00000000E+00
  -0.20100000E+01           0.00000000E+00
  -0.20000000E+01           0.00000000E+00
  -0.19900000E+01           0.00000000E+00
  -0.19800000E+01           0.00000000E+00
  -0.19700000E+01           0.00000000E+00
  -0.19600000E+01           0.00000000E+00
  -0.19500000E+01           0.00000000E+00
  -0.19400000E+01           0.00000000E+00
  -0.19300000E+01           0.00000000E+00
  -0.19200000E+01           0.00000000E+00
  -0.19100000E+01           0.00000000E+00
  -0.19000000E+01           0.00000000E+00
  -0.18900000E+01           0.00000000E+00
  -0.18800000E+01           0.00000000E+00
  -0.18700000E+01           0.00000000E+00
  -0.18600000E+01           0.00000000E+00
  -0.18500000E+01           0.00000000E+00
  -0.18400000E+01           0.00000000E+00
  -0.18300000E+01           0.00000000E+00
  -0.18200000E+01           0.00000000E+00
  -0.18100000E+01           0.00000000E+00
  -0.18000000E+01           0.00000000E+00
  -0.17900000E+01           0.00000000E+00
  -0.17800000E+01           0.00000000E+00
  -0.17700000E+01           0.00000000E+00
  -0.17600000E+01           0.00000000E+00
  -0.17500000E+01           0.00000000E+00
  -0.17400000E+01           0.00000000E+00
  -0.17300000E+01           0.00000000E+00
  -0.17200000E+01           0.00000000E+00
  -0.17100000E+01           0.00000000E+00
  -0.17000000E+01           0.00000000E+00
  -0.16900000E+01           0.00000000E+00
  -0.16800000E+01           0.00000000E+00
  -0.16700000E+01           0.00000000E+00
  -0.16600000E+01           0.00000000E+00
  -0.16500000E+01           0.00000000E+00
  -0.16400000E+01           0.00000000E+00
  -0.16300000E+01           0.00000000E+00
  -0.16200000E+01           0.00000000E+00
  -0.16100000E+01           0.00000000E+00
  -0.16000000E+01           0.00000000E+00
  -0.15900000E+01           0.00000000E+00
  -0.15800000E+01           0.00000000E+00
  -0.15700000E+01           0.00000000E+00
  -0.15600000E+01           0.00000000E+00
  -0.15500000E+01           0.00000000E+00
  -0.15400000E+01           0.00000000E+00
  -0.15300000E+01           0.00000000E+00
  -0.15200000E+01           0.00000000E+00
  -0.15100000E+01           0.00000000E+00
  -0.15000000E+01           0.00000000E+00
  -0.14900000E+01           0.00000000E+00
  -0.14800000E+01           0.00000000E+00
  -0.14700000E+01           0.00000000E+00
  -0.14600000E+01           0.00000000E+00
  -0.14500000E+01           0.00000000E+00
  -0.14400000E+01           0.00000000E+00
  -0.14300000E+01           0.00000000E+00
  -0.14200000E+01           0.00000000E+00
  -0.14100000E+01           0.00000000E+00
  -0.14000000E+01           0.00000000E+00
  -0.13900000E+01           0.00000000E+00
  -0.13800000E+01           0.00000000E+00
  -0.13700000E+01           0.00000000E+00
  -0.13600000E+01           0.00000000E+00
  -0.13500000E+01           0.00000000E+00
  -0.13400000E+01           0.00000000E+00
  -0.13300000E+01           0.00000000E+00
  -0.13200000E+01           0.00000000E+00
  -0.13100000E+01           0.00000000E+00
  -0.13000000E+01           0.00000000E+00
  -0.12900000E+01           0.00000000E+00
  -0.12800000E+01           0.00000000E+00
  -0.12700000E+01           0.00000000E+00
  -0.12600000E+01           0.00000000E+00
  -0.12500000E+01           0.00000000E+00
  -0.12400000E+01           0.00000000E+00
  -0.12300000E+01           0.00000000E+00
  -0.12200000E+01           0.00000000E+00
  -0.12100000E+01           0.00000000E+00
  -0.12000000E+01           0.00000000E+00
  -0.11900000E+01           0.00000000E+00
  -0.11800000E+01           0.00000000E+00
  -0.11700000E+01           0.00000000E+00
  -0.11600000E+01           0.00000000E+00
  -0.11500000E+01           0.00000000E+00
  -0.11400000E+01           0.00000000E+00
  -0.11300000E+01           0.00000000E+00
  -0.11200000E+01           0.00000000E+00
  -0.11100000E+01           0.00000000E+00
  -0.11000000E+01           0.00000000E+00
  -0.10900000E+01           0.00000000E+00
  -0.10800000E+01           0.00000000E+00
  -0.10700000E+01           0.00000000E+00
  -0.10600000E+01           0.00000000E+00
  -0.10500000E+01           0.00000000E+00
  -0.10400000E+01           0.00000000E+00
  -0.10300000E+01           0.00000000E+00
  -0.10200000E+01           0.00000000E+00
  -0.10100000E+01           0.00000000E+00
  -0.10000000E+01           0.00000000E+00
  -0.99000000E+00           0.00000000E+00
  -0.98000000E+00           0.00000000E+00
  -0.97000000E+00           0.00000000E+00
  -0.96000000E+00           0.00000000E+00
  -0.95000000E+00           0.00000000E+00
  -0.94000000E+00           0.00000000E+00
  -0.93000000E+00           0.00000000E+00
  -0.92000000E+00           0.00000000E+00
  -0.91000000E+00           0.00000000E+00
  -0.90000000E+00           0.00000000E+00
  -0.89000000E+00           0.00000000E+00
  -0.88000000E+00           0.00000000E+00
  -0.87000000E+00           0.00000000E+00
  -0.86000000E+00           0.00000000E+00
  -0.85000000E+00           0.00000000E+00
  -0.84000000E+00           0.00000000E+00
  -0.83000000E+00           0.00000000E+00
  -0.82000000E+00           0.00000000E+00
  -0.81000000E+00           0.00000000E+00
  -0.80000000E+00           0.00000000E+00
  -0.79000000E+00           0.00000000E+00
  -0.78000000E+00           0.00000000E+00
  -0.77000000E+00           0.00000000E+00
  -0.76000000E+00           0.00000000E+00
  -0.75000000E+00           0.00000000E+00
  -0.74000000E+00           0.00000000E+00
  -0.73000000E+00           0.00000000E+00
  -0.72000000E+00           0.00000000E+00
  -0.71000000E+00           0.00000000E+00
  -0.70000000E+00           0.00000000E+00
  -0.69000000E+00           0.00000000E+00
  -0.68000000E+00           0.00000000E+00
  -0.67000000E+00           0.00000000E+00
  -0.66000000E+00           0.00000000E+00
  -0.65000000E+00           0.00000000E+00
  -0.64000000E+00           0.00000000E+00
  -0.63000000E+00           0.00000000E+00
  -0.62000000E+00           0.00000000E+00
  -0.61000000E+00           0.00000000E+00
  -0.60000000E+00           0.00000000E+00
  -0.59000000E+00           0.00000000E+00
  -0.58000000E+00           0.00000000E+00
  -0.57000000E+00           0.00000000E+00
  -0.56000000E+00           0.00000000E+00
  -0.55000000E+00           0.00000000E+00
  -0.54000000E+00           0.00000000E+00
  -0.53000000E+00           0.00000000E+00
  -0.52000000E+00           0.00000000E+00
  -0.51000000E+00           0.00000000E+00
  -0.50000000E+00           0.00000000E+00
  -0.49000000E+00           0.00000000E+00
  -0.48000000E+00           0.00000000E+00
  -0.47000000E+00           0.00000000E+00
  -0.46000000E+00           0.00000000E+00
  -0.45000000E+00           0.00000000E+00
  -0.44000000E+00           0.00000000E+00
  -0.43000000E+00           0.00000000E+00
  -0.42000000E+00           0.00000000E+00
  -0.41000000E+00           0.00000000E+00
  -0.40000000E+00           0.00000000E+00
  -0.39000000E+00           0.00000000E+00
  -0.38000000E+00           0.00000000E+00
  -0.37000000E+00           0.00000000E+00
  -0.36000000E+00           0.00000000E+00
  -0.35000000E+00           0.00000000E+00
  -0.34000000E+00           0.00000000E+00
  -0.33000000E+00           0.00000000E+00
  -0.32000000E+00           0.00000000E+00
  -0.31000000E+00           0.00000000E+00
  -0.30000000E+00           0.00000000E+00
  -0.29000000E+00           0.00000000E+00
  -0.28000000E+00           0.00000000E+00
  -0.27000000E+00           0.00000000E+00
  -0.26000000E+00           0.00000000E+00
  -0.25000000E+00           0.00000000E+00
  -0.24000000E+00           0.00000000E+00
  -0.23000000E+00           0.00000000E+00
  -0.22000000E+00           0.00000000E+00
  -0.21000000E+00           0.00000000E+00
  -0.20000000E+00           0.00000000E+00
  -0.19000000E+00           0.00000000E+00
  -0.18000000E+00           0.00000000E+00
  -0.17000000E+00           0.00000000E+00
  -0.16000000E+00           0.00000000E+00
  -0.15000000E+00           0.00000000E+00
  -0.14000000E+00           0.00000000E+00
  -0.13000000E+00           0.00000000E+00
  -0.12000000E+00           0.00000000E+00
  -0.11000000E+00           0.00000000E+00
  -0.10000000E+00           0.00000000E+00
  -0.90000000E-01           0.00000000E+00
  -0.80000000E-01           0.00000000E+00
  -0.70000000E-01           0.00000000E+00
  -0.60000000E-01           0.00000000E+00
  -0.50000000E-01           0.00000000E+00
  -0.40000000E-01           0.00000000E+00
  -0.30000000E-01           0.00000000E+00
  -0.20000000E-01           0.00000000E+00
  -0.10000000E-01           0.00000000E+00
   0.00000000E+00           0.18095238E-04
   0.10000000E-01           0.38095238E-03
   0.20000000E-01           0.14374603E-02
   0.30000000E-01           0.31223810E-02
   0.40000000E-01           0.54984127E-02
   0.50000000E-01           0.85376190E-02
   0.60000000E-01           0.12036508E-01
   0.70000000E-01           0.16190794E-01
   0.80000000E-01           0.20833333E-01
   0.90000000E-01           0.26158413E-01
   0.10000000E+00           0.31634921E-01
   0.11000000E+00           0.37958095E-01
   0.12000000E+00           0.44353333E-01
   0.13000000E+00           0.51608889E-01
   0.14000000E+00           0.58886667E-01
   0.15000000E+00           0.66799524E-01
   0.16000000E+00           0.74823175E-01
   0.17000000E+00           0.83425873E-01
   0.18000000E+00           0.92387937E-01
   0.19000000E+00           0.10118841E+00
   0.20000000E+00           0.11097048E+00
   0.21000000E+00           0.12037143E+00
   0.22000000E+00           0.13026873E+00
   0.23000000E+00           0.14051222E+00
   0.24000000E+00           0.15061921E+00
   0.25000000E+00           0.16106063E+00
   0.26000000E+00           0.17182683E+00
   0.27000000E+00           0.18266302E+00
   0.28000000E+00           0.19349524E+00
   0.29000000E+00           0.20494413E+00
   0.30000000E+00           0.21630206E+00
   0.31000000E+00           0.22728984E+00
   0.32000000E+00           0.23881667E+00
   0.33000000E+00           0.25022841E+00
   0.34000000E+00           0.26197429E+00
   0.35000000E+00           0.27365556E+00
   0.36000000E+00           0.28495254E+00
   0.37000000E+00           0.29637698E+00
   0.38000000E+00           0.30824206E+00
   0.39000000E+00           0.31953048E+00
   0.40000000E+00           0.33125206E+00
   0.41000000E+00           0.34341032E+00
   0.42000000E+00           0.35459365E+00
   0.43000000E+00           0.36649952E+00
   0.44000000E+00           0.37768857E+00
   0.45000000E+00           0.38900063E+00
   0.46000000E+00           0.40011127E+00
   0.47000000E+00           0.41121143E+00
   0.48000000E+00           0.42310365E+00
   0.49000000E+00           0.43352698E+00
   0.50000000E+00           0.44455222E+00
   0.51000000E+00           0.45545762E+00
   0.52000000E+00           0.46575175E+00
   0.53000000E+00           0.47633492E+00
   0.54000000E+00           0.48633079E+00
   0.55000000E+00           0.49716397E+00
   0.56000000E+00           0.50654175E+00
   0.57000000E+00           0.51661063E+00
   0.58000000E+00           0.52686794E+00
   0.59000000E+00           0.53571746E+00
   0.60000000E+00           0.54523508E+00
   0.61000000E+00           0.55452111E+00
   0.62000000E+00           0.56361397E+00
   0.63000000E+00           0.57272413E+00
   0.64000000E+00           0.58043698E+00
   0.65000000E+00           0.58957143E+00
   0.66000000E+00           0.59747444E+00
   0.67000000E+00           0.60522730E+00
   0.68000000E+00           0.61243079E+00
   0.69000000E+00           0.62032873E+00
   0.70000000E+00           0.62842048E+00
   0.71000000E+00           0.63489032E+00
   0.72000000E+00           0.64121190E+00
   0.73000000E+00           0.64845571E+00
   0.74000000E+00           0.65527635E+00
   0.75000000E+00           0.66090635E+00
   0.76000000E+00           0.66642381E+00
   0.77000000E+00           0.67195619E+00
   0.78000000E+00           0.67708730E+00
   0.79000000E+00           0.68285063E+00
   0.80000000E+00           0.68844540E+00
   0.81000000E+00           0.69247397E+00
   0.82000000E+00           0.69710238E+00
   0.83000000E+00           0.70099032E+00
   0.84000000E+00           0.70529857E+00
   0.85000000E+00           0.70883571E+00
   0.86000000E+00           0.71231032E+00
   0.87000000E+00           0.71542413E+00
   0.88000000E+00           0.71935381E+00
   0.89000000E+00           0.72148937E+00
   0.90000000E+00           0.72387825E+00
   0.91000000E+00           0.72605016E+00
   0.92000000E+00           0.72851794E+00
   0.93000000E+00           0.73013651E+00
   0.94000000E+00           0.73203206E+00
   0.95000000E+00           0.73302143E+00
   0.96000000E+00           0.73374524E+00
   0.97000000E+00           0.73459714E+00
   0.98000000E+00           0.73561095E+00
   0.99000000E+00           0.73659159E+00
   0.10000000E+01           0.73708190E+00
   0.10100000E+01           0.73622556E+00
   0.10200000E+01           0.73594175E+00
   0.10300000E+01           0.73596921E+00
   0.10400000E+01           0.73524365E+00
   0.10500000E+01           0.73416111E+00
   0.10600000E+01           0.73363444E+00
   0.10700000E+01           0.73215127E+00
   0.10800000E+01           0.73041873E+00
   0.10900000E+01           0.72918873E+00
   0.11000000E+01           0.72765619E+00
   0.11100000E+01           0.72521984E+00
   0.11200000E+01           0.72226619E+00
   0.11300000E+01           0.72049460E+00
   0.11400000E+01           0.71790444E+00
   0.11500000E+01           0.71489048E+00
   0.11600000E+01           0.71212905E+00
   0.11700000E+01           0.70866810E+00
   0.11800000E+01           0.70515508E+00
   0.11900000E+01           0.70229016E+00
   0.12000000E+01           0.69806222E+00
   0.12100000E+01           0.69436079E+00
   0.12200000E+01           0.69088127E+00
   0.12300000E+01           0.68668302E+00
   0.12400000E+01           0.68197794E+00
   0.12500000E+01           0.67822349E+00
   0.12600000E+01           0.67337413E+00
   0.12700000E+01           0.66927635E+00
   0.12800000E+01           0.66410333E+00
   0.12900000E+01           0.65916000E+00
   0.13000000E+01           0.65404857E+00
   0.13100000E+01           0.64908460E+00
   0.13200000E+01           0.64371095E+00
   0.13300000E+01           0.63851619E+00
   0.13400000E+01           0.63282984E+00
   0.13500000E+01           0.62769317E+00
   0.13600000E+01           0.62210968E+00
   0.13700000E+01           0.61692905E+00
   0.13800000E+01           0.61085508E+00
   0.13900000E+01           0.60463635E+00
   0.14000000E+01           0.59885048E+00
   0.14100000E+01           0.59236476E+00
   0.14200000E+01           0.58639857E+00
   0.14300000E+01           0.58054079E+00
   0.14400000E+01           0.57387079E+00
   0.14500000E+01           0.56749000E+00
   0.14600000E+01           0.56156794E+00
   0.14700000E+01           0.55500889E+00
   0.14800000E+01           0.54800603E+00
   0.14900000E+01           0.54222921E+00
   0.15000000E+01           0.53521175E+00
   0.15100000E+01           0.52892460E+00
   0.15200000E+01           0.52209254E+00
   0.15300000E+01           0.51558302E+00
   0.15400000E+01           0.50889873E+00
   0.15500000E+01           0.50218698E+00
   0.15600000E+01           0.49571667E+00
   0.15700000E+01           0.48836063E+00
   0.15800000E+01           0.48192492E+00
   0.15900000E+01           0.47465698E+00
   0.16000000E+01           0.46851810E+00
   0.16100000E+01           0.46125571E+00
   0.16200000E+01           0.45477254E+00
   0.16300000E+01           0.44810905E+00
   0.16400000E+01           0.44137762E+00
   0.16500000E+01           0.43399524E+00
   0.16600000E+01           0.42801222E+00
   0.16700000E+01           0.42057683E+00
   0.16800000E+01           0.41409587E+00
   0.16900000E+01           0.40739746E+00
   0.17000000E+01           0.40030889E+00
   0.17100000E+01           0.39436841E+00
   0.17200000E+01           0.38761254E+00
   0.17300000E+01           0.38123778E+00
   0.17400000E+01           0.37423365E+00
   0.17500000E+01           0.36782524E+00
   0.17600000E+01           0.36072381E+00
   0.17700000E+01           0.35444365E+00
   0.17800000E+01           0.34761619E+00
   0.17900000E+01           0.34196429E+00
   0.18000000E+01           0.33498397E+00
   0.18100000E+01           0.32910524E+00
   0.18200000E+01           0.32258190E+00
   0.18300000E+01           0.31642794E+00
   0.18400000E+01           0.31034159E+00
   0.18500000E+01           0.30448556E+00
   0.18600000E+01           0.29787794E+00
   0.18700000E+01           0.29207889E+00
   0.18800000E+01           0.28613540E+00
   0.18900000E+01           0.27987222E+00
   0.19000000E+01           0.27423984E+00
   0.19100000E+01           0.26852175E+00
   0.19200000E+01           0.26261302E+00
   0.19300000E+01           0.25706365E+00
   0.19400000E+01           0.25112254E+00
   0.19500000E+01           0.24567254E+00
   0.19600000E+01           0.24034810E+00
   0.19700000E+01           0.23446397E+00
   0.19800000E+01           0.22921571E+00
   0.19900000E+01           0.22384381E+00
   0.20000000E+01           0.21859476E+00
   0.20100000E+01           0.21332429E+00
   0.20200000E+01           0.20809238E+00
   0.20300000E+01           0.20287603E+00
   0.20400000E+01           0.19852238E+00
   0.20500000E+01           0.19307714E+00
   0.20600000E+01           0.18859095E+00
   0.20700000E+01           0.18422905E+00
   0.20800000E+01           0.17923762E+00
   0.20900000E+01           0.17480254E+00
   0.21000000E+01           0.17052825E+00
   0.21100000E+01           0.16628095E+00
   0.21200000E+01           0.16185651E+00
   0.21300000E+01           0.15789889E+00
   0.21400000E+01           0.15366016E+00
   0.21500000E+01           0.14951556E+00
   0.21600000E+01           0.14559540E+00
   0.21700000E+01           0.14173635E+00
   0.21800000E+01           0.13803508E+00
   0.21900000E+01           0.13419952E+00
   0.22000000E+01           0.13048968E+00
   0.22100000E+01           0.12702556E+00
   0.22200000E+01           0.12356968E+00
   0.22300000E+01           0.12015365E+00
   0.22400000E+01           0.11674794E+00
   0.22500000E+01           0.11344683E+00
   0.22600000E+01           0.11019413E+00
   0.22700000E+01           0.10706333E+00
   0.22800000E+01           0.10394619E+00
   0.22900000E+01           0.10107492E+00
   0.23000000E+01           0.98148571E-01
   0.23100000E+01           0.95350159E-01
   0.23200000E+01           0.92495238E-01
   0.23300000E+01           0.89970794E-01
   0.23400000E+01           0.87081270E-01
   0.23500000E+01           0.84373651E-01
   0.23600000E+01           0.82091429E-01
   0.23700000E+01           0.79310952E-01
   0.23800000E+01           0.77055238E-01
   0.23900000E+01           0.74566825E-01
   0.24000000E+01           0.72364444E-01
   0.24100000E+01           0.70133651E-01
   0.24200000E+01           0.67964286E-01
   0.24300000E+01           0.65722857E-01
   0.24400000E+01           0.63798413E-01
   0.24500000E+01           0.61613810E-01
   0.24600000E+01           0.59641429E-01
   0.24700000E+01           0.57643492E-01
   0.24800000E+01           0.55803333E-01
   0.24900000E+01           0.54293175E-01
   0.25000000E+01           0.52360476E-01
   0.25100000E+01           0.50704127E-01
   0.25200000E+01           0.48881429E-01
   0.25300000E+01           0.47211270E-01
   0.25400000E+01           0.45574603E-01
   0.25500000E+01           0.44125397E-01
   0.25600000E+01           0.42672063E-01
   0.25700000E+01           0.41149841E-01
   0.25800000E+01           0.39728095E-01
   0.25900000E+01           0.38279524E-01
   0.26000000E+01           0.37020159E-01
   0.26100000E+01           0.35689524E-01
   0.26200000E+01           0.34546984E-01
   0.26300000E+01           0.33275397E-01
   0.26400000E+01           0.31942698E-01
   0.26500000E+01           0.30912222E-01
   0.26600000E+01           0.29768095E-01
   0.26700000E+01           0.28771905E-01
   0.26800000E+01           0.27719206E-01
   0.26900000E+01           0.26660952E-01
   0.27000000E+01           0.25637937E-01
   0.27100000E+01           0.24637937E-01
   0.27200000E+01           0.23772063E-01
   0.27300000E+01           0.22841270E-01
   0.27400000E+01           0.22054444E-01
   0.27500000E+01           0.21038571E-01
   0.27600000E+01           0.20268095E-01
   0.27700000E+01           0.19564603E-01
   0.27800000E+01           0.18681270E-01
   0.27900000E+01           0.17986825E-01
   0.28000000E+01           0.17322381E-01
   0.28100000E+01           0.16717619E-01
   0.28200000E+01           0.15993333E-01
   0.28300000E+01           0.15324603E-01
   0.28400000E+01           0.14732222E-01
   0.28500000E+01           0.14015238E-01
   0.28600000E+01           0.13566508E-01
   0.28700000E+01           0.13016667E-01
   0.28800000E+01           0.12420159E-01
   0.28900000E+01           0.11920794E-01
   0.29000000E+01           0.11366032E-01
   0.29100000E+01           0.10981270E-01
   0.29200000E+01           0.10561429E-01
   0.29300000E+01           0.10073810E-01
   0.29400000E+01           0.96112698E-02
   0.29500000E+01           0.92260317E-02
   0.29600000E+01           0.87953968E-02
   0.29700000E+01           0.83647619E-02
   0.29800000E+01           0.80376190E-02
   0.29900000E+01           0.76046032E-02
   0.30000000E+01           0.73407937E-02
   0.30100000E+01           0.70280952E-02
   0.30200000E+01           0.66133333E-02
   0.30300000E+01           0.63892063E-02
   0.30400000E+01           0.60849206E-02
   0.30500000E+01           0.58012698E-02
   0.30600000E+01           0.55106349E-02
   0.30700000E+01           0.52592063E-02
   0.30800000E+01           0.50749206E-02
   0.30900000E+01           0.47834921E-02
   0.31000000E+01           0.45669841E-02
   0.31100000E+01           0.43500000E-02
   0.31200000E+01           0.41477778E-02
   0.31300000E+01           0.39058730E-02
   0.31400000E+01           0.37385714E-02
   0.31500000E+01           0.35415873E-02
   0.31600000E+01           0.33457143E-02
   0.31700000E+01           0.31903175E-02
   0.31800000E+01           0.30150794E-02
   0.31900000E+01           0.29042857E-02
   0.32000000E+01           0.27060317E-02
   0.32100000E+01           0.26095238E-02
   0.32200000E+01           0.24600000E-02
   0.32300000E+01           0.23477778E-02
   0.32400000E+01           0.21953968E-02
   0.32500000E+01           0.20958730E-02
   0.32600000E+01           0.19884127E-02
   0.32700000E+01           0.18468254E-02
   0.32800000E+01           0.17296825E-02
   0.32900000E+01           0.16595238E-02
   0.33000000E+01           0.15744444E-02
   0.33100000E+01           0.14839683E-02
   0.33200000E+01           0.14065079E-02
   0.33300000E+01           0.13298413E-02
   0.33400000E+01           0.12495238E-02
   0.33500000E+01           0.11671429E-02
   0.33600000E+01           0.11052381E-02
   0.33700000E+01           0.10323810E-02
   0.33800000E+01           0.10092063E-02
   0.33900000E+01           0.92000000E-03
   0.34000000E+01           0.88000000E-03
   0.34100000E+01           0.81571429E-03
   0.34200000E+01           0.75428571E-03
   0.34300000E+01           0.70365079E-03
   0.34400000E+01           0.69682540E-03
   0.34500000E+01           0.61650794E-03
   0.34600000E+01           0.56952381E-03
   0.34700000E+01           0.53873016E-03
   0.34800000E+01           0.50349206E-03
   0.34900000E+01           0.46793651E-03
   0.35000000E+01           0.44809524E-03
   0.35100000E+01           0.40492063E-03
   0.35200000E+01           0.38730159E-03
   0.35300000E+01           0.35888889E-03
   0.35400000E+01           0.33253968E-03
   0.35500000E+01           0.30968254E-03
   0.35600000E+01           0.29476190E-03
   0.35700000E+01           0.25412698E-03
   0.35800000E+01           0.24730159E-03
   0.35900000E+01           0.22682540E-03
   0.36000000E+01           0.20507937E-03
   0.36100000E+01           0.19888889E-03
   0.36200000E+01           0.17063492E-03
   0.36300000E+01           0.16317460E-03
   0.36400000E+01           0.14206349E-03
   0.36500000E+01           0.13888889E-03
   0.36600000E+01           0.11841270E-03
   0.36700000E+01           0.11904762E-03
   0.36800000E+01           0.10634921E-03
   0.36900000E+01           0.87777778E-04
   0.37000000E+01           0.90476190E-04
   0.37100000E+01           0.81904762E-04
   0.37200000E+01           0.72222222E-04
   0.37300000E+01           0.64444444E-04
   0.37400000E+01           0.54920635E-04
   0.37500000E+01           0.47301587E-04
   0.37600000E+01           0.42222222E-04
   0.37700000E+01           0.40158730E-04
   0.37800000E+01           0.32539683E-04
   0.37900000E+01           0.30952381E-04
   0.38000000E+01           0.29682540E-04
   0.38100000E+01           0.22857143E-04
   0.38200000E+01           0.20158730E-04
   0.38300000E+01           0.17301587E-04
   0.38400000E+01           0.14920635E-04
   0.38500000E+01           0.10952381E-04
   0.38600000E+01           0.84126984E-05
   0.38700000E+01           0.76190476E-05
   0.38800000E+01           0.73015873E-05
   0.38900000E+01           0.69841270E-05
   0.39000000E+01           0.58730159E-05
   0.39100000E+01           0.42857143E-05
   0.39200000E+01           0.34920635E-05
   0.39300000E+01           0.34920635E-05
   0.39400000E+01           0.12698413E-05
   0.39500000E+01           0.31746032E-06
   0.39600000E+01           0.47619048E-06
   0.39700000E+01           0.31746032E-06
   0.39800000E+01           0.47619048E-06
   0.39900000E+01           0.00000000E+00
   0.40000000E+01           0.00000000E+00
 #T=   391.0000
  -0.40000000E+01           0.00000000E+00
  -0.39900000E+01           0.00000000E+00
  -0.39800000E+01           0.00000000E+00
  -0.39700000E+01           0.00000000E+00
  -0.39600000E+01           0.00000000E+00
  -0.39500000E+01           0.00000000E+00
  -0.39400000E+01           0.00000000E+00
  -0.39300000E+01           0.00000000E+00
  -0.39200000E+01           0.00000000E+00
  -0.39100000E+01           0.00000000E+00
  -0.39000000E+01           0.00000000E+00
  -0.38900000E+01           0.00000000E+00
  -0.38800000E+01           0.00000000E+00
  -0.38700000E+01           0.00000000E+00
  -0.38600000E+01           0.00000000E+00
  -0.38500000E+01           0.00000000E+00
  -0.38400000E+01           0.00000000E+00
  -0.38300000E+01           0.00000000E+00
  -0.38200000E+01           0.00000000E+00
  -0.38100000E+01           0.00000000E+00
  -0.38000000E+01           0.00000000E+00
  -0.37900000E+01           0.00000000E+00
  -0.37800000E+01           0.00000000E+00
  -0.37700000E+01           0.00000000E+00
  -0.37600000E+01           0.00000000E+00
  -0.37500000E+01           0.00000000E+00
  -0.37400000E+01           0.00000000E+00
  -0.37300000E+01           0.00000000E+00
  -0.37200000E+01           0.00000000E+00
  -0.37100000E+01           0.00000000E+00
  -0.37000000E+01           0.00000000E+00
  -0.36900000E+01           0.00000000E+00
  -0.36800000E+01           0.00000000E+00
  -0.36700000E+01           0.00000000E+00
  -0.36600000E+01           0.00000000E+00
  -0.36500000E+01           0.00000000E+00
  -0.36400000E+01           0.00000000E+00
  -0.36300000E+01           0.00000000E+00
  -0.36200000E+01           0.00000000E+00
  -0.36100000E+01           0.00000000E+00
  -0.36000000E+01           0.00000000E+00
  -0.35900000E+01           0.00000000E+00
  -0.35800000E+01           0.00000000E+00
  -0.35700000E+01           0.00000000E+00
  -0.35600000E+01           0.00000000E+00
  -0.35500000E+01           0.00000000E+00
  -0.35400000E+01           0.00000000E+00
  -0.35300000E+01           0.00000000E+00
  -0.35200000E+01           0.00000000E+00
  -0.35100000E+01           0.00000000E+00
  -0.35000000E+01           0.00000000E+00
  -0.34900000E+01           0.00000000E+00
  -0.34800000E+01           0.00000000E+00
  -0.34700000E+01           0.00000000E+00
  -0.34600000E+01           0.00000000E+00
  -0.34500000E+01           0.00000000E+00
  -0.34400000E+01           0.00000000E+00
  -0.34300000E+01           0.00000000E+00
  -0.34200000E+01           0.00000000E+00
  -0.34100000E+01           0.00000000E+00
  -0.34000000E+01           0.00000000E+00
  -0.33900000E+01           0.00000000E+00
  -0.33800000E+01           0.00000000E+00
  -0.33700000E+01           0.00000000E+00
  -0.33600000E+01           0.00000000E+00
  -0.33500000E+01           0.00000000E+00
  -0.33400000E+01           0.00000000E+00
  -0.33300000E+01           0.00000000E+00
  -0.33200000E+01           0.00000000E+00
  -0.33100000E+01           0.00000000E+00
  -0.33000000E+01           0.00000000E+00
  -0.32900000E+01           0.00000000E+00
  -0.32800000E+01           0.00000000E+00
  -0.32700000E+01           0.00000000E+00
  -0.32600000E+01           0.00000000E+00
  -0.32500000E+01           0.00000000E+00
  -0.32400000E+01           0.00000000E+00
  -0.32300000E+01           0.00000000E+00
  -0.32200000E+01           0.00000000E+00
  -0.32100000E+01           0.00000000E+00
  -0.32000000E+01           0.00000000E+00
  -0.31900000E+01           0.00000000E+00
  -0.31800000E+01           0.00000000E+00
  -0.31700000E+01           0.00000000E+00
  -0.31600000E+01           0.00000000E+00
  -0.31500000E+01           0.00000000E+00
  -0.31400000E+01           0.00000000E+00
  -0.31300000E+01           0.00000000E+00
  -0.31200000E+01           0.00000000E+00
  -0.31100000E+01           0.00000000E+00
  -0.31000000E+01           0.00000000E+00
  -0.30900000E+01           0.00000000E+00
  -0.30800000E+01           0.00000000E+00
  -0.30700000E+01           0.00000000E+00
  -0.30600000E+01           0.00000000E+00
  -0.30500000E+01           0.00000000E+00
  -0.30400000E+01           0.00000000E+00
  -0.30300000E+01           0.00000000E+00
  -0.30200000E+01           0.00000000E+00
  -0.30100000E+01           0.00000000E+00
  -0.30000000E+01           0.00000000E+00
  -0.29900000E+01           0.00000000E+00
  -0.29800000E+01           0.00000000E+00
  -0.29700000E+01           0.00000000E+00
  -0.29600000E+01           0.00000000E+00
  -0.29500000E+01           0.00000000E+00
  -0.29400000E+01           0.00000000E+00
  -0.29300000E+01           0.00000000E+00
  -0.29200000E+01           0.00000000E+00
  -0.29100000E+01           0.00000000E+00
  -0.29000000E+01           0.00000000E+00
  -0.28900000E+01           0.00000000E+00
  -0.28800000E+01           0.00000000E+00
  -0.28700000E+01           0.00000000E+00
  -0.28600000E+01           0.00000000E+00
  -0.28500000E+01           0.00000000E+00
  -0.28400000E+01           0.00000000E+00
  -0.28300000E+01           0.00000000E+00
  -0.28200000E+01           0.00000000E+00
  -0.28100000E+01           0.00000000E+00
  -0.28000000E+01           0.00000000E+00
  -0.27900000E+01           0.00000000E+00
  -0.27800000E+01           0.00000000E+00
  -0.27700000E+01           0.00000000E+00
  -0.27600000E+01           0.00000000E+00
  -0.27500000E+01           0.00000000E+00
  -0.27400000E+01           0.00000000E+00
  -0.27300000E+01           0.00000000E+00
  -0.27200000E+01           0.00000000E+00
  -0.27100000E+01           0.00000000E+00
  -0.27000000E+01           0.00000000E+00
  -0.26900000E+01           0.00000000E+00
  -0.26800000E+01           0.00000000E+00
  -0.26700000E+01           0.00000000E+00
  -0.26600000E+01           0.00000000E+00
  -0.26500000E+01           0.00000000E+00
  -0.26400000E+01           0.00000000E+00
  -0.26300000E+01           0.00000000E+00
  -0.26200000E+01           0.00000000E+00
  -0.26100000E+01           0.00000000E+00
  -0.26000000E+01           0.00000000E+00
  -0.25900000E+01           0.00000000E+00
  -0.25800000E+01           0.00000000E+00
  -0.25700000E+01           0.00000000E+00
  -0.25600000E+01           0.00000000E+00
  -0.25500000E+01           0.00000000E+00
  -0.25400000E+01           0.00000000E+00
  -0.25300000E+01           0.00000000E+00
  -0.25200000E+01           0.00000000E+00
  -0.25100000E+01           0.00000000E+00
  -0.25000000E+01           0.00000000E+00
  -0.24900000E+01           0.00000000E+00
  -0.24800000E+01           0.00000000E+00
  -0.24700000E+01           0.00000000E+00
  -0.24600000E+01           0.00000000E+00
  -0.24500000E+01           0.00000000E+00
  -0.24400000E+01           0.00000000E+00
  -0.24300000E+01           0.00000000E+00
  -0.24200000E+01           0.00000000E+00
  -0.24100000E+01           0.00000000E+00
  -0.24000000E+01           0.00000000E+00
  -0.23900000E+01           0.00000000E+00
  -0.23800000E+01           0.00000000E+00
  -0.23700000E+01           0.00000000E+00
  -0.23600000E+01           0.00000000E+00
  -0.23500000E+01           0.00000000E+00
  -0.23400000E+01           0.00000000E+00
  -0.23300000E+01           0.00000000E+00
  -0.23200000E+01           0.00000000E+00
  -0.23100000E+01           0.00000000E+00
  -0.23000000E+01           0.00000000E+00
  -0.22900000E+01           0.00000000E+00
  -0.22800000E+01           0.00000000E+00
  -0.22700000E+01           0.00000000E+00
  -0.22600000E+01           0.00000000E+00
  -0.22500000E+01           0.00000000E+00
  -0.22400000E+01           0.00000000E+00
  -0.22300000E+01           0.00000000E+00
  -0.22200000E+01           0.00000000E+00
  -0.22100000E+01           0.00000000E+00
  -0.22000000E+01           0.00000000E+00
  -0.21900000E+01           0.00000000E+00
  -0.21800000E+01           0.00000000E+00
  -0.21700000E+01           0.00000000E+00
  -0.21600000E+01           0.00000000E+00
  -0.21500000E+01           0.00000000E+00
  -0.21400000E+01           0.00000000E+00
  -0.21300000E+01           0.00000000E+00
  -0.21200000E+01           0.00000000E+00
  -0.21100000E+01           0.00000000E+00
  -0.21000000E+01           0.00000000E+00
  -0.20900000E+01           0.00000000E+00
  -0.20800000E+01           0.00000000E+00
  -0.20700000E+01           0.00000000E+00
  -0.20600000E+01           0.00000000E+00
  -0.20500000E+01           0.00000000E+00
  -0.20400000E+01           0.00000000E+00
  -0.20300000E+01           0.00000000E+00
  -0.20200000E+01           0.00000000E+00
  -0.20100000E+01           0.00000000E+00
  -0.20000000E+01           0.00000000E+00
  -0.19900000E+01           0.00000000E+00
  -0.19800000E+01           0.00000000E+00
  -0.19700000E+01           0.00000000E+00
  -0.19600000E+01           0.00000000E+00
  -0.19500000E+01           0.00000000E+00
  -0.19400000E+01           0.00000000E+00
  -0.19300000E+01           0.00000000E+00
  -0.19200000E+01           0.00000000E+00
  -0.19100000E+01           0.00000000E+00
  -0.19000000E+01           0.00000000E+00
  -0.18900000E+01           0.00000000E+00
  -0.18800000E+01           0.00000000E+00
  -0.18700000E+01           0.00000000E+00
  -0.18600000E+01           0.00000000E+00
  -0.18500000E+01           0.00000000E+00
  -0.18400000E+01           0.00000000E+00
  -0.18300000E+01           0.00000000E+00
  -0.18200000E+01           0.00000000E+00
  -0.18100000E+01           0.00000000E+00
  -0.18000000E+01           0.00000000E+00
  -0.17900000E+01           0.00000000E+00
  -0.17800000E+01           0.00000000E+00
  -0.17700000E+01           0.00000000E+00
  -0.17600000E+01           0.00000000E+00
  -0.17500000E+01           0.00000000E+00
  -0.17400000E+01           0.00000000E+00
  -0.17300000E+01           0.00000000E+00
  -0.17200000E+01           0.00000000E+00
  -0.17100000E+01           0.00000000E+00
  -0.17000000E+01           0.00000000E+00
  -0.16900000E+01           0.00000000E+00
  -0.16800000E+01           0.00000000E+00
  -0.16700000E+01           0.00000000E+00
  -0.16600000E+01           0.00000000E+00
  -0.16500000E+01           0.00000000E+00
  -0.16400000E+01           0.00000000E+00
  -0.16300000E+01           0.00000000E+00
  -0.16200000E+01           0.00000000E+00
  -0.16100000E+01           0.00000000E+00
  -0.16000000E+01           0.00000000E+00
  -0.15900000E+01           0.00000000E+00
  -0.15800000E+01           0.00000000E+00
  -0.15700000E+01           0.00000000E+00
  -0.15600000E+01           0.00000000E+00
  -0.15500000E+01           0.00000000E+00
  -0.15400000E+01           0.00000000E+00
  -0.15300000E+01           0.00000000E+00
  -0.15200000E+01           0.00000000E+00
  -0.15100000E+01           0.00000000E+00
  -0.15000000E+01           0.00000000E+00
  -0.14900000E+01           0.00000000E+00
  -0.14800000E+01           0.00000000E+00
  -0.14700000E+01           0.00000000E+00
  -0.14600000E+01           0.00000000E+00
  -0.14500000E+01           0.00000000E+00
  -0.14400000E+01           0.00000000E+00
  -0.14300000E+01           0.00000000E+00
  -0.14200000E+01           0.00000000E+00
  -0.14100000E+01           0.00000000E+00
  -0.14000000E+01           0.00000000E+00
  -0.13900000E+01           0.00000000E+00
  -0.13800000E+01           0.00000000E+00
  -0.13700000E+01           0.00000000E+00
  -0.13600000E+01           0.00000000E+00
  -0.13500000E+01           0.00000000E+00
  -0.13400000E+01           0.00000000E+00
  -0.13300000E+01           0.00000000E+00
  -0.13200000E+01           0.00000000E+00
  -0.13100000E+01           0.00000000E+00
  -0.13000000E+01           0.00000000E+00
  -0.12900000E+01           0.00000000E+00
  -0.12800000E+01           0.00000000E+00
  -0.12700000E+01           0.00000000E+00
  -0.12600000E+01           0.00000000E+00
  -0.12500000E+01           0.00000000E+00
  -0.12400000E+01           0.00000000E+00
  -0.12300000E+01           0.00000000E+00
  -0.12200000E+01           0.00000000E+00
  -0.12100000E+01           0.00000000E+00
  -0.12000000E+01           0.00000000E+00
  -0.11900000E+01           0.00000000E+00
  -0.11800000E+01           0.00000000E+00
  -0.11700000E+01           0.00000000E+00
  -0.11600000E+01           0.00000000E+00
  -0.11500000E+01           0.00000000E+00
  -0.11400000E+01           0.00000000E+00
  -0.11300000E+01           0.00000000E+00
  -0.11200000E+01           0.00000000E+00
  -0.11100000E+01           0.00000000E+00
  -0.11000000E+01           0.00000000E+00
  -0.10900000E+01           0.00000000E+00
  -0.10800000E+01           0.00000000E+00
  -0.10700000E+01           0.00000000E+00
  -0.10600000E+01           0.00000000E+00
  -0.10500000E+01           0.00000000E+00
  -0.10400000E+01           0.00000000E+00
  -0.10300000E+01           0.00000000E+00
  -0.10200000E+01           0.00000000E+00
  -0.10100000E+01           0.00000000E+00
  -0.10000000E+01           0.00000000E+00
  -0.99000000E+00           0.00000000E+00
  -0.98000000E+00           0.00000000E+00
  -0.97000000E+00           0.00000000E+00
  -0.96000000E+00           0.00000000E+00
  -0.95000000E+00           0.00000000E+00
  -0.94000000E+00           0.00000000E+00
  -0.93000000E+00           0.00000000E+00
  -0.92000000E+00           0.00000000E+00
  -0.91000000E+00           0.00000000E+00
  -0.90000000E+00           0.00000000E+00
  -0.89000000E+00           0.00000000E+00
  -0.88000000E+00           0.00000000E+00
  -0.87000000E+00           0.00000000E+00
  -0.86000000E+00           0.00000000E+00
  -0.85000000E+00           0.00000000E+00
  -0.84000000E+00           0.00000000E+00
  -0.83000000E+00           0.00000000E+00
  -0.82000000E+00           0.00000000E+00
  -0.81000000E+00           0.00000000E+00
  -0.80000000E+00           0.00000000E+00
  -0.79000000E+00           0.00000000E+00
  -0.78000000E+00           0.00000000E+00
  -0.77000000E+00           0.00000000E+00
  -0.76000000E+00           0.00000000E+00
  -0.75000000E+00           0.00000000E+00
  -0.74000000E+00           0.00000000E+00
  -0.73000000E+00           0.00000000E+00
  -0.72000000E+00           0.00000000E+00
  -0.71000000E+00           0.00000000E+00
  -0.70000000E+00           0.00000000E+00
  -0.69000000E+00           0.00000000E+00
  -0.68000000E+00           0.00000000E+00
  -0.67000000E+00           0.00000000E+00
  -0.66000000E+00           0.00000000E+00
  -0.65000000E+00           0.00000000E+00
  -0.64000000E+00           0.00000000E+00
  -0.63000000E+00           0.00000000E+00
  -0.62000000E+00           0.00000000E+00
  -0.61000000E+00           0.00000000E+00
  -0.60000000E+00           0.00000000E+00
  -0.59000000E+00           0.00000000E+00
  -0.58000000E+00           0.00000000E+00
  -0.57000000E+00           0.00000000E+00
  -0.56000000E+00           0.00000000E+00
  -0.55000000E+00           0.00000000E+00
  -0.54000000E+00           0.00000000E+00
  -0.53000000E+00           0.00000000E+00
  -0.52000000E+00           0.00000000E+00
  -0.51000000E+00           0.00000000E+00
  -0.50000000E+00           0.00000000E+00
  -0.49000000E+00           0.00000000E+00
  -0.48000000E+00           0.00000000E+00
  -0.47000000E+00           0.00000000E+00
  -0.46000000E+00           0.00000000E+00
  -0.45000000E+00           0.00000000E+00
  -0.44000000E+00           0.00000000E+00
  -0.43000000E+00           0.00000000E+00
  -0.42000000E+00           0.00000000E+00
  -0.41000000E+00           0.00000000E+00
  -0.40000000E+00           0.00000000E+00
  -0.39000000E+00           0.00000000E+00
  -0.38000000E+00           0.00000000E+00
  -0.37000000E+00           0.00000000E+00
  -0.36000000E+00           0.00000000E+00
  -0.35000000E+00           0.00000000E+00
  -0.34000000E+00           0.00000000E+00
  -0.33000000E+00           0.00000000E+00
  -0.32000000E+00           0.00000000E+00
  -0.31000000E+00           0.00000000E+00
  -0.30000000E+00           0.00000000E+00
  -0.29000000E+00           0.00000000E+00
  -0.28000000E+00           0.00000000E+00
  -0.27000000E+00           0.00000000E+00
  -0.26000000E+00           0.00000000E+00
  -0.25000000E+00           0.00000000E+00
  -0.24000000E+00           0.00000000E+00
  -0.23000000E+00           0.00000000E+00
  -0.22000000E+00           0.00000000E+00
  -0.21000000E+00           0.00000000E+00
  -0.20000000E+00           0.00000000E+00
  -0.19000000E+00           0.00000000E+00
  -0.18000000E+00           0.00000000E+00
  -0.17000000E+00           0.00000000E+00
  -0.16000000E+00           0.00000000E+00
  -0.15000000E+00           0.00000000E+00
  -0.14000000E+00           0.00000000E+00
  -0.13000000E+00           0.00000000E+00
  -0.12000000E+00           0.00000000E+00
  -0.11000000E+00           0.00000000E+00
  -0.10000000E+00           0.00000000E+00
  -0.90000000E-01           0.00000000E+00
  -0.80000000E-01           0.00000000E+00
  -0.70000000E-01           0.00000000E+00
  -0.60000000E-01           0.00000000E+00
  -0.50000000E-01           0.00000000E+00
  -0.40000000E-01           0.00000000E+00
  -0.30000000E-01           0.00000000E+00
  -0.20000000E-01           0.00000000E+00
  -0.10000000E-01           0.00000000E+00
   0.00000000E+00           0.15079365E-04
   0.10000000E-01           0.40285714E-03
   0.20000000E-01           0.14461905E-02
   0.30000000E-01           0.31104762E-02
   0.40000000E-01           0.54796825E-02
   0.50000000E-01           0.84423810E-02
   0.60000000E-01           0.12058254E-01
   0.70000000E-01           0.16146825E-01
   0.80000000E-01           0.20719683E-01
   0.90000000E-01           0.25862063E-01
   0.10000000E+00           0.31464762E-01
   0.11000000E+00           0.37614762E-01
   0.12000000E+00           0.44084286E-01
   0.13000000E+00           0.51231270E-01
   0.14000000E+00           0.58541746E-01
   0.15000000E+00           0.66297778E-01
   0.16000000E+00           0.74436190E-01
   0.17000000E+00           0.82742857E-01
   0.18000000E+00           0.91496825E-01
   0.19000000E+00           0.10047587E+00
   0.20000000E+00           0.10968635E+00
   0.21000000E+00           0.11950302E+00
   0.22000000E+00           0.12900714E+00
   0.23000000E+00           0.13914000E+00
   0.24000000E+00           0.14958190E+00
   0.25000000E+00           0.15990508E+00
   0.26000000E+00           0.17043921E+00
   0.27000000E+00           0.18141873E+00
   0.28000000E+00           0.19221508E+00
   0.29000000E+00           0.20366143E+00
   0.30000000E+00           0.21463143E+00
   0.31000000E+00           0.22575794E+00
   0.32000000E+00           0.23734286E+00
   0.33000000E+00           0.24856968E+00
   0.34000000E+00           0.26005048E+00
   0.35000000E+00           0.27196540E+00
   0.36000000E+00           0.28325540E+00
   0.37000000E+00           0.29503302E+00
   0.38000000E+00           0.30659254E+00
   0.39000000E+00           0.31787492E+00
   0.40000000E+00           0.32983048E+00
   0.41000000E+00           0.34087413E+00
   0.42000000E+00           0.35244968E+00
   0.43000000E+00           0.36394556E+00
   0.44000000E+00           0.37563349E+00
   0.45000000E+00           0.38679397E+00
   0.46000000E+00           0.39821794E+00
   0.47000000E+00           0.40990937E+00
   0.48000000E+00           0.42012698E+00
   0.49000000E+00           0.43095714E+00
   0.50000000E+00           0.44249762E+00
   0.51000000E+00           0.45248095E+00
   0.52000000E+00           0.46367159E+00
   0.53000000E+00           0.47391810E+00
   0.54000000E+00           0.48448873E+00
   0.55000000E+00           0.49453317E+00
   0.56000000E+00           0.50441698E+00
   0.57000000E+00           0.51466000E+00
   0.58000000E+00           0.52376000E+00
   0.59000000E+00           0.53337571E+00
   0.60000000E+00           0.54298667E+00
   0.61000000E+00           0.55190556E+00
   0.62000000E+00           0.56095159E+00
   0.63000000E+00           0.57027651E+00
   0.64000000E+00           0.57792968E+00
   0.65000000E+00           0.58677524E+00
   0.66000000E+00           0.59450349E+00
   0.67000000E+00           0.60320190E+00
   0.68000000E+00           0.61100524E+00
   0.69000000E+00           0.61815889E+00
   0.70000000E+00           0.62556111E+00
   0.71000000E+00           0.63212794E+00
   0.72000000E+00           0.63932540E+00
   0.73000000E+00           0.64551810E+00
   0.74000000E+00           0.65207873E+00
   0.75000000E+00           0.65830651E+00
   0.76000000E+00           0.66442143E+00
   0.77000000E+00           0.66951587E+00
   0.78000000E+00           0.67525508E+00
   0.79000000E+00           0.68098508E+00
   0.80000000E+00           0.68531746E+00
   0.81000000E+00           0.69005698E+00
   0.82000000E+00           0.69434460E+00
   0.83000000E+00           0.69885206E+00
   0.84000000E+00           0.70343317E+00
   0.85000000E+00           0.70729667E+00
   0.86000000E+00           0.71049619E+00
   0.87000000E+00           0.71390508E+00
   0.88000000E+00           0.71699111E+00
   0.89000000E+00           0.71973143E+00
   0.90000000E+00           0.72205810E+00
   0.91000000E+00           0.72473524E+00
   0.92000000E+00           0.72698190E+00
   0.93000000E+00           0.72856556E+00
   0.94000000E+00           0.73007000E+00
   0.95000000E+00           0.73138317E+00
   0.96000000E+00           0.73248270E+00
   0.97000000E+00           0.73413667E+00
   0.98000000E+00           0.73418778E+00
   0.99000000E+00           0.73474016E+00
   0.10000000E+01           0.73600476E+00
   0.10100000E+01           0.73572302E+00
   0.10200000E+01           0.73500952E+00
   0.10300000E+01           0.73444048E+00
   0.10400000E+01           0.73474063E+00
   0.10500000E+01           0.73420873E+00
   0.10600000E+01           0.73188603E+00
   0.10700000E+01           0.73110381E+00
   0.10800000E+01           0.72969778E+00
   0.10900000E+01           0.72790556E+00
   0.11000000E+01           0.72621492E+00
   0.11100000E+01           0.72440841E+00
   0.11200000E+01           0.72209254E+00
   0.11300000E+01           0.71950873E+00
   0.11400000E+01           0.71709730E+00
   0.11500000E+01           0.71403587E+00
   0.11600000E+01           0.71162762E+00
   0.11700000E+01           0.70808667E+00
   0.11800000E+01           0.70508238E+00
   0.11900000E+01           0.70166460E+00
   0.12000000E+01           0.69817937E+00
   0.12100000E+01           0.69406778E+00
   0.12200000E+01           0.69016317E+00
   0.12300000E+01           0.68720238E+00
   0.12400000E+01           0.68238286E+00
   0.12500000E+01           0.67796063E+00
   0.12600000E+01           0.67379905E+00
   0.12700000E+01           0.66936000E+00
   0.12800000E+01           0.66476730E+00
   0.12900000E+01           0.65968286E+00
   0.13000000E+01           0.65490159E+00
   0.13100000E+01           0.64967349E+00
   0.13200000E+01           0.64490175E+00
   0.13300000E+01           0.63939238E+00
   0.13400000E+01           0.63318397E+00
   0.13500000E+01           0.62804127E+00
   0.13600000E+01           0.62275794E+00
   0.13700000E+01           0.61661524E+00
   0.13800000E+01           0.61153206E+00
   0.13900000E+01           0.60509810E+00
   0.14000000E+01           0.60010492E+00
   0.14100000E+01           0.59349841E+00
   0.14200000E+01           0.58736714E+00
   0.14300000E+01           0.58107048E+00
   0.14400000E+01           0.57512635E+00
   0.14500000E+01           0.56890762E+00
   0.14600000E+01           0.56236794E+00
   0.14700000E+01           0.55679921E+00
   0.14800000E+01           0.54984365E+00
   0.14900000E+01           0.54324095E+00
   0.15000000E+01           0.53685333E+00
   0.15100000E+01           0.53046238E+00
   0.15200000E+01           0.52336413E+00
   0.15300000E+01           0.51726587E+00
   0.15400000E+01           0.51013587E+00
   0.15500000E+01           0.50338905E+00
   0.15600000E+01           0.49684317E+00
   0.15700000E+01           0.49061635E+00
   0.15800000E+01           0.48361571E+00
   0.15900000E+01           0.47660000E+00
   0.16000000E+01           0.47016429E+00
   0.16100000E+01           0.46332905E+00
   0.16200000E+01           0.45662127E+00
   0.16300000E+01           0.44953794E+00
   0.16400000E+01           0.44277159E+00
   0.16500000E+01           0.43660587E+00
   0.16600000E+01           0.42941460E+00
   0.16700000E+01           0.42261667E+00
   0.16800000E+01           0.41570032E+00
   0.16900000E+01           0.40897032E+00
   0.17000000E+01           0.40248381E+00
   0.17100000E+01           0.39549905E+00
   0.17200000E+01           0.38921000E+00
   0.17300000E+01           0.38263397E+00
   0.17400000E+01           0.37576016E+00
   0.17500000E+01           0.36958143E+00
   0.17600000E+01           0.36241556E+00
   0.17700000E+01           0.35580492E+00
   0.17800000E+01           0.34992889E+00
   0.17900000E+01           0.34355381E+00
   0.18000000E+01           0.33671302E+00
   0.18100000E+01           0.33076968E+00
   0.18200000E+01           0.32445937E+00
   0.18300000E+01           0.31791905E+00
   0.18400000E+01           0.31193746E+00
   0.18500000E+01           0.30573889E+00
   0.18600000E+01           0.29959937E+00
   0.18700000E+01           0.29352778E+00
   0.18800000E+01           0.28773587E+00
   0.18900000E+01           0.28210698E+00
   0.19000000E+01           0.27605603E+00
   0.19100000E+01           0.26993730E+00
   0.19200000E+01           0.26441238E+00
   0.19300000E+01           0.25807413E+00
   0.19400000E+01           0.25308159E+00
   0.19500000E+01           0.24719365E+00
   0.19600000E+01           0.24169683E+00
   0.19700000E+01           0.23626619E+00
   0.19800000E+01           0.23089079E+00
   0.19900000E+01           0.22532556E+00
   0.20000000E+01           0.21999190E+00
   0.20100000E+01           0.21478667E+00
   0.20200000E+01           0.21011444E+00
   0.20300000E+01           0.20494238E+00
   0.20400000E+01           0.19964270E+00
   0.20500000E+01           0.19507524E+00
   0.20600000E+01           0.19039778E+00
   0.20700000E+01           0.18535524E+00
   0.20800000E+01           0.18058857E+00
   0.20900000E+01           0.17661587E+00
   0.21000000E+01           0.17195333E+00
   0.21100000E+01           0.16731476E+00
   0.21200000E+01           0.16316619E+00
   0.21300000E+01           0.15932302E+00
   0.21400000E+01           0.15490048E+00
   0.21500000E+01           0.15072079E+00
   0.21600000E+01           0.14687778E+00
   0.21700000E+01           0.14286952E+00
   0.21800000E+01           0.13907159E+00
   0.21900000E+01           0.13535143E+00
   0.22000000E+01           0.13185127E+00
   0.22100000E+01           0.12824968E+00
   0.22200000E+01           0.12460476E+00
   0.22300000E+01           0.12106794E+00
   0.22400000E+01           0.11768413E+00
   0.22500000E+01           0.11489063E+00
   0.22600000E+01           0.11134317E+00
   0.22700000E+01           0.10791857E+00
   0.22800000E+01           0.10505079E+00
   0.22900000E+01           0.10212921E+00
   0.23000000E+01           0.99160159E-01
   0.23100000E+01           0.96314127E-01
   0.23200000E+01           0.93635873E-01
   0.23300000E+01           0.90904603E-01
   0.23400000E+01           0.87826984E-01
   0.23500000E+01           0.85462381E-01
   0.23600000E+01           0.82809048E-01
   0.23700000E+01           0.80373333E-01
   0.23800000E+01           0.77914603E-01
   0.23900000E+01           0.75505397E-01
   0.24000000E+01           0.73194444E-01
   0.24100000E+01           0.70886190E-01
   0.24200000E+01           0.68661746E-01
   0.24300000E+01           0.66640635E-01
   0.24400000E+01           0.64443175E-01
   0.24500000E+01           0.62518571E-01
   0.24600000E+01           0.60433492E-01
   0.24700000E+01           0.58410952E-01
   0.24800000E+01           0.56585397E-01
   0.24900000E+01           0.54855238E-01
   0.25000000E+01           0.52860000E-01
   0.25100000E+01           0.51144762E-01
   0.25200000E+01           0.49553651E-01
   0.25300000E+01           0.47750476E-01
   0.25400000E+01           0.46308254E-01
   0.25500000E+01           0.44666349E-01
   0.25600000E+01           0.43155397E-01
   0.25700000E+01           0.41840317E-01
   0.25800000E+01           0.40219841E-01
   0.25900000E+01           0.38828571E-01
   0.26000000E+01           0.37433016E-01
   0.26100000E+01           0.36148254E-01
   0.26200000E+01           0.34863810E-01
   0.26300000E+01           0.33832698E-01
   0.26400000E+01           0.32479048E-01
   0.26500000E+01           0.31364762E-01
   0.26600000E+01           0.30227619E-01
   0.26700000E+01           0.29120952E-01
   0.26800000E+01           0.28051905E-01
   0.26900000E+01           0.27111111E-01
   0.27000000E+01           0.26039524E-01
   0.27100000E+01           0.25037460E-01
   0.27200000E+01           0.24230000E-01
   0.27300000E+01           0.23266825E-01
   0.27400000E+01           0.22383016E-01
   0.27500000E+01           0.21474921E-01
   0.27600000E+01           0.20657937E-01
   0.27700000E+01           0.19713492E-01
   0.27800000E+01           0.19137302E-01
   0.27900000E+01           0.18452540E-01
   0.28000000E+01           0.17618413E-01
   0.28100000E+01           0.16910476E-01
   0.28200000E+01           0.16292540E-01
   0.28300000E+01           0.15613651E-01
   0.28400000E+01           0.14958254E-01
   0.28500000E+01           0.14410000E-01
   0.28600000E+01           0.13801429E-01
   0.28700000E+01           0.13202222E-01
   0.28800000E+01           0.12740794E-01
   0.28900000E+01           0.12162540E-01
   0.29000000E+01           0.11661270E-01
   0.29100000E+01           0.11142857E-01
   0.29200000E+01           0.10652063E-01
   0.29300000E+01           0.10293492E-01
   0.29400000E+01           0.97998413E-02
   0.29500000E+01           0.93825397E-02
   0.29600000E+01           0.89573016E-02
   0.29700000E+01           0.85609524E-02
   0.29800000E+01           0.81455556E-02
   0.29900000E+01           0.78611111E-02
   0.30000000E+01           0.75271429E-02
   0.30100000E+01           0.71525397E-02
   0.30200000E+01           0.68265079E-02
   0.30300000E+01           0.64673016E-02
   0.30400000E+01           0.61706349E-02
   0.30500000E+01           0.59473016E-02
   0.30600000E+01           0.56290476E-02
   0.30700000E+01           0.54134921E-02
   0.30800000E+01           0.50784127E-02
   0.30900000E+01           0.48896825E-02
   0.31000000E+01           0.46706349E-02
   0.31100000E+01           0.43953968E-02
   0.31200000E+01           0.42044444E-02
   0.31300000E+01           0.39904762E-02
   0.31400000E+01           0.38498413E-02
   0.31500000E+01           0.36407937E-02
   0.31600000E+01           0.34685714E-02
   0.31700000E+01           0.32769841E-02
   0.31800000E+01           0.31022222E-02
   0.31900000E+01           0.29473016E-02
   0.32000000E+01           0.28065079E-02
   0.32100000E+01           0.26607937E-02
   0.32200000E+01           0.25204762E-02
   0.32300000E+01           0.23788889E-02
   0.32400000E+01           0.22307937E-02
   0.32500000E+01           0.21419048E-02
   0.32600000E+01           0.20044444E-02
   0.32700000E+01           0.19280952E-02
   0.32800000E+01           0.18279365E-02
   0.32900000E+01           0.16685714E-02
   0.33000000E+01           0.15917460E-02
   0.33100000E+01           0.15185714E-02
   0.33200000E+01           0.14211111E-02
   0.33300000E+01           0.13717460E-02
   0.33400000E+01           0.12852381E-02
   0.33500000E+01           0.12033333E-02
   0.33600000E+01           0.11319048E-02
   0.33700000E+01           0.10598413E-02
   0.33800000E+01           0.98825397E-03
   0.33900000E+01           0.95952381E-03
   0.34000000E+01           0.86682540E-03
   0.34100000E+01           0.82126984E-03
   0.34200000E+01           0.78857143E-03
   0.34300000E+01           0.72825397E-03
   0.34400000E+01           0.67111111E-03
   0.34500000E+01           0.62841270E-03
   0.34600000E+01           0.59603175E-03
   0.34700000E+01           0.54904762E-03
   0.34800000E+01           0.52349206E-03
   0.34900000E+01           0.49000000E-03
   0.35000000E+01           0.45920635E-03
   0.35100000E+01           0.42507937E-03
   0.35200000E+01           0.39380952E-03
   0.35300000E+01           0.36000000E-03
   0.35400000E+01           0.33222222E-03
   0.35500000E+01           0.30539683E-03
   0.35600000E+01           0.28904762E-03
   0.35700000E+01           0.27587302E-03
   0.35800000E+01           0.24634921E-03
   0.35900000E+01           0.23063492E-03
   0.36000000E+01           0.20063492E-03
   0.36100000E+01           0.19476190E-03
   0.36200000E+01           0.18380952E-03
   0.36300000E+01           0.16809524E-03
   0.36400000E+01           0.16063492E-03
   0.36500000E+01           0.13984127E-03
   0.36600000E+01           0.12873016E-03
   0.36700000E+01           0.11365079E-03
   0.36800000E+01           0.10698413E-03
   0.36900000E+01           0.95238095E-04
   0.37000000E+01           0.87301587E-04
   0.37100000E+01           0.79206349E-04
   0.37200000E+01           0.70317460E-04
   0.37300000E+01           0.68412698E-04
   0.37400000E+01           0.55079365E-04
   0.37500000E+01           0.52539683E-04
   0.37600000E+01           0.45238095E-04
   0.37700000E+01           0.38412698E-04
   0.37800000E+01           0.39682540E-04
   0.37900000E+01           0.30952381E-04
   0.38000000E+01           0.28095238E-04
   0.38100000E+01           0.25873016E-04
   0.38200000E+01           0.21269841E-04
   0.38300000E+01           0.21904762E-04
   0.38400000E+01           0.16825397E-04
   0.38500000E+01           0.13968254E-04
   0.38600000E+01           0.12222222E-04
   0.38700000E+01           0.11269841E-04
   0.38800000E+01           0.84126984E-05
   0.38900000E+01           0.63492063E-05
   0.39000000E+01           0.57142857E-05
   0.39100000E+01           0.26984127E-05
   0.39200000E+01           0.28571429E-05
   0.39300000E+01           0.25396825E-05
   0.39400000E+01           0.22222222E-05
   0.39500000E+01           0.14285714E-05
   0.39600000E+01           0.31746032E-06
   0.39700000E+01           0.63492063E-06
   0.39800000E+01           0.00000000E+00
   0.39900000E+01           0.00000000E+00
   0.40000000E+01           0.00000000E+00
 #T=   392.0000
  -0.40000000E+01           0.00000000E+00
  -0.39900000E+01           0.00000000E+00
  -0.39800000E+01           0.00000000E+00
  -0.39700000E+01           0.00000000E+00
  -0.39600000E+01           0.00000000E+00
  -0.39500000E+01           0.00000000E+00
  -0.39400000E+01           0.00000000E+00
  -0.39300000E+01           0.00000000E+00
  -0.39200000E+01           0.00000000E+00
  -0.39100000E+01           0.00000000E+00
  -0.39000000E+01           0.00000000E+00
  -0.38900000E+01           0.00000000E+00
  -0.38800000E+01           0.00000000E+00
  -0.38700000E+01           0.00000000E+00
  -0.38600000E+01           0.00000000E+00
  -0.38500000E+01           0.00000000E+00
  -0.38400000E+01           0.00000000E+00
  -0.38300000E+01           0.00000000E+00
  -0.38200000E+01           0.00000000E+00
  -0.38100000E+01           0.00000000E+00
  -0.38000000E+01           0.00000000E+00
  -0.37900000E+01           0.00000000E+00
  -0.37800000E+01           0.00000000E+00
  -0.37700000E+01           0.00000000E+00
  -0.37600000E+01           0.00000000E+00
  -0.37500000E+01           0.00000000E+00
  -0.37400000E+01           0.00000000E+00
  -0.37300000E+01           0.00000000E+00
  -0.37200000E+01           0.00000000E+00
  -0.37100000E+01           0.00000000E+00
  -0.37000000E+01           0.00000000E+00
  -0.36900000E+01           0.00000000E+00
  -0.36800000E+01           0.00000000E+00
  -0.36700000E+01           0.00000000E+00
  -0.36600000E+01           0.00000000E+00
  -0.36500000E+01           0.00000000E+00
  -0.36400000E+01           0.00000000E+00
  -0.36300000E+01           0.00000000E+00
  -0.36200000E+01           0.00000000E+00
  -0.36100000E+01           0.00000000E+00
  -0.36000000E+01           0.00000000E+00
  -0.35900000E+01           0.00000000E+00
  -0.35800000E+01           0.00000000E+00
  -0.35700000E+01           0.00000000E+00
  -0.35600000E+01           0.00000000E+00
  -0.35500000E+01           0.00000000E+00
  -0.35400000E+01           0.00000000E+00
  -0.35300000E+01           0.00000000E+00
  -0.35200000E+01           0.00000000E+00
  -0.35100000E+01           0.00000000E+00
  -0.35000000E+01           0.00000000E+00
  -0.34900000E+01           0.00000000E+00
  -0.34800000E+01           0.00000000E+00
  -0.34700000E+01           0.00000000E+00
  -0.34600000E+01           0.00000000E+00
  -0.34500000E+01           0.00000000E+00
  -0.34400000E+01           0.00000000E+00
  -0.34300000E+01           0.00000000E+00
  -0.34200000E+01           0.00000000E+00
  -0.34100000E+01           0.00000000E+00
  -0.34000000E+01           0.00000000E+00
  -0.33900000E+01           0.00000000E+00
  -0.33800000E+01           0.00000000E+00
  -0.33700000E+01           0.00000000E+00
  -0.33600000E+01           0.00000000E+00
  -0.33500000E+01           0.00000000E+00
  -0.33400000E+01           0.00000000E+00
  -0.33300000E+01           0.00000000E+00
  -0.33200000E+01           0.00000000E+00
  -0.33100000E+01           0.00000000E+00
  -0.33000000E+01           0.00000000E+00
  -0.32900000E+01           0.00000000E+00
  -0.32800000E+01           0.00000000E+00
  -0.32700000E+01           0.00000000E+00
  -0.32600000E+01           0.00000000E+00
  -0.32500000E+01           0.00000000E+00
  -0.32400000E+01           0.00000000E+00
  -0.32300000E+01           0.00000000E+00
  -0.32200000E+01           0.00000000E+00
  -0.32100000E+01           0.00000000E+00
  -0.32000000E+01           0.00000000E+00
  -0.31900000E+01           0.00000000E+00
  -0.31800000E+01           0.00000000E+00
  -0.31700000E+01           0.00000000E+00
  -0.31600000E+01           0.00000000E+00
  -0.31500000E+01           0.00000000E+00
  -0.31400000E+01           0.00000000E+00
  -0.31300000E+01           0.00000000E+00
  -0.31200000E+01           0.00000000E+00
  -0.31100000E+01           0.00000000E+00
  -0.31000000E+01           0.00000000E+00
  -0.30900000E+01           0.00000000E+00
  -0.30800000E+01           0.00000000E+00
  -0.30700000E+01           0.00000000E+00
  -0.30600000E+01           0.00000000E+00
  -0.30500000E+01           0.00000000E+00
  -0.30400000E+01           0.00000000E+00
  -0.30300000E+01           0.00000000E+00
  -0.30200000E+01           0.00000000E+00
  -0.30100000E+01           0.00000000E+00
  -0.30000000E+01           0.00000000E+00
  -0.29900000E+01           0.00000000E+00
  -0.29800000E+01           0.00000000E+00
  -0.29700000E+01           0.00000000E+00
  -0.29600000E+01           0.00000000E+00
  -0.29500000E+01           0.00000000E+00
  -0.29400000E+01           0.00000000E+00
  -0.29300000E+01           0.00000000E+00
  -0.29200000E+01           0.00000000E+00
  -0.29100000E+01           0.00000000E+00
  -0.29000000E+01           0.00000000E+00
  -0.28900000E+01           0.00000000E+00
  -0.28800000E+01           0.00000000E+00
  -0.28700000E+01           0.00000000E+00
  -0.28600000E+01           0.00000000E+00
  -0.28500000E+01           0.00000000E+00
  -0.28400000E+01           0.00000000E+00
  -0.28300000E+01           0.00000000E+00
  -0.28200000E+01           0.00000000E+00
  -0.28100000E+01           0.00000000E+00
  -0.28000000E+01           0.00000000E+00
  -0.27900000E+01           0.00000000E+00
  -0.27800000E+01           0.00000000E+00
  -0.27700000E+01           0.00000000E+00
  -0.27600000E+01           0.00000000E+00
  -0.27500000E+01           0.00000000E+00
  -0.27400000E+01           0.00000000E+00
  -0.27300000E+01           0.00000000E+00
  -0.27200000E+01           0.00000000E+00
  -0.27100000E+01           0.00000000E+00
  -0.27000000E+01           0.00000000E+00
  -0.26900000E+01           0.00000000E+00
  -0.26800000E+01           0.00000000E+00
  -0.26700000E+01           0.00000000E+00
  -0.26600000E+01           0.00000000E+00
  -0.26500000E+01           0.00000000E+00
  -0.26400000E+01           0.00000000E+00
  -0.26300000E+01           0.00000000E+00
  -0.26200000E+01           0.00000000E+00
  -0.26100000E+01           0.00000000E+00
  -0.26000000E+01           0.00000000E+00
  -0.25900000E+01           0.00000000E+00
  -0.25800000E+01           0.00000000E+00
  -0.25700000E+01           0.00000000E+00
  -0.25600000E+01           0.00000000E+00
  -0.25500000E+01           0.00000000E+00
  -0.25400000E+01           0.00000000E+00
  -0.25300000E+01           0.00000000E+00
  -0.25200000E+01           0.00000000E+00
  -0.25100000E+01           0.00000000E+00
  -0.25000000E+01           0.00000000E+00
  -0.24900000E+01           0.00000000E+00
  -0.24800000E+01           0.00000000E+00
  -0.24700000E+01           0.00000000E+00
  -0.24600000E+01           0.00000000E+00
  -0.24500000E+01           0.00000000E+00
  -0.24400000E+01           0.00000000E+00
  -0.24300000E+01           0.00000000E+00
  -0.24200000E+01           0.00000000E+00
  -0.24100000E+01           0.00000000E+00
  -0.24000000E+01           0.00000000E+00
  -0.23900000E+01           0.00000000E+00
  -0.23800000E+01           0.00000000E+00
  -0.23700000E+01           0.00000000E+00
  -0.23600000E+01           0.00000000E+00
  -0.23500000E+01           0.00000000E+00
  -0.23400000E+01           0.00000000E+00
  -0.23300000E+01           0.00000000E+00
  -0.23200000E+01           0.00000000E+00
  -0.23100000E+01           0.00000000E+00
  -0.23000000E+01           0.00000000E+00
  -0.22900000E+01           0.00000000E+00
  -0.22800000E+01           0.00000000E+00
  -0.22700000E+01           0.00000000E+00
  -0.22600000E+01           0.00000000E+00
  -0.22500000E+01           0.00000000E+00
  -0.22400000E+01           0.00000000E+00
  -0.22300000E+01           0.00000000E+00
  -0.22200000E+01           0.00000000E+00
  -0.22100000E+01           0.00000000E+00
  -0.22000000E+01           0.00000000E+00
  -0.21900000E+01           0.00000000E+00
  -0.21800000E+01           0.00000000E+00
  -0.21700000E+01           0.00000000E+00
  -0.21600000E+01           0.00000000E+00
  -0.21500000E+01           0.00000000E+00
  -0.21400000E+01           0.00000000E+00
  -0.21300000E+01           0.00000000E+00
  -0.21200000E+01           0.00000000E+00
  -0.21100000E+01           0.00000000E+00
  -0.21000000E+01           0.00000000E+00
  -0.20900000E+01           0.00000000E+00
  -0.20800000E+01           0.00000000E+00
  -0.20700000E+01           0.00000000E+00
  -0.20600000E+01           0.00000000E+00
  -0.20500000E+01           0.00000000E+00
  -0.20400000E+01           0.00000000E+00
  -0.20300000E+01           0.00000000E+00
  -0.20200000E+01           0.00000000E+00
  -0.20100000E+01           0.00000000E+00
  -0.20000000E+01           0.00000000E+00
  -0.19900000E+01           0.00000000E+00
  -0.19800000E+01           0.00000000E+00
  -0.19700000E+01           0.00000000E+00
  -0.19600000E+01           0.00000000E+00
  -0.19500000E+01           0.00000000E+00
  -0.19400000E+01           0.00000000E+00
  -0.19300000E+01           0.00000000E+00
  -0.19200000E+01           0.00000000E+00
  -0.19100000E+01           0.00000000E+00
  -0.19000000E+01           0.00000000E+00
  -0.18900000E+01           0.00000000E+00
  -0.18800000E+01           0.00000000E+00
  -0.18700000E+01           0.00000000E+00
  -0.18600000E+01           0.00000000E+00
  -0.18500000E+01           0.00000000E+00
  -0.18400000E+01           0.00000000E+00
  -0.18300000E+01           0.00000000E+00
  -0.18200000E+01           0.00000000E+00
  -0.18100000E+01           0.00000000E+00
  -0.18000000E+01           0.00000000E+00
  -0.17900000E+01           0.00000000E+00
  -0.17800000E+01           0.00000000E+00
  -0.17700000E+01           0.00000000E+00
  -0.17600000E+01           0.00000000E+00
  -0.17500000E+01           0.00000000E+00
  -0.17400000E+01           0.00000000E+00
  -0.17300000E+01           0.00000000E+00
  -0.17200000E+01           0.00000000E+00
  -0.17100000E+01           0.00000000E+00
  -0.17000000E+01           0.00000000E+00
  -0.16900000E+01           0.00000000E+00
  -0.16800000E+01           0.00000000E+00
  -0.16700000E+01           0.00000000E+00
  -0.16600000E+01           0.00000000E+00
  -0.16500000E+01           0.00000000E+00
  -0.16400000E+01           0.00000000E+00
  -0.16300000E+01           0.00000000E+00
  -0.16200000E+01           0.00000000E+00
  -0.16100000E+01           0.00000000E+00
  -0.16000000E+01           0.00000000E+00
  -0.15900000E+01           0.00000000E+00
  -0.15800000E+01           0.00000000E+00
  -0.15700000E+01           0.00000000E+00
  -0.15600000E+01           0.00000000E+00
  -0.15500000E+01           0.00000000E+00
  -0.15400000E+01           0.00000000E+00
  -0.15300000E+01           0.00000000E+00
  -0.15200000E+01           0.00000000E+00
  -0.15100000E+01           0.00000000E+00
  -0.15000000E+01           0.00000000E+00
  -0.14900000E+01           0.00000000E+00
[...]
  -0.64000000E+00           0.00000000E+00
  -0.63000000E+00           0.00000000E+00
  -0.62000000E+00           0.00000000E+00
  -0.61000000E+00           0.00000000E+00
  -0.60000000E+00           0.00000000E+00
  -0.59000000E+00           0.00000000E+00
  -0.58000000E+00           0.00000000E+00
  -0.57000000E+00           0.00000000E+00
  -0.56000000E+00           0.00000000E+00
  -0.55000000E+00           0.00000000E+00
  -0.54000000E+00           0.00000000E+00
  -0.53000000E+00           0.00000000E+00
  -0.52000000E+00           0.00000000E+00
  -0.51000000E+00           0.00000000E+00
  -0.50000000E+00           0.00000000E+00
  -0.49000000E+00           0.00000000E+00
  -0.48000000E+00           0.00000000E+00
  -0.47000000E+00           0.00000000E+00
  -0.46000000E+00           0.00000000E+00
  -0.45000000E+00           0.00000000E+00
  -0.44000000E+00           0.00000000E+00
  -0.43000000E+00           0.00000000E+00
  -0.42000000E+00           0.00000000E+00
  -0.41000000E+00           0.00000000E+00
  -0.40000000E+00           0.00000000E+00
  -0.39000000E+00           0.00000000E+00
  -0.38000000E+00           0.00000000E+00
  -0.37000000E+00           0.00000000E+00
  -0.36000000E+00           0.00000000E+00
  -0.35000000E+00           0.00000000E+00
  -0.34000000E+00           0.00000000E+00
  -0.33000000E+00           0.00000000E+00
  -0.32000000E+00           0.00000000E+00
  -0.31000000E+00           0.00000000E+00
  -0.30000000E+00           0.00000000E+00
  -0.29000000E+00           0.00000000E+00
  -0.28000000E+00           0.00000000E+00
  -0.27000000E+00           0.00000000E+00
  -0.26000000E+00           0.00000000E+00
  -0.25000000E+00           0.00000000E+00
  -0.24000000E+00           0.00000000E+00
  -0.23000000E+00           0.00000000E+00
  -0.22000000E+00           0.00000000E+00
  -0.21000000E+00           0.00000000E+00
  -0.20000000E+00           0.00000000E+00
  -0.19000000E+00           0.00000000E+00
  -0.18000000E+00           0.00000000E+00
  -0.17000000E+00           0.00000000E+00
  -0.16000000E+00           0.00000000E+00
  -0.15000000E+00           0.00000000E+00
  -0.14000000E+00           0.00000000E+00
  -0.13000000E+00           0.00000000E+00
  -0.12000000E+00           0.00000000E+00
  -0.11000000E+00           0.00000000E+00
  -0.10000000E+00           0.00000000E+00
  -0.90000000E-01           0.00000000E+00
  -0.80000000E-01           0.00000000E+00
  -0.70000000E-01           0.00000000E+00
  -0.60000000E-01           0.00000000E+00
  -0.50000000E-01           0.00000000E+00
  -0.40000000E-01           0.00000000E+00
  -0.30000000E-01           0.00000000E+00
  -0.20000000E-01           0.00000000E+00
  -0.10000000E-01           0.00000000E+00
   0.00000000E+00           0.84126984E-05
   0.10000000E-01           0.17873016E-03
   0.20000000E-01           0.66666667E-03
   0.30000000E-01           0.14247619E-02
   0.40000000E-01           0.25773016E-02
   0.50000000E-01           0.39603175E-02
   0.60000000E-01           0.56015873E-02
   0.70000000E-01           0.75739683E-02
   0.80000000E-01           0.97515873E-02
   0.90000000E-01           0.12443492E-01
   0.10000000E+00           0.15311746E-01
   0.11000000E+00           0.18144286E-01
   0.12000000E+00           0.21476032E-01
   0.13000000E+00           0.25037143E-01
   0.14000000E+00           0.28813492E-01
   0.15000000E+00           0.32823333E-01
   0.16000000E+00           0.36870476E-01
   0.17000000E+00           0.41398730E-01
   0.18000000E+00           0.46190635E-01
   0.19000000E+00           0.50867302E-01
   0.20000000E+00           0.56023968E-01
   0.21000000E+00           0.61337460E-01
   0.22000000E+00           0.66705714E-01
   0.23000000E+00           0.72173016E-01
   0.24000000E+00           0.78032381E-01
   0.25000000E+00           0.83853968E-01
   0.26000000E+00           0.90090635E-01
   0.27000000E+00           0.95961746E-01
   0.28000000E+00           0.10247619E+00
   0.29000000E+00           0.10893413E+00
   0.30000000E+00           0.11583381E+00
   0.31000000E+00           0.12218508E+00
   0.32000000E+00           0.12960492E+00
   0.33000000E+00           0.13616778E+00
   0.34000000E+00           0.14346730E+00
   0.35000000E+00           0.15074698E+00
   0.36000000E+00           0.15777667E+00
   0.37000000E+00           0.16539651E+00
   0.38000000E+00           0.17277841E+00
   0.39000000E+00           0.18037159E+00
   0.40000000E+00           0.18803825E+00
   0.41000000E+00           0.19586698E+00
   0.42000000E+00           0.20312063E+00
   0.43000000E+00           0.21095952E+00
   0.44000000E+00           0.21897825E+00
   0.45000000E+00           0.22730143E+00
   0.46000000E+00           0.23507825E+00
   0.47000000E+00           0.24284968E+00
   0.48000000E+00           0.25028127E+00
   0.49000000E+00           0.25879365E+00
   0.50000000E+00           0.26654016E+00
   0.51000000E+00           0.27480587E+00
   0.52000000E+00           0.28259762E+00
   0.53000000E+00           0.29119587E+00
   0.54000000E+00           0.29886429E+00
   0.55000000E+00           0.30664714E+00
   0.56000000E+00           0.31489175E+00
   0.57000000E+00           0.32262222E+00
   0.58000000E+00           0.33043016E+00
   0.59000000E+00           0.33876349E+00
   0.60000000E+00           0.34650667E+00
   0.61000000E+00           0.35479175E+00
   0.62000000E+00           0.36249206E+00
   0.63000000E+00           0.36999016E+00
   0.64000000E+00           0.37762032E+00
   0.65000000E+00           0.38566190E+00
   0.66000000E+00           0.39338111E+00
   0.67000000E+00           0.40053667E+00
   0.68000000E+00           0.40838619E+00
   0.69000000E+00           0.41564825E+00
   0.70000000E+00           0.42303762E+00
   0.71000000E+00           0.43013571E+00
   0.72000000E+00           0.43743794E+00
   0.73000000E+00           0.44424444E+00
   0.74000000E+00           0.45145270E+00
   0.75000000E+00           0.45859587E+00
   0.76000000E+00           0.46550635E+00
   0.77000000E+00           0.47199127E+00
   0.78000000E+00           0.47866397E+00
   0.79000000E+00           0.48557587E+00
   0.80000000E+00           0.49194476E+00
   0.81000000E+00           0.49821873E+00
   0.82000000E+00           0.50419540E+00
   0.83000000E+00           0.51062095E+00
   0.84000000E+00           0.51658762E+00
   0.85000000E+00           0.52257825E+00
   0.86000000E+00           0.52776778E+00
   0.87000000E+00           0.53406651E+00
   0.88000000E+00           0.53944397E+00
   0.89000000E+00           0.54488254E+00
   0.90000000E+00           0.55022889E+00
   0.91000000E+00           0.55562651E+00
   0.92000000E+00           0.56034302E+00
   0.93000000E+00           0.56551032E+00
   0.94000000E+00           0.56977032E+00
   0.95000000E+00           0.57475143E+00
   0.96000000E+00           0.57888937E+00
   0.97000000E+00           0.58350619E+00
   0.98000000E+00           0.58731460E+00
   0.99000000E+00           0.59212111E+00
   0.10000000E+01           0.59551508E+00
   0.10100000E+01           0.59952381E+00
   0.10200000E+01           0.60273333E+00
   0.10300000E+01           0.60702492E+00
   0.10400000E+01           0.61015921E+00
   0.10500000E+01           0.61302508E+00
   0.10600000E+01           0.61641571E+00
   0.10700000E+01           0.61909349E+00
   0.10800000E+01           0.62182556E+00
   0.10900000E+01           0.62463143E+00
   0.11000000E+01           0.62704619E+00
   0.11100000E+01           0.62918937E+00
   0.11200000E+01           0.63164968E+00
   0.11300000E+01           0.63411270E+00
   0.11400000E+01           0.63507381E+00
   0.11500000E+01           0.63746857E+00
   0.11600000E+01           0.63849206E+00
   0.11700000E+01           0.63955603E+00
   0.11800000E+01           0.64123921E+00
   0.11900000E+01           0.64231905E+00
   0.12000000E+01           0.64350413E+00
   0.12100000E+01           0.64485222E+00
   0.12200000E+01           0.64501587E+00
   0.12300000E+01           0.64588143E+00
   0.12400000E+01           0.64576508E+00
   0.12500000E+01           0.64678984E+00
   0.12600000E+01           0.64624556E+00
   0.12700000E+01           0.64658190E+00
   0.12800000E+01           0.64605714E+00
   0.12900000E+01           0.64576397E+00
   0.13000000E+01           0.64511333E+00
   0.13100000E+01           0.64503492E+00
   0.13200000E+01           0.64410444E+00
   0.13300000E+01           0.64318968E+00
   0.13400000E+01           0.64213127E+00
   0.13500000E+01           0.64151762E+00
   0.13600000E+01           0.63974683E+00
   0.13700000E+01           0.63905016E+00
   0.13800000E+01           0.63656365E+00
   0.13900000E+01           0.63512222E+00
   0.14000000E+01           0.63291524E+00
   0.14100000E+01           0.63067524E+00
   0.14200000E+01           0.62976079E+00
   0.14300000E+01           0.62767651E+00
   0.14400000E+01           0.62529968E+00
   0.14500000E+01           0.62246714E+00
   0.14600000E+01           0.61989683E+00
   0.14700000E+01           0.61741635E+00
   0.14800000E+01           0.61463841E+00
   0.14900000E+01           0.61203190E+00
   0.15000000E+01           0.60830302E+00
   0.15100000E+01           0.60586476E+00
   0.15200000E+01           0.60235016E+00
   0.15300000E+01           0.59935492E+00
   0.15400000E+01           0.59563127E+00
   0.15500000E+01           0.59258175E+00
   0.15600000E+01           0.58901873E+00
   0.15700000E+01           0.58515794E+00
   0.15800000E+01           0.58097381E+00
   0.15900000E+01           0.57743937E+00
   0.16000000E+01           0.57343000E+00
   0.16100000E+01           0.56915016E+00
   0.16200000E+01           0.56515730E+00
   0.16300000E+01           0.56095603E+00
   0.16400000E+01           0.55651063E+00
   0.16500000E+01           0.55224238E+00
   0.16600000E+01           0.54758048E+00
   0.16700000E+01           0.54299429E+00
   0.16800000E+01           0.53795095E+00
   0.16900000E+01           0.53361810E+00
   0.17000000E+01           0.52885476E+00
   0.17100000E+01           0.52332302E+00
   0.17200000E+01           0.51893556E+00
   0.17300000E+01           0.51348048E+00
   0.17400000E+01           0.50881016E+00
   0.17500000E+01           0.50433000E+00
   0.17600000E+01           0.49811143E+00
   0.17700000E+01           0.49303095E+00
   0.17800000E+01           0.48765571E+00
   0.17900000E+01           0.48295095E+00
   0.18000000E+01           0.47694571E+00
   0.18100000E+01           0.47109397E+00
   0.18200000E+01           0.46588048E+00
   0.18300000E+01           0.45997571E+00
   0.18400000E+01           0.45490222E+00
   0.18500000E+01           0.44936714E+00
   0.18600000E+01           0.44339937E+00
   0.18700000E+01           0.43774508E+00
   0.18800000E+01           0.43260603E+00
   0.18900000E+01           0.42652905E+00
   0.19000000E+01           0.42055698E+00
   0.19100000E+01           0.41453683E+00
   0.19200000E+01           0.40843746E+00
   0.19300000E+01           0.40277206E+00
   0.19400000E+01           0.39707143E+00
   0.19500000E+01           0.39045238E+00
   0.19600000E+01           0.38491222E+00
   0.19700000E+01           0.37853825E+00
   0.19800000E+01           0.37315937E+00
   0.19900000E+01           0.36757810E+00
   0.20000000E+01           0.36095810E+00
   0.20100000E+01           0.35498714E+00
   0.20200000E+01           0.34888492E+00
   0.20300000E+01           0.34320175E+00
   0.20400000E+01           0.33693159E+00
   0.20500000E+01           0.33114921E+00
   0.20600000E+01           0.32569302E+00
   0.20700000E+01           0.32000651E+00
   0.20800000E+01           0.31399810E+00
   0.20900000E+01           0.30889127E+00
   0.21000000E+01           0.30336778E+00
   0.21100000E+01           0.29769063E+00
   0.21200000E+01           0.29314063E+00
   0.21300000E+01           0.28709857E+00
   0.21400000E+01           0.28160016E+00
   0.21500000E+01           0.27652905E+00
   0.21600000E+01           0.27158095E+00
   0.21700000E+01           0.26629048E+00
   0.21800000E+01           0.26114000E+00
   0.21900000E+01           0.25626413E+00
   0.22000000E+01           0.25096175E+00
   0.22100000E+01           0.24672889E+00
   0.22200000E+01           0.24193333E+00
   0.22300000E+01           0.23706286E+00
   0.22400000E+01           0.23201968E+00
   0.22500000E+01           0.22776365E+00
   0.22600000E+01           0.22338333E+00
   0.22700000E+01           0.21853603E+00
   0.22800000E+01           0.21414762E+00
   0.22900000E+01           0.20986492E+00
   0.23000000E+01           0.20569968E+00
   0.23100000E+01           0.20126111E+00
   0.23200000E+01           0.19674492E+00
   0.23300000E+01           0.19330413E+00
   0.23400000E+01           0.18895619E+00
   0.23500000E+01           0.18487159E+00
   0.23600000E+01           0.18055206E+00
   0.23700000E+01           0.17678206E+00
   0.23800000E+01           0.17321603E+00
   0.23900000E+01           0.16894952E+00
   0.24000000E+01           0.16547333E+00
   0.24100000E+01           0.16178270E+00
   0.24200000E+01           0.15794429E+00
   0.24300000E+01           0.15476222E+00
   0.24400000E+01           0.15143905E+00
   0.24500000E+01           0.14783603E+00
   0.24600000E+01           0.14449254E+00
   0.24700000E+01           0.14091333E+00
   0.24800000E+01           0.13785540E+00
   0.24900000E+01           0.13448556E+00
   0.25000000E+01           0.13119175E+00
   0.25100000E+01           0.12824698E+00
   0.25200000E+01           0.12541111E+00
   0.25300000E+01           0.12219317E+00
   0.25400000E+01           0.11923730E+00
   0.25500000E+01           0.11621492E+00
   0.25600000E+01           0.11359381E+00
   0.25700000E+01           0.11080286E+00
   0.25800000E+01           0.10794730E+00
   0.25900000E+01           0.10519159E+00
   0.26000000E+01           0.10247556E+00
   0.26100000E+01           0.10005587E+00
   0.26200000E+01           0.97593333E-01
   0.26300000E+01           0.94682698E-01
   0.26400000E+01           0.92538413E-01
   0.26500000E+01           0.90196508E-01
   0.26600000E+01           0.87730635E-01
   0.26700000E+01           0.85282857E-01
   0.26800000E+01           0.82909365E-01
   0.26900000E+01           0.80776032E-01
   0.27000000E+01           0.78929365E-01
   0.27100000E+01           0.76617460E-01
   0.27200000E+01           0.74449841E-01
   0.27300000E+01           0.72437778E-01
   0.27400000E+01           0.70235556E-01
   0.27500000E+01           0.68413333E-01
   0.27600000E+01           0.66660000E-01
   0.27700000E+01           0.64335873E-01
   0.27800000E+01           0.62753016E-01
   0.27900000E+01           0.60988730E-01
   0.28000000E+01           0.59116825E-01
   0.28100000E+01           0.57556825E-01
   0.28200000E+01           0.55737937E-01
   0.28300000E+01           0.54136032E-01
   0.28400000E+01           0.52509841E-01
   0.28500000E+01           0.51181587E-01
   0.28600000E+01           0.49468889E-01
   0.28700000E+01           0.47956349E-01
   0.28800000E+01           0.46390317E-01
   0.28900000E+01           0.45080635E-01
   0.29000000E+01           0.43743651E-01
   0.29100000E+01           0.42403333E-01
   0.29200000E+01           0.40946190E-01
   0.29300000E+01           0.39663810E-01
   0.29400000E+01           0.38553175E-01
   0.29500000E+01           0.37329524E-01
   0.29600000E+01           0.35933492E-01
   0.29700000E+01           0.34862063E-01
   0.29800000E+01           0.33669206E-01
   0.29900000E+01           0.32554286E-01
   0.30000000E+01           0.31540794E-01
   0.30100000E+01           0.30417143E-01
   0.30200000E+01           0.29285873E-01
   0.30300000E+01           0.28421429E-01
   0.30400000E+01           0.27336667E-01
   0.30500000E+01           0.26363175E-01
   0.30600000E+01           0.25445714E-01
   0.30700000E+01           0.24517937E-01
   0.30800000E+01           0.23703175E-01
   0.30900000E+01           0.22959048E-01
   0.31000000E+01           0.22134286E-01
   0.31100000E+01           0.21229365E-01
   0.31200000E+01           0.20452222E-01
   0.31300000E+01           0.19742698E-01
   0.31400000E+01           0.19065079E-01
   0.31500000E+01           0.18369365E-01
   0.31600000E+01           0.17544286E-01
   0.31700000E+01           0.16958254E-01
   0.31800000E+01           0.16253492E-01
   0.31900000E+01           0.15647778E-01
   0.32000000E+01           0.15031429E-01
   0.32100000E+01           0.14456508E-01
   0.32200000E+01           0.13838413E-01
   0.32300000E+01           0.13300794E-01
   0.32400000E+01           0.12788095E-01
   0.32500000E+01           0.12158413E-01
   0.32600000E+01           0.11695873E-01
   0.32700000E+01           0.11200476E-01
   0.32800000E+01           0.10770000E-01
   0.32900000E+01           0.10314921E-01
   0.33000000E+01           0.98457143E-02
   0.33100000E+01           0.93938095E-02
   0.33200000E+01           0.90015873E-02
   0.33300000E+01           0.84969841E-02
   0.33400000E+01           0.81147619E-02
   0.33500000E+01           0.77965079E-02
   0.33600000E+01           0.74322222E-02
   0.33700000E+01           0.70350794E-02
   0.33800000E+01           0.67926984E-02
   0.33900000E+01           0.64152381E-02
   0.34000000E+01           0.61030159E-02
   0.34100000E+01           0.58463492E-02
   0.34200000E+01           0.55306349E-02
   0.34300000E+01           0.52730159E-02
   0.34400000E+01           0.50200000E-02
   0.34500000E+01           0.47492063E-02
   0.34600000E+01           0.44922222E-02
   0.34700000E+01           0.42626984E-02
   0.34800000E+01           0.40041270E-02
   0.34900000E+01           0.37731746E-02
   0.35000000E+01           0.36282540E-02
   0.35100000E+01           0.34630159E-02
   0.35200000E+01           0.32141270E-02
   0.35300000E+01           0.30247619E-02
   0.35400000E+01           0.28749206E-02
   0.35500000E+01           0.26706349E-02
   0.35600000E+01           0.25222222E-02
   0.35700000E+01           0.23592063E-02
   0.35800000E+01           0.21976190E-02
   0.35900000E+01           0.20739683E-02
   0.36000000E+01           0.19620635E-02
   0.36100000E+01           0.18004762E-02
   0.36200000E+01           0.16925397E-02
   0.36300000E+01           0.15977778E-02
   0.36400000E+01           0.14828571E-02
   0.36500000E+01           0.13511111E-02
   0.36600000E+01           0.12682540E-02
   0.36700000E+01           0.11482540E-02
   0.36800000E+01           0.10525397E-02
   0.36900000E+01           0.99190476E-03
   0.37000000E+01           0.90428571E-03
   0.37100000E+01           0.83968254E-03
   0.37200000E+01           0.77126984E-03
   0.37300000E+01           0.70380952E-03
   0.37400000E+01           0.63857143E-03
   0.37500000E+01           0.58904762E-03
   0.37600000E+01           0.53015873E-03
   0.37700000E+01           0.46507937E-03
   0.37800000E+01           0.44571429E-03
   0.37900000E+01           0.38111111E-03
   0.38000000E+01           0.34730159E-03
   0.38100000E+01           0.29984127E-03
   0.38200000E+01           0.26444444E-03
   0.38300000E+01           0.22793651E-03
   0.38400000E+01           0.19269841E-03
   0.38500000E+01           0.16936508E-03
   0.38600000E+01           0.14523810E-03
   0.38700000E+01           0.11936508E-03
   0.38800000E+01           0.10730159E-03
   0.38900000E+01           0.84285714E-04
   0.39000000E+01           0.71269841E-04
   0.39100000E+01           0.56507937E-04
   0.39200000E+01           0.45555556E-04
   0.39300000E+01           0.30158730E-04
   0.39400000E+01           0.22539683E-04
   0.39500000E+01           0.15079365E-04
   0.39600000E+01           0.80952381E-05
   0.39700000E+01           0.55555556E-05
   0.39800000E+01           0.28571429E-05
   0.39900000E+01           0.47619048E-06
   0.40000000E+01           0.00000000E+00
