 #written on 11Aug2024 at 12:16:52 
 #----------------- MONTECARLO -------------------#
 #        M                      P(M)             #
 #------------------------------------------------#
 #T=   150.0000
  -0.40000000E+01           0.00000000E+00
  -0.39900000E+01           0.00000000E+00
  -0.39800000E+01           0.00000000E+00
  -0.39700000E+01           0.00000000E+00
  -0.39600000E+01           0.00000000E+00
  -0.39500000E+01           0.00000000E+00
  -0.39400000E+01           0.00000000E+00
  -0.39300000E+01           0.00000000E+00
  -0.39200000E+01           0.00000000E+00
  -0.39100000E+01           0.00000000E+00
  -0.39000000E+01           0.00000000E+00
  -0.38900000E+01           0.00000000E+00
  -0.38800000E+01           0.00000000E+00
  -0.38700000E+01           0.00000000E+00
  -0.38600000E+01           0.00000000E+00
  -0.38500000E+01           0.00000000E+00
  -0.38400000E+01           0.00000000E+00
  -0.38300000E+01           0.00000000E+00
  -0.38200000E+01           0.00000000E+00
  -0.38100000E+01           0.00000000E+00
  -0.38000000E+01           0.00000000E+00
  -0.37900000E+01           0.00000000E+00
  -0.37800000E+01           0.00000000E+00
  -0.37700000E+01           0.00000000E+00
  -0.37600000E+01           0.00000000E+00
  -0.37500000E+01           0.00000000E+00
  -0.37400000E+01           0.00000000E+00
  -0.37300000E+01           0.00000000E+00
  -0.37200000E+01           0.00000000E+00
  -0.37100000E+01           0.00000000E+00
  -0.37000000E+01           0.00000000E+00
  -0.36900000E+01           0.00000000E+00
  -0.36800000E+01           0.00000000E+00
  -0.36700000E+01           0.00000000E+00
  -0.36600000E+01           0.00000000E+00
  -0.36500000E+01           0.00000000E+00
  -0.36400000E+01           0.00000000E+00
  -0.36300000E+01           0.00000000E+00
  -0.36200000E+01           0.00000000E+00
  -0.36100000E+01           0.00000000E+00
  -0.36000000E+01           0.00000000E+00
  -0.35900000E+01           0.00000000E+00
  -0.35800000E+01           0.00000000E+00
  -0.35700000E+01           0.00000000E+00
  -0.35600000E+01           0.00000000E+00
  -0.35500000E+01           0.00000000E+00
  -0.35400000E+01           0.00000000E+00
  -0.35300000E+01           0.00000000E+00
  -0.35200000E+01           0.00000000E+00
  -0.35100000E+01           0.00000000E+00
  -0.35000000E+01           0.00000000E+00
  -0.34900000E+01           0.00000000E+00
  -0.34800000E+01           0.00000000E+00
  -0.34700000E+01           0.00000000E+00
  -0.34600000E+01           0.00000000E+00
  -0.34500000E+01           0.00000000E+00
  -0.34400000E+01           0.00000000E+00
  -0.34300000E+01           0.00000000E+00
  -0.34200000E+01           0.00000000E+00
  -0.34100000E+01           0.00000000E+00
  -0.34000000E+01           0.00000000E+00
  -0.33900000E+01           0.00000000E+00
  -0.33800000E+01           0.00000000E+00
  -0.33700000E+01           0.00000000E+00
  -0.33600000E+01           0.00000000E+00
  -0.33500000E+01           0.00000000E+00
  -0.33400000E+01           0.00000000E+00
  -0.33300000E+01           0.00000000E+00
  -0.33200000E+01           0.00000000E+00
  -0.33100000E+01           0.00000000E+00
  -0.33000000E+01           0.00000000E+00
  -0.32900000E+01           0.00000000E+00
  -0.32800000E+01           0.00000000E+00
  -0.32700000E+01           0.00000000E+00
  -0.32600000E+01           0.00000000E+00
  -0.32500000E+01           0.00000000E+00
  -0.32400000E+01           0.00000000E+00
  -0.32300000E+01           0.00000000E+00
  -0.32200000E+01           0.00000000E+00
  -0.32100000E+01           0.00000000E+00
  -0.32000000E+01           0.00000000E+00
  -0.31900000E+01           0.00000000E+00
  -0.31800000E+01           0.00000000E+00
  -0.31700000E+01           0.00000000E+00
  -0.31600000E+01           0.00000000E+00
  -0.31500000E+01           0.00000000E+00
  -0.31400000E+01           0.00000000E+00
  -0.31300000E+01           0.00000000E+00
  -0.31200000E+01           0.00000000E+00
  -0.31100000E+01           0.00000000E+00
  -0.31000000E+01           0.00000000E+00
  -0.30900000E+01           0.00000000E+00
  -0.30800000E+01           0.00000000E+00
  -0.30700000E+01           0.00000000E+00
  -0.30600000E+01           0.00000000E+00
  -0.30500000E+01           0.00000000E+00
  -0.30400000E+01           0.00000000E+00
  -0.30300000E+01           0.00000000E+00
  -0.30200000E+01           0.00000000E+00
  -0.30100000E+01           0.00000000E+00
  -0.30000000E+01           0.00000000E+00
  -0.29900000E+01           0.00000000E+00
  -0.29800000E+01           0.00000000E+00
  -0.29700000E+01           0.00000000E+00
  -0.29600000E+01           0.00000000E+00
  -0.29500000E+01           0.00000000E+00
  -0.29400000E+01           0.00000000E+00
  -0.29300000E+01           0.00000000E+00
  -0.29200000E+01           0.00000000E+00
  -0.29100000E+01           0.00000000E+00
  -0.29000000E+01           0.00000000E+00
  -0.28900000E+01           0.00000000E+00
  -0.28800000E+01           0.00000000E+00
  -0.28700000E+01           0.00000000E+00
  -0.28600000E+01           0.00000000E+00
  -0.28500000E+01           0.00000000E+00
  -0.28400000E+01           0.00000000E+00
  -0.28300000E+01           0.00000000E+00
  -0.28200000E+01           0.00000000E+00
  -0.28100000E+01           0.00000000E+00
  -0.28000000E+01           0.00000000E+00
  -0.27900000E+01           0.00000000E+00
  -0.27800000E+01           0.00000000E+00
  -0.27700000E+01           0.00000000E+00
  -0.27600000E+01           0.00000000E+00
  -0.27500000E+01           0.00000000E+00
  -0.27400000E+01           0.00000000E+00
  -0.27300000E+01           0.00000000E+00
  -0.27200000E+01           0.00000000E+00
  -0.27100000E+01           0.00000000E+00
  -0.27000000E+01           0.00000000E+00
  -0.26900000E+01           0.00000000E+00
  -0.26800000E+01           0.00000000E+00
  -0.26700000E+01           0.00000000E+00
  -0.26600000E+01           0.00000000E+00
  -0.26500000E+01           0.00000000E+00
  -0.26400000E+01           0.00000000E+00
  -0.26300000E+01           0.00000000E+00
  -0.26200000E+01           0.00000000E+00
  -0.26100000E+01           0.00000000E+00
  -0.26000000E+01           0.00000000E+00
  -0.25900000E+01           0.00000000E+00
  -0.25800000E+01           0.00000000E+00
  -0.25700000E+01           0.00000000E+00
  -0.25600000E+01           0.00000000E+00
  -0.25500000E+01           0.00000000E+00
  -0.25400000E+01           0.00000000E+00
  -0.25300000E+01           0.00000000E+00
  -0.25200000E+01           0.00000000E+00
  -0.25100000E+01           0.00000000E+00
  -0.25000000E+01           0.00000000E+00
  -0.24900000E+01           0.00000000E+00
  -0.24800000E+01           0.00000000E+00
  -0.24700000E+01           0.00000000E+00
  -0.24600000E+01           0.00000000E+00
  -0.24500000E+01           0.00000000E+00
  -0.24400000E+01           0.00000000E+00
  -0.24300000E+01           0.00000000E+00
  -0.24200000E+01           0.00000000E+00
  -0.24100000E+01           0.00000000E+00
  -0.24000000E+01           0.00000000E+00
  -0.23900000E+01           0.00000000E+00
  -0.23800000E+01           0.00000000E+00
  -0.23700000E+01           0.00000000E+00
  -0.23600000E+01           0.00000000E+00
  -0.23500000E+01           0.00000000E+00
  -0.23400000E+01           0.00000000E+00
  -0.23300000E+01           0.00000000E+00
  -0.23200000E+01           0.00000000E+00
  -0.23100000E+01           0.00000000E+00
  -0.23000000E+01           0.00000000E+00
  -0.22900000E+01           0.00000000E+00
  -0.22800000E+01           0.00000000E+00
  -0.22700000E+01           0.00000000E+00
  -0.22600000E+01           0.00000000E+00
  -0.22500000E+01           0.00000000E+00
  -0.22400000E+01           0.00000000E+00
  -0.22300000E+01           0.00000000E+00
  -0.22200000E+01           0.00000000E+00
  -0.22100000E+01           0.00000000E+00
  -0.22000000E+01           0.00000000E+00
  -0.21900000E+01           0.00000000E+00
  -0.21800000E+01           0.00000000E+00
  -0.21700000E+01           0.00000000E+00
  -0.21600000E+01           0.00000000E+00
  -0.21500000E+01           0.00000000E+00
  -0.21400000E+01           0.00000000E+00
  -0.21300000E+01           0.00000000E+00
  -0.21200000E+01           0.00000000E+00
  -0.21100000E+01           0.00000000E+00
  -0.21000000E+01           0.00000000E+00
  -0.20900000E+01           0.00000000E+00
  -0.20800000E+01           0.00000000E+00
  -0.20700000E+01           0.00000000E+00
  -0.20600000E+01           0.00000000E+00
  -0.20500000E+01           0.00000000E+00
  -0.20400000E+01           0.00000000E+00
  -0.20300000E+01           0.00000000E+00
  -0.20200000E+01           0.00000000E+00
  -0.20100000E+01           0.00000000E+00
  -0.20000000E+01           0.00000000E+00
  -0.19900000E+01           0.00000000E+00
  -0.19800000E+01           0.00000000E+00
  -0.19700000E+01           0.00000000E+00
  -0.19600000E+01           0.00000000E+00
  -0.19500000E+01           0.00000000E+00
  -0.19400000E+01           0.00000000E+00
  -0.19300000E+01           0.00000000E+00
  -0.19200000E+01           0.00000000E+00
  -0.19100000E+01           0.00000000E+00
  -0.19000000E+01           0.00000000E+00
  -0.18900000E+01           0.00000000E+00
  -0.18800000E+01           0.00000000E+00
  -0.18700000E+01           0.00000000E+00
  -0.18600000E+01           0.00000000E+00
  -0.18500000E+01           0.00000000E+00
  -0.18400000E+01           0.00000000E+00
  -0.18300000E+01           0.00000000E+00
  -0.18200000E+01           0.00000000E+00
  -0.18100000E+01           0.00000000E+00
  -0.18000000E+01           0.00000000E+00
  -0.17900000E+01           0.00000000E+00
  -0.17800000E+01           0.00000000E+00
  -0.17700000E+01           0.00000000E+00
  -0.17600000E+01           0.00000000E+00
  -0.17500000E+01           0.00000000E+00
  -0.17400000E+01           0.00000000E+00
  -0.17300000E+01           0.00000000E+00
  -0.17200000E+01           0.00000000E+00
  -0.17100000E+01           0.00000000E+00
  -0.17000000E+01           0.00000000E+00
  -0.16900000E+01           0.00000000E+00
  -0.16800000E+01           0.00000000E+00
  -0.16700000E+01           0.00000000E+00
  -0.16600000E+01           0.00000000E+00
  -0.16500000E+01           0.00000000E+00
  -0.16400000E+01           0.00000000E+00
  -0.16300000E+01           0.00000000E+00
  -0.16200000E+01           0.00000000E+00
  -0.16100000E+01           0.00000000E+00
  -0.16000000E+01           0.00000000E+00
  -0.15900000E+01           0.00000000E+00
  -0.15800000E+01           0.00000000E+00
  -0.15700000E+01           0.00000000E+00
  -0.15600000E+01           0.00000000E+00
  -0.15500000E+01           0.00000000E+00
  -0.15400000E+01           0.00000000E+00
  -0.15300000E+01           0.00000000E+00
  -0.15200000E+01           0.00000000E+00
  -0.15100000E+01           0.00000000E+00
  -0.15000000E+01           0.00000000E+00
  -0.14900000E+01           0.00000000E+00
  -0.14800000E+01           0.00000000E+00
  -0.14700000E+01           0.00000000E+00
  -0.14600000E+01           0.00000000E+00
  -0.14500000E+01           0.00000000E+00
  -0.14400000E+01           0.00000000E+00
  -0.14300000E+01           0.00000000E+00
  -0.14200000E+01           0.00000000E+00
  -0.14100000E+01           0.00000000E+00
  -0.14000000E+01           0.00000000E+00
  -0.13900000E+01           0.00000000E+00
  -0.13800000E+01           0.00000000E+00
  -0.13700000E+01           0.00000000E+00
  -0.13600000E+01           0.00000000E+00
  -0.13500000E+01           0.00000000E+00
  -0.13400000E+01           0.00000000E+00
  -0.13300000E+01           0.00000000E+00
  -0.13200000E+01           0.00000000E+00
  -0.13100000E+01           0.00000000E+00
  -0.13000000E+01           0.00000000E+00
  -0.12900000E+01           0.00000000E+00
  -0.12800000E+01           0.00000000E+00
  -0.12700000E+01           0.00000000E+00
  -0.12600000E+01           0.00000000E+00
  -0.12500000E+01           0.00000000E+00
  -0.12400000E+01           0.00000000E+00
  -0.12300000E+01           0.00000000E+00
  -0.12200000E+01           0.00000000E+00
  -0.12100000E+01           0.00000000E+00
  -0.12000000E+01           0.00000000E+00
  -0.11900000E+01           0.00000000E+00
  -0.11800000E+01           0.00000000E+00
  -0.11700000E+01           0.00000000E+00
  -0.11600000E+01           0.00000000E+00
  -0.11500000E+01           0.00000000E+00
  -0.11400000E+01           0.00000000E+00
  -0.11300000E+01           0.00000000E+00
  -0.11200000E+01           0.00000000E+00
  -0.11100000E+01           0.00000000E+00
  -0.11000000E+01           0.00000000E+00
  -0.10900000E+01           0.00000000E+00
  -0.10800000E+01           0.00000000E+00
  -0.10700000E+01           0.00000000E+00
  -0.10600000E+01           0.00000000E+00
  -0.10500000E+01           0.00000000E+00
  -0.10400000E+01           0.00000000E+00
  -0.10300000E+01           0.00000000E+00
  -0.10200000E+01           0.00000000E+00
  -0.10100000E+01           0.00000000E+00
  -0.10000000E+01           0.00000000E+00
  -0.99000000E+00           0.00000000E+00
  -0.98000000E+00           0.00000000E+00
  -0.97000000E+00           0.00000000E+00
  -0.96000000E+00           0.00000000E+00
  -0.95000000E+00           0.00000000E+00
  -0.94000000E+00           0.00000000E+00
  -0.93000000E+00           0.00000000E+00
  -0.92000000E+00           0.00000000E+00
  -0.91000000E+00           0.00000000E+00
  -0.90000000E+00           0.00000000E+00
  -0.89000000E+00           0.00000000E+00
  -0.88000000E+00           0.00000000E+00
  -0.87000000E+00           0.00000000E+00
  -0.86000000E+00           0.00000000E+00
  -0.85000000E+00           0.00000000E+00
  -0.84000000E+00           0.00000000E+00
  -0.83000000E+00           0.00000000E+00
  -0.82000000E+00           0.00000000E+00
  -0.81000000E+00           0.00000000E+00
  -0.80000000E+00           0.00000000E+00
  -0.79000000E+00           0.00000000E+00
  -0.78000000E+00           0.00000000E+00
  -0.77000000E+00           0.00000000E+00
  -0.76000000E+00           0.00000000E+00
  -0.75000000E+00           0.00000000E+00
  -0.74000000E+00           0.00000000E+00
  -0.73000000E+00           0.00000000E+00
  -0.72000000E+00           0.00000000E+00
  -0.71000000E+00           0.00000000E+00
  -0.70000000E+00           0.00000000E+00
  -0.69000000E+00           0.00000000E+00
  -0.68000000E+00           0.00000000E+00
  -0.67000000E+00           0.00000000E+00
  -0.66000000E+00           0.00000000E+00
  -0.65000000E+00           0.00000000E+00
  -0.64000000E+00           0.00000000E+00
  -0.63000000E+00           0.00000000E+00
  -0.62000000E+00           0.00000000E+00
  -0.61000000E+00           0.00000000E+00
  -0.60000000E+00           0.00000000E+00
  -0.59000000E+00           0.00000000E+00
  -0.58000000E+00           0.00000000E+00
  -0.57000000E+00           0.00000000E+00
  -0.56000000E+00           0.00000000E+00
  -0.55000000E+00           0.00000000E+00
  -0.54000000E+00           0.00000000E+00
  -0.53000000E+00           0.00000000E+00
  -0.52000000E+00           0.00000000E+00
  -0.51000000E+00           0.00000000E+00
  -0.50000000E+00           0.00000000E+00
  -0.49000000E+00           0.00000000E+00
  -0.48000000E+00           0.00000000E+00
  -0.47000000E+00           0.00000000E+00
  -0.46000000E+00           0.00000000E+00
  -0.45000000E+00           0.00000000E+00
  -0.44000000E+00           0.00000000E+00
  -0.43000000E+00           0.00000000E+00
  -0.42000000E+00           0.00000000E+00
  -0.41000000E+00           0.00000000E+00
  -0.40000000E+00           0.00000000E+00
  -0.39000000E+00           0.00000000E+00
  -0.38000000E+00           0.00000000E+00
  -0.37000000E+00           0.00000000E+00
  -0.36000000E+00           0.00000000E+00
  -0.35000000E+00           0.00000000E+00
  -0.34000000E+00           0.00000000E+00
  -0.33000000E+00           0.00000000E+00
  -0.32000000E+00           0.00000000E+00
  -0.31000000E+00           0.00000000E+00
  -0.30000000E+00           0.00000000E+00
  -0.29000000E+00           0.00000000E+00
  -0.28000000E+00           0.00000000E+00
  -0.27000000E+00           0.00000000E+00
  -0.26000000E+00           0.00000000E+00
  -0.25000000E+00           0.00000000E+00
  -0.24000000E+00           0.00000000E+00
  -0.23000000E+00           0.00000000E+00
  -0.22000000E+00           0.00000000E+00
  -0.21000000E+00           0.00000000E+00
  -0.20000000E+00           0.00000000E+00
  -0.19000000E+00           0.00000000E+00
  -0.18000000E+00           0.00000000E+00
  -0.17000000E+00           0.00000000E+00
  -0.16000000E+00           0.00000000E+00
  -0.15000000E+00           0.00000000E+00
  -0.14000000E+00           0.00000000E+00
  -0.13000000E+00           0.00000000E+00
  -0.12000000E+00           0.00000000E+00
  -0.11000000E+00           0.00000000E+00
  -0.10000000E+00           0.00000000E+00
  -0.90000000E-01           0.00000000E+00
  -0.80000000E-01           0.00000000E+00
  -0.70000000E-01           0.00000000E+00
  -0.60000000E-01           0.00000000E+00
  -0.50000000E-01           0.00000000E+00
  -0.40000000E-01           0.00000000E+00
  -0.30000000E-01           0.00000000E+00
  -0.20000000E-01           0.00000000E+00
  -0.10000000E-01           0.00000000E+00
   0.00000000E+00           0.19531250E-05
   0.10000000E-01           0.56250000E-04
   0.20000000E-01           0.22304687E-03
   0.30000000E-01           0.49121094E-03
   0.40000000E-01           0.87324219E-03
   0.50000000E-01           0.13478516E-02
   0.60000000E-01           0.18876953E-02
   0.70000000E-01           0.26142578E-02
   0.80000000E-01           0.33394531E-02
   0.90000000E-01           0.42146484E-02
   0.10000000E+00           0.52027344E-02
   0.11000000E+00           0.62410156E-02
   0.12000000E+00           0.73826172E-02
   0.13000000E+00           0.85929687E-02
   0.14000000E+00           0.99148437E-02
   0.15000000E+00           0.11370703E-01
   0.16000000E+00           0.12846289E-01
   0.17000000E+00           0.14353125E-01
   0.18000000E+00           0.16147070E-01
   0.19000000E+00           0.17791211E-01
   0.20000000E+00           0.19723047E-01
   0.21000000E+00           0.21610156E-01
   0.22000000E+00           0.23514453E-01
   0.23000000E+00           0.25714844E-01
   0.24000000E+00           0.27812500E-01
   0.25000000E+00           0.29873828E-01
   0.26000000E+00           0.32415430E-01
   0.27000000E+00           0.34600391E-01
   0.28000000E+00           0.37015430E-01
   0.29000000E+00           0.39485742E-01
   0.30000000E+00           0.42038867E-01
   0.31000000E+00           0.44584766E-01
   0.32000000E+00           0.47422461E-01
   0.33000000E+00           0.50142578E-01
   0.34000000E+00           0.53109961E-01
   0.35000000E+00           0.55910742E-01
   0.36000000E+00           0.58821094E-01
   0.37000000E+00           0.61555078E-01
   0.38000000E+00           0.64851758E-01
   0.39000000E+00           0.67758984E-01
   0.40000000E+00           0.70924805E-01
   0.41000000E+00           0.74180469E-01
   0.42000000E+00           0.77558008E-01
   0.43000000E+00           0.80692773E-01
   0.44000000E+00           0.84038477E-01
   0.45000000E+00           0.87639648E-01
   0.46000000E+00           0.90917578E-01
   0.47000000E+00           0.94608594E-01
   0.48000000E+00           0.98086133E-01
   0.49000000E+00           0.10181035E+00
   0.50000000E+00           0.10539512E+00
   0.51000000E+00           0.10874648E+00
   0.52000000E+00           0.11234629E+00
   0.53000000E+00           0.11643516E+00
   0.54000000E+00           0.12038164E+00
   0.55000000E+00           0.12385195E+00
   0.56000000E+00           0.12779766E+00
   0.57000000E+00           0.13169941E+00
   0.58000000E+00           0.13574629E+00
   0.59000000E+00           0.13959277E+00
   0.60000000E+00           0.14365684E+00
   0.61000000E+00           0.14730605E+00
   0.62000000E+00           0.15156074E+00
   0.63000000E+00           0.15565527E+00
   0.64000000E+00           0.15957969E+00
   0.65000000E+00           0.16383125E+00
   0.66000000E+00           0.16826406E+00
   0.67000000E+00           0.17245098E+00
   0.68000000E+00           0.17627109E+00
   0.69000000E+00           0.18068164E+00
   0.70000000E+00           0.18524961E+00
   0.71000000E+00           0.18904961E+00
   0.72000000E+00           0.19318262E+00
   0.73000000E+00           0.19767754E+00
   0.74000000E+00           0.20217754E+00
   0.75000000E+00           0.20594141E+00
   0.76000000E+00           0.21055762E+00
   0.77000000E+00           0.21483789E+00
   0.78000000E+00           0.21892187E+00
   0.79000000E+00           0.22343965E+00
   0.80000000E+00           0.22816875E+00
   0.81000000E+00           0.23221270E+00
   0.82000000E+00           0.23641074E+00
   0.83000000E+00           0.24097461E+00
   0.84000000E+00           0.24526699E+00
   0.85000000E+00           0.24931719E+00
   0.86000000E+00           0.25390859E+00
   0.87000000E+00           0.25856914E+00
   0.88000000E+00           0.26255605E+00
   0.89000000E+00           0.26744922E+00
   0.90000000E+00           0.27175801E+00
   0.91000000E+00           0.27608965E+00
   0.92000000E+00           0.28083379E+00
   0.93000000E+00           0.28497969E+00
   0.94000000E+00           0.28936211E+00
   0.95000000E+00           0.29370664E+00
   0.96000000E+00           0.29788535E+00
   0.97000000E+00           0.30264082E+00
   0.98000000E+00           0.30667773E+00
   0.99000000E+00           0.31137324E+00
   0.10000000E+01           0.31526309E+00
   0.10100000E+01           0.32008555E+00
   0.10200000E+01           0.32424551E+00
   0.10300000E+01           0.32781758E+00
   0.10400000E+01           0.33218164E+00
   0.10500000E+01           0.33648555E+00
   0.10600000E+01           0.34091074E+00
   0.10700000E+01           0.34508789E+00
   0.10800000E+01           0.34965449E+00
   0.10900000E+01           0.35354238E+00
   0.11000000E+01           0.35777109E+00
   0.11100000E+01           0.36173848E+00
   0.11200000E+01           0.36544902E+00
   0.11300000E+01           0.37025234E+00
   0.11400000E+01           0.37420879E+00
   0.11500000E+01           0.37799668E+00
   0.11600000E+01           0.38189277E+00
   0.11700000E+01           0.38565625E+00
   0.11800000E+01           0.39027109E+00
   0.11900000E+01           0.39433203E+00
   0.12000000E+01           0.39807363E+00
   0.12100000E+01           0.40177871E+00
   0.12200000E+01           0.40534375E+00
   0.12300000E+01           0.40918184E+00
   0.12400000E+01           0.41274121E+00
   0.12500000E+01           0.41607207E+00
   0.12600000E+01           0.42020137E+00
   0.12700000E+01           0.42350488E+00
   0.12800000E+01           0.42710098E+00
   0.12900000E+01           0.43120039E+00
   0.13000000E+01           0.43444492E+00
   0.13100000E+01           0.43743652E+00
   0.13200000E+01           0.44166992E+00
   0.13300000E+01           0.44469824E+00
   0.13400000E+01           0.44790664E+00
   0.13500000E+01           0.45145332E+00
   0.13600000E+01           0.45464023E+00
   0.13700000E+01           0.45811387E+00
   0.13800000E+01           0.46103516E+00
   0.13900000E+01           0.46386914E+00
   0.14000000E+01           0.46707559E+00
   0.14100000E+01           0.46975215E+00
   0.14200000E+01           0.47284668E+00
   0.14300000E+01           0.47625273E+00
   0.14400000E+01           0.47853652E+00
   0.14500000E+01           0.48139688E+00
   0.14600000E+01           0.48390762E+00
   0.14700000E+01           0.48636680E+00
   0.14800000E+01           0.48907422E+00
   0.14900000E+01           0.49226992E+00
   0.15000000E+01           0.49390605E+00
   0.15100000E+01           0.49628867E+00
   0.15200000E+01           0.49929883E+00
   0.15300000E+01           0.50130273E+00
   0.15400000E+01           0.50329434E+00
   0.15500000E+01           0.50549766E+00
   0.15600000E+01           0.50723496E+00
   0.15700000E+01           0.50896621E+00
   0.15800000E+01           0.51154355E+00
   0.15900000E+01           0.51264023E+00
   0.16000000E+01           0.51500762E+00
   0.16100000E+01           0.51697773E+00
   0.16200000E+01           0.51782227E+00
   0.16300000E+01           0.51916270E+00
   0.16400000E+01           0.52124375E+00
   0.16500000E+01           0.52209023E+00
   0.16600000E+01           0.52299707E+00
   0.16700000E+01           0.52487480E+00
   0.16800000E+01           0.52619258E+00
   0.16900000E+01           0.52576113E+00
   0.17000000E+01           0.52715293E+00
   0.17100000E+01           0.52836660E+00
   0.17200000E+01           0.52914980E+00
   0.17300000E+01           0.52903242E+00
   0.17400000E+01           0.53025059E+00
   0.17500000E+01           0.53035078E+00
   0.17600000E+01           0.53074102E+00
   0.17700000E+01           0.53076172E+00
   0.17800000E+01           0.53091426E+00
   0.17900000E+01           0.53043008E+00
   0.18000000E+01           0.53043574E+00
   0.18100000E+01           0.53089766E+00
   0.18200000E+01           0.53026113E+00
   0.18300000E+01           0.52936641E+00
   0.18400000E+01           0.52980547E+00
   0.18500000E+01           0.52865020E+00
   0.18600000E+01           0.52731289E+00
   0.18700000E+01           0.52598242E+00
   0.18800000E+01           0.52585352E+00
   0.18900000E+01           0.52420098E+00
   0.19000000E+01           0.52229629E+00
   0.19100000E+01           0.52080391E+00
   0.19200000E+01           0.51981816E+00
   0.19300000E+01           0.51721230E+00
   0.19400000E+01           0.51592109E+00
   0.19500000E+01           0.51317246E+00
   0.19600000E+01           0.51177598E+00
   0.19700000E+01           0.50993613E+00
   0.19800000E+01           0.50661602E+00
   0.19900000E+01           0.50430898E+00
   0.20000000E+01           0.50140801E+00
   0.20100000E+01           0.49772344E+00
   0.20200000E+01           0.49535801E+00
   0.20300000E+01           0.49188145E+00
   0.20400000E+01           0.48917363E+00
   0.20500000E+01           0.48697754E+00
   0.20600000E+01           0.48342871E+00
   0.20700000E+01           0.47962012E+00
   0.20800000E+01           0.47784746E+00
   0.20900000E+01           0.47509180E+00
   0.21000000E+01           0.47127129E+00
   0.21100000E+01           0.46827617E+00
   0.21200000E+01           0.46501523E+00
   0.21300000E+01           0.46169707E+00
   0.21400000E+01           0.45920605E+00
   0.21500000E+01           0.45564082E+00
   0.21600000E+01           0.45205176E+00
   0.21700000E+01           0.44898203E+00
   0.21800000E+01           0.44628672E+00
   0.21900000E+01           0.44303984E+00
   0.22000000E+01           0.43944785E+00
   0.22100000E+01           0.43715449E+00
   0.22200000E+01           0.43386504E+00
   0.22300000E+01           0.43008496E+00
   0.22400000E+01           0.42703418E+00
   0.22500000E+01           0.42355723E+00
   0.22600000E+01           0.42013184E+00
   0.22700000E+01           0.41739160E+00
   0.22800000E+01           0.41407148E+00
   0.22900000E+01           0.40998027E+00
   0.23000000E+01           0.40746758E+00
   0.23100000E+01           0.40441758E+00
   0.23200000E+01           0.40104121E+00
   0.23300000E+01           0.39780078E+00
   0.23400000E+01           0.39393516E+00
   0.23500000E+01           0.39043867E+00
   0.23600000E+01           0.38797598E+00
   0.23700000E+01           0.38419766E+00
   0.23800000E+01           0.38117520E+00
   0.23900000E+01           0.37780996E+00
   0.24000000E+01           0.37412715E+00
   0.24100000E+01           0.37090332E+00
   0.24200000E+01           0.36800918E+00
   0.24300000E+01           0.36460527E+00
   0.24400000E+01           0.36121660E+00
   0.24500000E+01           0.35814238E+00
   0.24600000E+01           0.35431152E+00
   0.24700000E+01           0.35101484E+00
   0.24800000E+01           0.34740312E+00
   0.24900000E+01           0.34416504E+00
   0.25000000E+01           0.34126523E+00
   0.25100000E+01           0.33786855E+00
   0.25200000E+01           0.33458008E+00
   0.25300000E+01           0.33159180E+00
   0.25400000E+01           0.32781504E+00
   0.25500000E+01           0.32474141E+00
   0.25600000E+01           0.32123613E+00
   0.25700000E+01           0.31822187E+00
   0.25800000E+01           0.31463262E+00
   0.25900000E+01           0.31145254E+00
   0.26000000E+01           0.30810605E+00
   0.26100000E+01           0.30483008E+00
   0.26200000E+01           0.30149375E+00
   0.26300000E+01           0.29843691E+00
   0.26400000E+01           0.29489062E+00
   0.26500000E+01           0.29153086E+00
   0.26600000E+01           0.28787598E+00
   0.26700000E+01           0.28543242E+00
   0.26800000E+01           0.28211094E+00
   0.26900000E+01           0.27892520E+00
   0.27000000E+01           0.27578418E+00
   0.27100000E+01           0.27259004E+00
   0.27200000E+01           0.26949824E+00
   0.27300000E+01           0.26631563E+00
   0.27400000E+01           0.26274551E+00
   0.27500000E+01           0.26014102E+00
   0.27600000E+01           0.25655039E+00
   0.27700000E+01           0.25331875E+00
   0.27800000E+01           0.24999238E+00
   0.27900000E+01           0.24706289E+00
   0.28000000E+01           0.24407539E+00
   0.28100000E+01           0.24079629E+00
   0.28200000E+01           0.23764062E+00
   0.28300000E+01           0.23518359E+00
   0.28400000E+01           0.23148613E+00
   0.28500000E+01           0.22863340E+00
   0.28600000E+01           0.22534766E+00
   0.28700000E+01           0.22187891E+00
   0.28800000E+01           0.21914102E+00
   0.28900000E+01           0.21609316E+00
   0.29000000E+01           0.21302168E+00
   0.29100000E+01           0.20984668E+00
   0.29200000E+01           0.20726074E+00
   0.29300000E+01           0.20376973E+00
   0.29400000E+01           0.20121719E+00
   0.29500000E+01           0.19815645E+00
   0.29600000E+01           0.19548613E+00
   0.29700000E+01           0.19222383E+00
   0.29800000E+01           0.18933750E+00
   0.29900000E+01           0.18624707E+00
   0.30000000E+01           0.18379473E+00
   0.30100000E+01           0.18079199E+00
   0.30200000E+01           0.17756719E+00
   0.30300000E+01           0.17516973E+00
   0.30400000E+01           0.17218027E+00
   0.30500000E+01           0.16909551E+00
   0.30600000E+01           0.16665176E+00
   0.30700000E+01           0.16361348E+00
   0.30800000E+01           0.16087969E+00
   0.30900000E+01           0.15819160E+00
   0.31000000E+01           0.15538867E+00
   0.31100000E+01           0.15267285E+00
   0.31200000E+01           0.15013711E+00
   0.31300000E+01           0.14722344E+00
   0.31400000E+01           0.14438086E+00
   0.31500000E+01           0.14201387E+00
   0.31600000E+01           0.13906172E+00
   0.31700000E+01           0.13643535E+00
   0.31800000E+01           0.13399160E+00
   0.31900000E+01           0.13134316E+00
   0.32000000E+01           0.12865547E+00
   0.32100000E+01           0.12605664E+00
   0.32200000E+01           0.12387324E+00
   0.32300000E+01           0.12076055E+00
   0.32400000E+01           0.11837598E+00
   0.32500000E+01           0.11606895E+00
   0.32600000E+01           0.11337520E+00
   0.32700000E+01           0.11099785E+00
   0.32800000E+01           0.10832109E+00
   0.32900000E+01           0.10610488E+00
   0.33000000E+01           0.10336406E+00
   0.33100000E+01           0.10113750E+00
   0.33200000E+01           0.98631445E-01
   0.33300000E+01           0.96564062E-01
   0.33400000E+01           0.94395312E-01
   0.33500000E+01           0.91657227E-01
   0.33600000E+01           0.89488281E-01
   0.33700000E+01           0.87219727E-01
   0.33800000E+01           0.84797461E-01
   0.33900000E+01           0.82837305E-01
   0.34000000E+01           0.80434766E-01
   0.34100000E+01           0.78140234E-01
   0.34200000E+01           0.76054297E-01
   0.34300000E+01           0.73811523E-01
   0.34400000E+01           0.71787695E-01
   0.34500000E+01           0.69458594E-01
   0.34600000E+01           0.67670898E-01
   0.34700000E+01           0.65431641E-01
   0.34800000E+01           0.63218555E-01
   0.34900000E+01           0.61313867E-01
   0.35000000E+01           0.59396875E-01
   0.35100000E+01           0.57128320E-01
   0.35200000E+01           0.55390625E-01
   0.35300000E+01           0.53318750E-01
   0.35400000E+01           0.51475391E-01
   0.35500000E+01           0.49520898E-01
   0.35600000E+01           0.47496680E-01
   0.35700000E+01           0.45657812E-01
   0.35800000E+01           0.43970312E-01
   0.35900000E+01           0.42185156E-01
   0.36000000E+01           0.40481250E-01
   0.36100000E+01           0.38699609E-01
   0.36200000E+01           0.36981445E-01
   0.36300000E+01           0.35366211E-01
   0.36400000E+01           0.33676172E-01
   0.36500000E+01           0.31922070E-01
   0.36600000E+01           0.30424219E-01
   0.36700000E+01           0.28880078E-01
   0.36800000E+01           0.27387891E-01
   0.36900000E+01           0.25964648E-01
   0.37000000E+01           0.24490820E-01
   0.37100000E+01           0.22888477E-01
   0.37200000E+01           0.21644531E-01
   0.37300000E+01           0.20256055E-01
   0.37400000E+01           0.18794336E-01
   0.37500000E+01           0.17549414E-01
   0.37600000E+01           0.16316797E-01
   0.37700000E+01           0.15052734E-01
   0.37800000E+01           0.14005469E-01
   0.37900000E+01           0.12841211E-01
   0.38000000E+01           0.11675000E-01
   0.38100000E+01           0.10598047E-01
   0.38200000E+01           0.96638672E-02
   0.38300000E+01           0.86787109E-02
   0.38400000E+01           0.77177734E-02
   0.38500000E+01           0.68302734E-02
   0.38600000E+01           0.60330078E-02
   0.38700000E+01           0.52216797E-02
   0.38800000E+01           0.44757812E-02
   0.38900000E+01           0.38298828E-02
   0.39000000E+01           0.31373047E-02
   0.39100000E+01           0.26013672E-02
   0.39200000E+01           0.20699219E-02
   0.39300000E+01           0.15732422E-02
   0.39400000E+01           0.11789063E-02
   0.39500000E+01           0.82167969E-03
   0.39600000E+01           0.52304687E-03
   0.39700000E+01           0.30644531E-03
   0.39800000E+01           0.13574219E-03
   0.39900000E+01           0.31640625E-04
   0.40000000E+01           0.11718750E-05
 #T=   151.0000
  -0.40000000E+01           0.00000000E+00
  -0.39900000E+01           0.00000000E+00
  -0.39800000E+01           0.00000000E+00
  -0.39700000E+01           0.00000000E+00
  -0.39600000E+01           0.00000000E+00
  -0.39500000E+01           0.00000000E+00
  -0.39400000E+01           0.00000000E+00
  -0.39300000E+01           0.00000000E+00
  -0.39200000E+01           0.00000000E+00
  -0.39100000E+01           0.00000000E+00
  -0.39000000E+01           0.00000000E+00
  -0.38900000E+01           0.00000000E+00
  -0.38800000E+01           0.00000000E+00
  -0.38700000E+01           0.00000000E+00
  -0.38600000E+01           0.00000000E+00
  -0.38500000E+01           0.00000000E+00
  -0.38400000E+01           0.00000000E+00
  -0.38300000E+01           0.00000000E+00
  -0.38200000E+01           0.00000000E+00
  -0.38100000E+01           0.00000000E+00
  -0.38000000E+01           0.00000000E+00
  -0.37900000E+01           0.00000000E+00
  -0.37800000E+01           0.00000000E+00
  -0.37700000E+01           0.00000000E+00
  -0.37600000E+01           0.00000000E+00
  -0.37500000E+01           0.00000000E+00
  -0.37400000E+01           0.00000000E+00
  -0.37300000E+01           0.00000000E+00
  -0.37200000E+01           0.00000000E+00
  -0.37100000E+01           0.00000000E+00
  -0.37000000E+01           0.00000000E+00
  -0.36900000E+01           0.00000000E+00
  -0.36800000E+01           0.00000000E+00
  -0.36700000E+01           0.00000000E+00
  -0.36600000E+01           0.00000000E+00
  -0.36500000E+01           0.00000000E+00
  -0.36400000E+01           0.00000000E+00
  -0.36300000E+01           0.00000000E+00
  -0.36200000E+01           0.00000000E+00
  -0.36100000E+01           0.00000000E+00
  -0.36000000E+01           0.00000000E+00
  -0.35900000E+01           0.00000000E+00
  -0.35800000E+01           0.00000000E+00
  -0.35700000E+01           0.00000000E+00
  -0.35600000E+01           0.00000000E+00
  -0.35500000E+01           0.00000000E+00
  -0.35400000E+01           0.00000000E+00
  -0.35300000E+01           0.00000000E+00
  -0.35200000E+01           0.00000000E+00
  -0.35100000E+01           0.00000000E+00
  -0.35000000E+01           0.00000000E+00
  -0.34900000E+01           0.00000000E+00
  -0.34800000E+01           0.00000000E+00
  -0.34700000E+01           0.00000000E+00
  -0.34600000E+01           0.00000000E+00
  -0.34500000E+01           0.00000000E+00
  -0.34400000E+01           0.00000000E+00
  -0.34300000E+01           0.00000000E+00
  -0.34200000E+01           0.00000000E+00
  -0.34100000E+01           0.00000000E+00
  -0.34000000E+01           0.00000000E+00
  -0.33900000E+01           0.00000000E+00
  -0.33800000E+01           0.00000000E+00
  -0.33700000E+01           0.00000000E+00
  -0.33600000E+01           0.00000000E+00
  -0.33500000E+01           0.00000000E+00
  -0.33400000E+01           0.00000000E+00
  -0.33300000E+01           0.00000000E+00
  -0.33200000E+01           0.00000000E+00
  -0.33100000E+01           0.00000000E+00
  -0.33000000E+01           0.00000000E+00
  -0.32900000E+01           0.00000000E+00
  -0.32800000E+01           0.00000000E+00
  -0.32700000E+01           0.00000000E+00
  -0.32600000E+01           0.00000000E+00
  -0.32500000E+01           0.00000000E+00
  -0.32400000E+01           0.00000000E+00
  -0.32300000E+01           0.00000000E+00
  -0.32200000E+01           0.00000000E+00
  -0.32100000E+01           0.00000000E+00
  -0.32000000E+01           0.00000000E+00
  -0.31900000E+01           0.00000000E+00
  -0.31800000E+01           0.00000000E+00
  -0.31700000E+01           0.00000000E+00
  -0.31600000E+01           0.00000000E+00
  -0.31500000E+01           0.00000000E+00
  -0.31400000E+01           0.00000000E+00
  -0.31300000E+01           0.00000000E+00
  -0.31200000E+01           0.00000000E+00
  -0.31100000E+01           0.00000000E+00
  -0.31000000E+01           0.00000000E+00
  -0.30900000E+01           0.00000000E+00
  -0.30800000E+01           0.00000000E+00
  -0.30700000E+01           0.00000000E+00
  -0.30600000E+01           0.00000000E+00
  -0.30500000E+01           0.00000000E+00
  -0.30400000E+01           0.00000000E+00
  -0.30300000E+01           0.00000000E+00
  -0.30200000E+01           0.00000000E+00
  -0.30100000E+01           0.00000000E+00
  -0.30000000E+01           0.00000000E+00
  -0.29900000E+01           0.00000000E+00
  -0.29800000E+01           0.00000000E+00
  -0.29700000E+01           0.00000000E+00
  -0.29600000E+01           0.00000000E+00
  -0.29500000E+01           0.00000000E+00
  -0.29400000E+01           0.00000000E+00
  -0.29300000E+01           0.00000000E+00
  -0.29200000E+01           0.00000000E+00
  -0.29100000E+01           0.00000000E+00
  -0.29000000E+01           0.00000000E+00
  -0.28900000E+01           0.00000000E+00
  -0.28800000E+01           0.00000000E+00
  -0.28700000E+01           0.00000000E+00
  -0.28600000E+01           0.00000000E+00
  -0.28500000E+01           0.00000000E+00
  -0.28400000E+01           0.00000000E+00
  -0.28300000E+01           0.00000000E+00
  -0.28200000E+01           0.00000000E+00
  -0.28100000E+01           0.00000000E+00
  -0.28000000E+01           0.00000000E+00
  -0.27900000E+01           0.00000000E+00
  -0.27800000E+01           0.00000000E+00
  -0.27700000E+01           0.00000000E+00
  -0.27600000E+01           0.00000000E+00
  -0.27500000E+01           0.00000000E+00
  -0.27400000E+01           0.00000000E+00
  -0.27300000E+01           0.00000000E+00
  -0.27200000E+01           0.00000000E+00
  -0.27100000E+01           0.00000000E+00
  -0.27000000E+01           0.00000000E+00
  -0.26900000E+01           0.00000000E+00
  -0.26800000E+01           0.00000000E+00
  -0.26700000E+01           0.00000000E+00
  -0.26600000E+01           0.00000000E+00
  -0.26500000E+01           0.00000000E+00
  -0.26400000E+01           0.00000000E+00
  -0.26300000E+01           0.00000000E+00
  -0.26200000E+01           0.00000000E+00
  -0.26100000E+01           0.00000000E+00
  -0.26000000E+01           0.00000000E+00
  -0.25900000E+01           0.00000000E+00
  -0.25800000E+01           0.00000000E+00
  -0.25700000E+01           0.00000000E+00
  -0.25600000E+01           0.00000000E+00
  -0.25500000E+01           0.00000000E+00
  -0.25400000E+01           0.00000000E+00
  -0.25300000E+01           0.00000000E+00
  -0.25200000E+01           0.00000000E+00
  -0.25100000E+01           0.00000000E+00
  -0.25000000E+01           0.00000000E+00
  -0.24900000E+01           0.00000000E+00
  -0.24800000E+01           0.00000000E+00
  -0.24700000E+01           0.00000000E+00
  -0.24600000E+01           0.00000000E+00
  -0.24500000E+01           0.00000000E+00
  -0.24400000E+01           0.00000000E+00
  -0.24300000E+01           0.00000000E+00
  -0.24200000E+01           0.00000000E+00
  -0.24100000E+01           0.00000000E+00
  -0.24000000E+01           0.00000000E+00
  -0.23900000E+01           0.00000000E+00
  -0.23800000E+01           0.00000000E+00
  -0.23700000E+01           0.00000000E+00
  -0.23600000E+01           0.00000000E+00
  -0.23500000E+01           0.00000000E+00
  -0.23400000E+01           0.00000000E+00
  -0.23300000E+01           0.00000000E+00
  -0.23200000E+01           0.00000000E+00
  -0.23100000E+01           0.00000000E+00
  -0.23000000E+01           0.00000000E+00
  -0.22900000E+01           0.00000000E+00
  -0.22800000E+01           0.00000000E+00
  -0.22700000E+01           0.00000000E+00
  -0.22600000E+01           0.00000000E+00
  -0.22500000E+01           0.00000000E+00
  -0.22400000E+01           0.00000000E+00
  -0.22300000E+01           0.00000000E+00
  -0.22200000E+01           0.00000000E+00
  -0.22100000E+01           0.00000000E+00
  -0.22000000E+01           0.00000000E+00
  -0.21900000E+01           0.00000000E+00
  -0.21800000E+01           0.00000000E+00
  -0.21700000E+01           0.00000000E+00
  -0.21600000E+01           0.00000000E+00
  -0.21500000E+01           0.00000000E+00
  -0.21400000E+01           0.00000000E+00
  -0.21300000E+01           0.00000000E+00
  -0.21200000E+01           0.00000000E+00
  -0.21100000E+01           0.00000000E+00
  -0.21000000E+01           0.00000000E+00
  -0.20900000E+01           0.00000000E+00
  -0.20800000E+01           0.00000000E+00
  -0.20700000E+01           0.00000000E+00
  -0.20600000E+01           0.00000000E+00
  -0.20500000E+01           0.00000000E+00
  -0.20400000E+01           0.00000000E+00
  -0.20300000E+01           0.00000000E+00
  -0.20200000E+01           0.00000000E+00
  -0.20100000E+01           0.00000000E+00
  -0.20000000E+01           0.00000000E+00
  -0.19900000E+01           0.00000000E+00
  -0.19800000E+01           0.00000000E+00
  -0.19700000E+01           0.00000000E+00
  -0.19600000E+01           0.00000000E+00
  -0.19500000E+01           0.00000000E+00
  -0.19400000E+01           0.00000000E+00
  -0.19300000E+01           0.00000000E+00
  -0.19200000E+01           0.00000000E+00
  -0.19100000E+01           0.00000000E+00
  -0.19000000E+01           0.00000000E+00
  -0.18900000E+01           0.00000000E+00
  -0.18800000E+01           0.00000000E+00
  -0.18700000E+01           0.00000000E+00
  -0.18600000E+01           0.00000000E+00
  -0.18500000E+01           0.00000000E+00
  -0.18400000E+01           0.00000000E+00
  -0.18300000E+01           0.00000000E+00
  -0.18200000E+01           0.00000000E+00
  -0.18100000E+01           0.00000000E+00
  -0.18000000E+01           0.00000000E+00
  -0.17900000E+01           0.00000000E+00
  -0.17800000E+01           0.00000000E+00
  -0.17700000E+01           0.00000000E+00
  -0.17600000E+01           0.00000000E+00
  -0.17500000E+01           0.00000000E+00
  -0.17400000E+01           0.00000000E+00
  -0.17300000E+01           0.00000000E+00
  -0.17200000E+01           0.00000000E+00
  -0.17100000E+01           0.00000000E+00
  -0.17000000E+01           0.00000000E+00
  -0.16900000E+01           0.00000000E+00
  -0.16800000E+01           0.00000000E+00
  -0.16700000E+01           0.00000000E+00
  -0.16600000E+01           0.00000000E+00
  -0.16500000E+01           0.00000000E+00
  -0.16400000E+01           0.00000000E+00
  -0.16300000E+01           0.00000000E+00
  -0.16200000E+01           0.00000000E+00
  -0.16100000E+01           0.00000000E+00
  -0.16000000E+01           0.00000000E+00
  -0.15900000E+01           0.00000000E+00
  -0.15800000E+01           0.00000000E+00
  -0.15700000E+01           0.00000000E+00
  -0.15600000E+01           0.00000000E+00
  -0.15500000E+01           0.00000000E+00
  -0.15400000E+01           0.00000000E+00
  -0.15300000E+01           0.00000000E+00
  -0.15200000E+01           0.00000000E+00
  -0.15100000E+01           0.00000000E+00
  -0.15000000E+01           0.00000000E+00
  -0.14900000E+01           0.00000000E+00
  -0.14800000E+01           0.00000000E+00
  -0.14700000E+01           0.00000000E+00
  -0.14600000E+01           0.00000000E+00
  -0.14500000E+01           0.00000000E+00
  -0.14400000E+01           0.00000000E+00
  -0.14300000E+01           0.00000000E+00
  -0.14200000E+01           0.00000000E+00
  -0.14100000E+01           0.00000000E+00
  -0.14000000E+01           0.00000000E+00
  -0.13900000E+01           0.00000000E+00
  -0.13800000E+01           0.00000000E+00
  -0.13700000E+01           0.00000000E+00
  -0.13600000E+01           0.00000000E+00
  -0.13500000E+01           0.00000000E+00
  -0.13400000E+01           0.00000000E+00
  -0.13300000E+01           0.00000000E+00
  -0.13200000E+01           0.00000000E+00
  -0.13100000E+01           0.00000000E+00
  -0.13000000E+01           0.00000000E+00
  -0.12900000E+01           0.00000000E+00
  -0.12800000E+01           0.00000000E+00
  -0.12700000E+01           0.00000000E+00
  -0.12600000E+01           0.00000000E+00
  -0.12500000E+01           0.00000000E+00
  -0.12400000E+01           0.00000000E+00
  -0.12300000E+01           0.00000000E+00
  -0.12200000E+01           0.00000000E+00
  -0.12100000E+01           0.00000000E+00
  -0.12000000E+01           0.00000000E+00
  -0.11900000E+01           0.00000000E+00
  -0.11800000E+01           0.00000000E+00
  -0.11700000E+01           0.00000000E+00
  -0.11600000E+01           0.00000000E+00
  -0.11500000E+01           0.00000000E+00
  -0.11400000E+01           0.00000000E+00
  -0.11300000E+01           0.00000000E+00
  -0.11200000E+01           0.00000000E+00
  -0.11100000E+01           0.00000000E+00
  -0.11000000E+01           0.00000000E+00
  -0.10900000E+01           0.00000000E+00
  -0.10800000E+01           0.00000000E+00
  -0.10700000E+01           0.00000000E+00
  -0.10600000E+01           0.00000000E+00
  -0.10500000E+01           0.00000000E+00
  -0.10400000E+01           0.00000000E+00
  -0.10300000E+01           0.00000000E+00
  -0.10200000E+01           0.00000000E+00
  -0.10100000E+01           0.00000000E+00
  -0.10000000E+01           0.00000000E+00
  -0.99000000E+00           0.00000000E+00
  -0.98000000E+00           0.00000000E+00
  -0.97000000E+00           0.00000000E+00
  -0.96000000E+00           0.00000000E+00
  -0.95000000E+00           0.00000000E+00
  -0.94000000E+00           0.00000000E+00
  -0.93000000E+00           0.00000000E+00
  -0.92000000E+00           0.00000000E+00
  -0.91000000E+00           0.00000000E+00
  -0.90000000E+00           0.00000000E+00
  -0.89000000E+00           0.00000000E+00
  -0.88000000E+00           0.00000000E+00
  -0.87000000E+00           0.00000000E+00
  -0.86000000E+00           0.00000000E+00
  -0.85000000E+00           0.00000000E+00
  -0.84000000E+00           0.00000000E+00
  -0.83000000E+00           0.00000000E+00
  -0.82000000E+00           0.00000000E+00
  -0.81000000E+00           0.00000000E+00
  -0.80000000E+00           0.00000000E+00
  -0.79000000E+00           0.00000000E+00
  -0.78000000E+00           0.00000000E+00
  -0.77000000E+00           0.00000000E+00
  -0.76000000E+00           0.00000000E+00
  -0.75000000E+00           0.00000000E+00
  -0.74000000E+00           0.00000000E+00
  -0.73000000E+00           0.00000000E+00
  -0.72000000E+00           0.00000000E+00
  -0.71000000E+00           0.00000000E+00
  -0.70000000E+00           0.00000000E+00
  -0.69000000E+00           0.00000000E+00
  -0.68000000E+00           0.00000000E+00
  -0.67000000E+00           0.00000000E+00
  -0.66000000E+00           0.00000000E+00
  -0.65000000E+00           0.00000000E+00
  -0.64000000E+00           0.00000000E+00
  -0.63000000E+00           0.00000000E+00
  -0.62000000E+00           0.00000000E+00
  -0.61000000E+00           0.00000000E+00
  -0.60000000E+00           0.00000000E+00
  -0.59000000E+00           0.00000000E+00
  -0.58000000E+00           0.00000000E+00
  -0.57000000E+00           0.00000000E+00
  -0.56000000E+00           0.00000000E+00
  -0.55000000E+00           0.00000000E+00
  -0.54000000E+00           0.00000000E+00
  -0.53000000E+00           0.00000000E+00
  -0.52000000E+00           0.00000000E+00
  -0.51000000E+00           0.00000000E+00
  -0.50000000E+00           0.00000000E+00
  -0.49000000E+00           0.00000000E+00
  -0.48000000E+00           0.00000000E+00
  -0.47000000E+00           0.00000000E+00
  -0.46000000E+00           0.00000000E+00
  -0.45000000E+00           0.00000000E+00
  -0.44000000E+00           0.00000000E+00
  -0.43000000E+00           0.00000000E+00
  -0.42000000E+00           0.00000000E+00
  -0.41000000E+00           0.00000000E+00
  -0.40000000E+00           0.00000000E+00
  -0.39000000E+00           0.00000000E+00
  -0.38000000E+00           0.00000000E+00
  -0.37000000E+00           0.00000000E+00
  -0.36000000E+00           0.00000000E+00
  -0.35000000E+00           0.00000000E+00
  -0.34000000E+00           0.00000000E+00
  -0.33000000E+00           0.00000000E+00
  -0.32000000E+00           0.00000000E+00
  -0.31000000E+00           0.00000000E+00
  -0.30000000E+00           0.00000000E+00
  -0.29000000E+00           0.00000000E+00
  -0.28000000E+00           0.00000000E+00
  -0.27000000E+00           0.00000000E+00
  -0.26000000E+00           0.00000000E+00
  -0.25000000E+00           0.00000000E+00
  -0.24000000E+00           0.00000000E+00
  -0.23000000E+00           0.00000000E+00
  -0.22000000E+00           0.00000000E+00
  -0.21000000E+00           0.00000000E+00
  -0.20000000E+00           0.00000000E+00
  -0.19000000E+00           0.00000000E+00
  -0.18000000E+00           0.00000000E+00
  -0.17000000E+00           0.00000000E+00
  -0.16000000E+00           0.00000000E+00
  -0.15000000E+00           0.00000000E+00
  -0.14000000E+00           0.00000000E+00
  -0.13000000E+00           0.00000000E+00
  -0.12000000E+00           0.00000000E+00
  -0.11000000E+00           0.00000000E+00
  -0.10000000E+00           0.00000000E+00
  -0.90000000E-01           0.00000000E+00
  -0.80000000E-01           0.00000000E+00
  -0.70000000E-01           0.00000000E+00
  -0.60000000E-01           0.00000000E+00
  -0.50000000E-01           0.00000000E+00
  -0.40000000E-01           0.00000000E+00
  -0.30000000E-01           0.00000000E+00
  -0.20000000E-01           0.00000000E+00
  -0.10000000E-01           0.00000000E+00
   0.00000000E+00           0.23437500E-05
   0.10000000E-01           0.62500000E-04
   0.20000000E-01           0.22421875E-03
   0.30000000E-01           0.49570312E-03
   0.40000000E-01           0.84335937E-03
   0.50000000E-01           0.13488281E-02
   0.60000000E-01           0.18992187E-02
   0.70000000E-01           0.25800781E-02
   0.80000000E-01           0.33625000E-02
   0.90000000E-01           0.42216797E-02
   0.10000000E+00           0.51867187E-02
   0.11000000E+00           0.62248047E-02
   0.12000000E+00           0.73738281E-02
   0.13000000E+00           0.85937500E-02
   0.14000000E+00           0.10011133E-01
   0.15000000E+00           0.11340625E-01
   0.16000000E+00           0.12848047E-01
   0.17000000E+00           0.14451172E-01
   0.18000000E+00           0.16242383E-01
   0.19000000E+00           0.17934766E-01
   0.20000000E+00           0.19710937E-01
   0.21000000E+00           0.21567578E-01
   0.22000000E+00           0.23731445E-01
   0.23000000E+00           0.25645508E-01
   0.24000000E+00           0.27687500E-01
   0.25000000E+00           0.29998828E-01
   0.26000000E+00           0.32128516E-01
   0.27000000E+00           0.34629492E-01
   0.28000000E+00           0.37119727E-01
   0.29000000E+00           0.39479492E-01
   0.30000000E+00           0.42259570E-01
   0.31000000E+00           0.44833398E-01
   0.32000000E+00           0.47483984E-01
   0.33000000E+00           0.50142383E-01
   0.34000000E+00           0.52986328E-01
   0.35000000E+00           0.55954492E-01
   0.36000000E+00           0.58929102E-01
   0.37000000E+00           0.61890625E-01
   0.38000000E+00           0.65036914E-01
   0.39000000E+00           0.68008398E-01
   0.40000000E+00           0.71328711E-01
   0.41000000E+00           0.74415625E-01
   0.42000000E+00           0.77617773E-01
   0.43000000E+00           0.81034570E-01
   0.44000000E+00           0.84382031E-01
   0.45000000E+00           0.87849219E-01
   0.46000000E+00           0.91155664E-01
   0.47000000E+00           0.94603320E-01
   0.48000000E+00           0.98466211E-01
   0.49000000E+00           0.10186270E+00
   0.50000000E+00           0.10536660E+00
   0.51000000E+00           0.10899434E+00
   0.52000000E+00           0.11312363E+00
   0.53000000E+00           0.11653770E+00
   0.54000000E+00           0.12048047E+00
   0.55000000E+00           0.12413594E+00
   0.56000000E+00           0.12835078E+00
   0.57000000E+00           0.13180723E+00
   0.58000000E+00           0.13619453E+00
   0.59000000E+00           0.14005781E+00
   0.60000000E+00           0.14396543E+00
   0.61000000E+00           0.14775586E+00
   0.62000000E+00           0.15223887E+00
   0.63000000E+00           0.15607324E+00
   0.64000000E+00           0.15993594E+00
   0.65000000E+00           0.16439219E+00
   0.66000000E+00           0.16839961E+00
   0.67000000E+00           0.17225859E+00
   0.68000000E+00           0.17667461E+00
   0.69000000E+00           0.18108613E+00
   0.70000000E+00           0.18516074E+00
   0.71000000E+00           0.18919414E+00
   0.72000000E+00           0.19374062E+00
   0.73000000E+00           0.19805684E+00
   0.74000000E+00           0.20233516E+00
   0.75000000E+00           0.20668066E+00
   0.76000000E+00           0.21117793E+00
   0.77000000E+00           0.21524160E+00
   0.78000000E+00           0.21969668E+00
   0.79000000E+00           0.22429941E+00
   0.80000000E+00           0.22872031E+00
   0.81000000E+00           0.23312578E+00
   0.82000000E+00           0.23733164E+00
   0.83000000E+00           0.24215215E+00
   0.84000000E+00           0.24608926E+00
   0.85000000E+00           0.25034980E+00
   0.86000000E+00           0.25468203E+00
   0.87000000E+00           0.25930996E+00
   0.88000000E+00           0.26375625E+00
   0.89000000E+00           0.26808418E+00
   0.90000000E+00           0.27209941E+00
   0.91000000E+00           0.27699746E+00
   0.92000000E+00           0.28190195E+00
   0.93000000E+00           0.28566484E+00
   0.94000000E+00           0.28984805E+00
   0.95000000E+00           0.29383086E+00
   0.96000000E+00           0.29845742E+00
   0.97000000E+00           0.30326582E+00
   0.98000000E+00           0.30716797E+00
   0.99000000E+00           0.31187129E+00
   0.10000000E+01           0.31595098E+00
   0.10100000E+01           0.32047383E+00
   0.10200000E+01           0.32462871E+00
   0.10300000E+01           0.32841699E+00
   0.10400000E+01           0.33321562E+00
   0.10500000E+01           0.33678477E+00
   0.10600000E+01           0.34158320E+00
   0.10700000E+01           0.34586191E+00
   0.10800000E+01           0.35050645E+00
   0.10900000E+01           0.35417344E+00
   0.11000000E+01           0.35816367E+00
   0.11100000E+01           0.36287832E+00
   0.11200000E+01           0.36664922E+00
   0.11300000E+01           0.37042070E+00
   0.11400000E+01           0.37476777E+00
   0.11500000E+01           0.37882793E+00
   0.11600000E+01           0.38286641E+00
   0.11700000E+01           0.38677500E+00
   0.11800000E+01           0.39043105E+00
   0.11900000E+01           0.39461133E+00
   0.12000000E+01           0.39839082E+00
   0.12100000E+01           0.40268555E+00
   0.12200000E+01           0.40577656E+00
   0.12300000E+01           0.41048789E+00
   0.12400000E+01           0.41436562E+00
   0.12500000E+01           0.41756582E+00
   0.12600000E+01           0.42100254E+00
   0.12700000E+01           0.42410117E+00
   0.12800000E+01           0.42822363E+00
   0.12900000E+01           0.43194180E+00
   0.13000000E+01           0.43506582E+00
   0.13100000E+01           0.43851562E+00
   0.13200000E+01           0.44207188E+00
   0.13300000E+01           0.44585488E+00
   0.13400000E+01           0.44903359E+00
   0.13500000E+01           0.45231621E+00
   0.13600000E+01           0.45516133E+00
   0.13700000E+01           0.45892031E+00
   0.13800000E+01           0.46220195E+00
   0.13900000E+01           0.46491582E+00
   0.14000000E+01           0.46775918E+00
   0.14100000E+01           0.47118418E+00
   0.14200000E+01           0.47370273E+00
   0.14300000E+01           0.47660527E+00
   0.14400000E+01           0.47897285E+00
   0.14500000E+01           0.48210293E+00
   0.14600000E+01           0.48437070E+00
   0.14700000E+01           0.48734082E+00
   0.14800000E+01           0.49026836E+00
   0.14900000E+01           0.49206582E+00
   0.15000000E+01           0.49504727E+00
   0.15100000E+01           0.49743750E+00
   0.15200000E+01           0.49967109E+00
   0.15300000E+01           0.50157031E+00
   0.15400000E+01           0.50311621E+00
   0.15500000E+01           0.50549512E+00
   0.15600000E+01           0.50803613E+00
   0.15700000E+01           0.51028789E+00
   0.15800000E+01           0.51160215E+00
   0.15900000E+01           0.51356230E+00
   0.16000000E+01           0.51495313E+00
   0.16100000E+01           0.51740078E+00
   0.16200000E+01           0.51871465E+00
   0.16300000E+01           0.52003633E+00
   0.16400000E+01           0.52156211E+00
   0.16500000E+01           0.52254629E+00
   0.16600000E+01           0.52360996E+00
   0.16700000E+01           0.52480645E+00
   0.16800000E+01           0.52595957E+00
   0.16900000E+01           0.52690625E+00
   0.17000000E+01           0.52761074E+00
   0.17100000E+01           0.52771699E+00
   0.17200000E+01           0.52915684E+00
   0.17300000E+01           0.52974961E+00
   0.17400000E+01           0.53018105E+00
   0.17500000E+01           0.53039844E+00
   0.17600000E+01           0.53070762E+00
   0.17700000E+01           0.53100234E+00
   0.17800000E+01           0.53077012E+00
   0.17900000E+01           0.53070898E+00
   0.18000000E+01           0.53043203E+00
   0.18100000E+01           0.53034805E+00
   0.18200000E+01           0.52998223E+00
   0.18300000E+01           0.52952637E+00
   0.18400000E+01           0.52849922E+00
   0.18500000E+01           0.52839316E+00
   0.18600000E+01           0.52706172E+00
   0.18700000E+01           0.52596758E+00
   0.18800000E+01           0.52548770E+00
   0.18900000E+01           0.52403398E+00
   0.19000000E+01           0.52232383E+00
   0.19100000E+01           0.52066348E+00
   0.19200000E+01           0.51924141E+00
   0.19300000E+01           0.51825332E+00
   0.19400000E+01           0.51556973E+00
   0.19500000E+01           0.51321309E+00
   0.19600000E+01           0.51180664E+00
   0.19700000E+01           0.50862617E+00
   0.19800000E+01           0.50664043E+00
   0.19900000E+01           0.50351094E+00
   0.20000000E+01           0.50098027E+00
   0.20100000E+01           0.49744160E+00
   0.20200000E+01           0.49528359E+00
   0.20300000E+01           0.49222520E+00
   0.20400000E+01           0.48940000E+00
   0.20500000E+01           0.48636719E+00
   0.20600000E+01           0.48383691E+00
   0.20700000E+01           0.47992422E+00
   0.20800000E+01           0.47714668E+00
   0.20900000E+01           0.47363887E+00
   0.21000000E+01           0.47141309E+00
   0.21100000E+01           0.46815254E+00
   0.21200000E+01           0.46522949E+00
   0.21300000E+01           0.46191133E+00
   0.21400000E+01           0.45831973E+00
   0.21500000E+01           0.45618828E+00
   0.21600000E+01           0.45244570E+00
   0.21700000E+01           0.44915352E+00
   0.21800000E+01           0.44605117E+00
   0.21900000E+01           0.44362168E+00
   0.22000000E+01           0.43975937E+00
   0.22100000E+01           0.43657187E+00
   0.22200000E+01           0.43317383E+00
   0.22300000E+01           0.43004180E+00
   0.22400000E+01           0.42667324E+00
   0.22500000E+01           0.42446094E+00
   0.22600000E+01           0.42035996E+00
   0.22700000E+01           0.41748477E+00
   0.22800000E+01           0.41356582E+00
   0.22900000E+01           0.41084375E+00
   0.23000000E+01           0.40739551E+00
   0.23100000E+01           0.40360059E+00
   0.23200000E+01           0.40070352E+00
   0.23300000E+01           0.39684746E+00
   0.23400000E+01           0.39425566E+00
   0.23500000E+01           0.39127500E+00
   0.23600000E+01           0.38748789E+00
   0.23700000E+01           0.38429316E+00
   0.23800000E+01           0.38128984E+00
   0.23900000E+01           0.37797148E+00
   0.24000000E+01           0.37416836E+00
   0.24100000E+01           0.37094258E+00
   0.24200000E+01           0.36783203E+00
   0.24300000E+01           0.36439102E+00
   0.24400000E+01           0.36087852E+00
   0.24500000E+01           0.35775645E+00
   0.24600000E+01           0.35417559E+00
   0.24700000E+01           0.35167520E+00
   0.24800000E+01           0.34761211E+00
   0.24900000E+01           0.34439180E+00
   0.25000000E+01           0.34127969E+00
   0.25100000E+01           0.33760937E+00
   0.25200000E+01           0.33463945E+00
   0.25300000E+01           0.33062773E+00
   0.25400000E+01           0.32803496E+00
   0.25500000E+01           0.32452637E+00
   0.25600000E+01           0.32111055E+00
   0.25700000E+01           0.31796230E+00
   0.25800000E+01           0.31507031E+00
   0.25900000E+01           0.31136289E+00
   0.26000000E+01           0.30764746E+00
   0.26100000E+01           0.30499688E+00
   0.26200000E+01           0.30175684E+00
   0.26300000E+01           0.29816680E+00
   0.26400000E+01           0.29498418E+00
   0.26500000E+01           0.29147461E+00
   0.26600000E+01           0.28859648E+00
   0.26700000E+01           0.28526172E+00
   0.26800000E+01           0.28185918E+00
   0.26900000E+01           0.27947090E+00
   0.27000000E+01           0.27535762E+00
   0.27100000E+01           0.27237656E+00
   0.27200000E+01           0.26924434E+00
   0.27300000E+01           0.26609629E+00
   0.27400000E+01           0.26284004E+00
   0.27500000E+01           0.25925156E+00
   0.27600000E+01           0.25605859E+00
   0.27700000E+01           0.25312344E+00
   0.27800000E+01           0.24984258E+00
   0.27900000E+01           0.24647090E+00
   0.28000000E+01           0.24345059E+00
   0.28100000E+01           0.24060664E+00
   0.28200000E+01           0.23735977E+00
   0.28300000E+01           0.23406309E+00
   0.28400000E+01           0.23114805E+00
   0.28500000E+01           0.22828066E+00
   0.28600000E+01           0.22475957E+00
   0.28700000E+01           0.22184824E+00
   0.28800000E+01           0.21907754E+00
   0.28900000E+01           0.21536191E+00
   0.29000000E+01           0.21274922E+00
   0.29100000E+01           0.20979023E+00
   0.29200000E+01           0.20661133E+00
   0.29300000E+01           0.20313848E+00
   0.29400000E+01           0.20048887E+00
   0.29500000E+01           0.19784336E+00
   0.29600000E+01           0.19475059E+00
   0.29700000E+01           0.19186602E+00
   0.29800000E+01           0.18867813E+00
   0.29900000E+01           0.18624980E+00
   0.30000000E+01           0.18295332E+00
   0.30100000E+01           0.17961387E+00
   0.30200000E+01           0.17721992E+00
   0.30300000E+01           0.17430039E+00
   0.30400000E+01           0.17131387E+00
   0.30500000E+01           0.16886484E+00
   0.30600000E+01           0.16563555E+00
   0.30700000E+01           0.16314883E+00
   0.30800000E+01           0.16011523E+00
   0.30900000E+01           0.15724395E+00
   0.31000000E+01           0.15457305E+00
   0.31100000E+01           0.15183418E+00
   0.31200000E+01           0.14882422E+00
   0.31300000E+01           0.14650820E+00
   0.31400000E+01           0.14391719E+00
   0.31500000E+01           0.14099062E+00
   0.31600000E+01           0.13836719E+00
   0.31700000E+01           0.13576270E+00
   0.31800000E+01           0.13301875E+00
   0.31900000E+01           0.13052715E+00
   0.32000000E+01           0.12767930E+00
   0.32100000E+01           0.12538242E+00
   0.32200000E+01           0.12265352E+00
   0.32300000E+01           0.12042695E+00
   0.32400000E+01           0.11739902E+00
   0.32500000E+01           0.11503691E+00
   0.32600000E+01           0.11288789E+00
   0.32700000E+01           0.10990391E+00
   0.32800000E+01           0.10762988E+00
   0.32900000E+01           0.10507988E+00
   0.33000000E+01           0.10274453E+00
   0.33100000E+01           0.10041094E+00
   0.33200000E+01           0.98318359E-01
   0.33300000E+01           0.95569531E-01
   0.33400000E+01           0.93495703E-01
   0.33500000E+01           0.90847070E-01
   0.33600000E+01           0.88481250E-01
   0.33700000E+01           0.86349805E-01
   0.33800000E+01           0.83984961E-01
   0.33900000E+01           0.81933203E-01
   0.34000000E+01           0.79652344E-01
   0.34100000E+01           0.77540820E-01
   0.34200000E+01           0.75106055E-01
   0.34300000E+01           0.73157227E-01
   0.34400000E+01           0.71077539E-01
   0.34500000E+01           0.69046484E-01
   0.34600000E+01           0.66689258E-01
   0.34700000E+01           0.64697266E-01
   0.34800000E+01           0.62391797E-01
   0.34900000E+01           0.60587891E-01
   0.35000000E+01           0.58455664E-01
   0.35100000E+01           0.56467773E-01
   0.35200000E+01           0.54592969E-01
   0.35300000E+01           0.52472461E-01
   0.35400000E+01           0.50686719E-01
   0.35500000E+01           0.48701562E-01
   0.35600000E+01           0.46995117E-01
   0.35700000E+01           0.45050781E-01
   0.35800000E+01           0.43336133E-01
   0.35900000E+01           0.41540039E-01
   0.36000000E+01           0.39863281E-01
   0.36100000E+01           0.38001758E-01
   0.36200000E+01           0.36361133E-01
   0.36300000E+01           0.34809180E-01
   0.36400000E+01           0.33056250E-01
   0.36500000E+01           0.31578516E-01
   0.36600000E+01           0.29921875E-01
   0.36700000E+01           0.28363867E-01
   0.36800000E+01           0.26916211E-01
   0.36900000E+01           0.25434961E-01
   0.37000000E+01           0.23880469E-01
   0.37100000E+01           0.22459570E-01
   0.37200000E+01           0.21187891E-01
   0.37300000E+01           0.19710742E-01
   0.37400000E+01           0.18480859E-01
   0.37500000E+01           0.17102344E-01
   0.37600000E+01           0.16093164E-01
   0.37700000E+01           0.14665625E-01
   0.37800000E+01           0.13615625E-01
   0.37900000E+01           0.12454297E-01
   0.38000000E+01           0.11474609E-01
   0.38100000E+01           0.10427148E-01
   0.38200000E+01           0.93833984E-02
   0.38300000E+01           0.84044922E-02
   0.38400000E+01           0.74982422E-02
   0.38500000E+01           0.65941406E-02
   0.38600000E+01           0.58476562E-02
   0.38700000E+01           0.50917969E-02
   0.38800000E+01           0.43757812E-02
   0.38900000E+01           0.37363281E-02
   0.39000000E+01           0.30511719E-02
   0.39100000E+01           0.25113281E-02
   0.39200000E+01           0.19714844E-02
   0.39300000E+01           0.15507812E-02
   0.39400000E+01           0.11253906E-02
   0.39500000E+01           0.79921875E-03
   0.39600000E+01           0.53808594E-03
   0.39700000E+01           0.29003906E-03
   0.39800000E+01           0.13476562E-03
   0.39900000E+01           0.36523437E-04
   0.40000000E+01           0.15625000E-05
 #T=   152.0000
  -0.40000000E+01           0.00000000E+00
  -0.39900000E+01           0.00000000E+00
  -0.39800000E+01           0.00000000E+00
  -0.39700000E+01           0.00000000E+00
  -0.39600000E+01           0.00000000E+00
  -0.39500000E+01           0.00000000E+00
  -0.39400000E+01           0.00000000E+00
  -0.39300000E+01           0.00000000E+00
  -0.39200000E+01           0.00000000E+00
  -0.39100000E+01           0.00000000E+00
  -0.39000000E+01           0.00000000E+00
  -0.38900000E+01           0.00000000E+00
  -0.38800000E+01           0.00000000E+00
  -0.38700000E+01           0.00000000E+00
  -0.38600000E+01           0.00000000E+00
  -0.38500000E+01           0.00000000E+00
  -0.38400000E+01           0.00000000E+00
  -0.38300000E+01           0.00000000E+00
  -0.38200000E+01           0.00000000E+00
  -0.38100000E+01           0.00000000E+00
  -0.38000000E+01           0.00000000E+00
  -0.37900000E+01           0.00000000E+00
  -0.37800000E+01           0.00000000E+00
  -0.37700000E+01           0.00000000E+00
  -0.37600000E+01           0.00000000E+00
  -0.37500000E+01           0.00000000E+00
  -0.37400000E+01           0.00000000E+00
  -0.37300000E+01           0.00000000E+00
  -0.37200000E+01           0.00000000E+00
  -0.37100000E+01           0.00000000E+00
  -0.37000000E+01           0.00000000E+00
  -0.36900000E+01           0.00000000E+00
  -0.36800000E+01           0.00000000E+00
  -0.36700000E+01           0.00000000E+00
  -0.36600000E+01           0.00000000E+00
  -0.36500000E+01           0.00000000E+00
  -0.36400000E+01           0.00000000E+00
  -0.36300000E+01           0.00000000E+00
  -0.36200000E+01           0.00000000E+00
  -0.36100000E+01           0.00000000E+00
  -0.36000000E+01           0.00000000E+00
  -0.35900000E+01           0.00000000E+00
  -0.35800000E+01           0.00000000E+00
  -0.35700000E+01           0.00000000E+00
  -0.35600000E+01           0.00000000E+00
  -0.35500000E+01           0.00000000E+00
  -0.35400000E+01           0.00000000E+00
  -0.35300000E+01           0.00000000E+00
  -0.35200000E+01           0.00000000E+00
  -0.35100000E+01           0.00000000E+00
  -0.35000000E+01           0.00000000E+00
  -0.34900000E+01           0.00000000E+00
  -0.34800000E+01           0.00000000E+00
  -0.34700000E+01           0.00000000E+00
  -0.34600000E+01           0.00000000E+00
  -0.34500000E+01           0.00000000E+00
  -0.34400000E+01           0.00000000E+00
  -0.34300000E+01           0.00000000E+00
  -0.34200000E+01           0.00000000E+00
  -0.34100000E+01           0.00000000E+00
  -0.34000000E+01           0.00000000E+00
  -0.33900000E+01           0.00000000E+00
  -0.33800000E+01           0.00000000E+00
  -0.33700000E+01           0.00000000E+00
  -0.33600000E+01           0.00000000E+00
  -0.33500000E+01           0.00000000E+00
  -0.33400000E+01           0.00000000E+00
  -0.33300000E+01           0.00000000E+00
  -0.33200000E+01           0.00000000E+00
  -0.33100000E+01           0.00000000E+00
  -0.33000000E+01           0.00000000E+00
  -0.32900000E+01           0.00000000E+00
  -0.32800000E+01           0.00000000E+00
  -0.32700000E+01           0.00000000E+00
  -0.32600000E+01           0.00000000E+00
  -0.32500000E+01           0.00000000E+00
  -0.32400000E+01           0.00000000E+00
  -0.32300000E+01           0.00000000E+00
  -0.32200000E+01           0.00000000E+00
  -0.32100000E+01           0.00000000E+00
  -0.32000000E+01           0.00000000E+00
  -0.31900000E+01           0.00000000E+00
  -0.31800000E+01           0.00000000E+00
  -0.31700000E+01           0.00000000E+00
  -0.31600000E+01           0.00000000E+00
  -0.31500000E+01           0.00000000E+00
  -0.31400000E+01           0.00000000E+00
  -0.31300000E+01           0.00000000E+00
  -0.31200000E+01           0.00000000E+00
  -0.31100000E+01           0.00000000E+00
  -0.31000000E+01           0.00000000E+00
  -0.30900000E+01           0.00000000E+00
  -0.30800000E+01           0.00000000E+00
  -0.30700000E+01           0.00000000E+00
  -0.30600000E+01           0.00000000E+00
  -0.30500000E+01           0.00000000E+00
  -0.30400000E+01           0.00000000E+00
  -0.30300000E+01           0.00000000E+00
  -0.30200000E+01           0.00000000E+00
  -0.30100000E+01           0.00000000E+00
  -0.30000000E+01           0.00000000E+00
  -0.29900000E+01           0.00000000E+00
  -0.29800000E+01           0.00000000E+00
  -0.29700000E+01           0.00000000E+00
  -0.29600000E+01           0.00000000E+00
  -0.29500000E+01           0.00000000E+00
  -0.29400000E+01           0.00000000E+00
  -0.29300000E+01           0.00000000E+00
  -0.29200000E+01           0.00000000E+00
  -0.29100000E+01           0.00000000E+00
  -0.29000000E+01           0.00000000E+00
  -0.28900000E+01           0.00000000E+00
  -0.28800000E+01           0.00000000E+00
  -0.28700000E+01           0.00000000E+00
  -0.28600000E+01           0.00000000E+00
  -0.28500000E+01           0.00000000E+00
  -0.28400000E+01           0.00000000E+00
  -0.28300000E+01           0.00000000E+00
  -0.28200000E+01           0.00000000E+00
  -0.28100000E+01           0.00000000E+00
  -0.28000000E+01           0.00000000E+00
  -0.27900000E+01           0.00000000E+00
  -0.27800000E+01           0.00000000E+00
  -0.27700000E+01           0.00000000E+00
  -0.27600000E+01           0.00000000E+00
  -0.27500000E+01           0.00000000E+00
  -0.27400000E+01           0.00000000E+00
  -0.27300000E+01           0.00000000E+00
  -0.27200000E+01           0.00000000E+00
  -0.27100000E+01           0.00000000E+00
  -0.27000000E+01           0.00000000E+00
  -0.26900000E+01           0.00000000E+00
  -0.26800000E+01           0.00000000E+00
  -0.26700000E+01           0.00000000E+00
  -0.26600000E+01           0.00000000E+00
  -0.26500000E+01           0.00000000E+00
  -0.26400000E+01           0.00000000E+00
  -0.26300000E+01           0.00000000E+00
  -0.26200000E+01           0.00000000E+00
  -0.26100000E+01           0.00000000E+00
  -0.26000000E+01           0.00000000E+00
  -0.25900000E+01           0.00000000E+00
  -0.25800000E+01           0.00000000E+00
  -0.25700000E+01           0.00000000E+00
  -0.25600000E+01           0.00000000E+00
  -0.25500000E+01           0.00000000E+00
  -0.25400000E+01           0.00000000E+00
  -0.25300000E+01           0.00000000E+00
  -0.25200000E+01           0.00000000E+00
  -0.25100000E+01           0.00000000E+00
  -0.25000000E+01           0.00000000E+00
  -0.24900000E+01           0.00000000E+00
  -0.24800000E+01           0.00000000E+00
  -0.24700000E+01           0.00000000E+00
  -0.24600000E+01           0.00000000E+00
  -0.24500000E+01           0.00000000E+00
  -0.24400000E+01           0.00000000E+00
  -0.24300000E+01           0.00000000E+00
  -0.24200000E+01           0.00000000E+00
  -0.24100000E+01           0.00000000E+00
  -0.24000000E+01           0.00000000E+00
  -0.23900000E+01           0.00000000E+00
  -0.23800000E+01           0.00000000E+00
  -0.23700000E+01           0.00000000E+00
  -0.23600000E+01           0.00000000E+00
  -0.23500000E+01           0.00000000E+00
  -0.23400000E+01           0.00000000E+00
  -0.23300000E+01           0.00000000E+00
  -0.23200000E+01           0.00000000E+00
  -0.23100000E+01           0.00000000E+00
  -0.23000000E+01           0.00000000E+00
  -0.22900000E+01           0.00000000E+00
  -0.22800000E+01           0.00000000E+00
  -0.22700000E+01           0.00000000E+00
  -0.22600000E+01           0.00000000E+00
  -0.22500000E+01           0.00000000E+00
  -0.22400000E+01           0.00000000E+00
  -0.22300000E+01           0.00000000E+00
  -0.22200000E+01           0.00000000E+00
  -0.22100000E+01           0.00000000E+00
  -0.22000000E+01           0.00000000E+00
  -0.21900000E+01           0.00000000E+00
  -0.21800000E+01           0.00000000E+00
  -0.21700000E+01           0.00000000E+00
  -0.21600000E+01           0.00000000E+00
  -0.21500000E+01           0.00000000E+00
  -0.21400000E+01           0.00000000E+00
  -0.21300000E+01           0.00000000E+00
  -0.21200000E+01           0.00000000E+00
  -0.21100000E+01           0.00000000E+00
  -0.21000000E+01           0.00000000E+00
  -0.20900000E+01           0.00000000E+00
  -0.20800000E+01           0.00000000E+00
  -0.20700000E+01           0.00000000E+00
  -0.20600000E+01           0.00000000E+00
  -0.20500000E+01           0.00000000E+00
  -0.20400000E+01           0.00000000E+00
  -0.20300000E+01           0.00000000E+00
  -0.20200000E+01           0.00000000E+00
  -0.20100000E+01           0.00000000E+00
  -0.20000000E+01           0.00000000E+00
  -0.19900000E+01           0.00000000E+00
  -0.19800000E+01           0.00000000E+00
  -0.19700000E+01           0.00000000E+00
  -0.19600000E+01           0.00000000E+00
  -0.19500000E+01           0.00000000E+00
  -0.19400000E+01           0.00000000E+00
  -0.19300000E+01           0.00000000E+00
  -0.19200000E+01           0.00000000E+00
  -0.19100000E+01           0.00000000E+00
  -0.19000000E+01           0.00000000E+00
  -0.18900000E+01           0.00000000E+00
  -0.18800000E+01           0.00000000E+00
  -0.18700000E+01           0.00000000E+00
  -0.18600000E+01           0.00000000E+00
  -0.18500000E+01           0.00000000E+00
  -0.18400000E+01           0.00000000E+00
  -0.18300000E+01           0.00000000E+00
  -0.18200000E+01           0.00000000E+00
  -0.18100000E+01           0.00000000E+00
  -0.18000000E+01           0.00000000E+00
  -0.17900000E+01           0.00000000E+00
  -0.17800000E+01           0.00000000E+00
  -0.17700000E+01           0.00000000E+00
  -0.17600000E+01           0.00000000E+00
  -0.17500000E+01           0.00000000E+00
  -0.17400000E+01           0.00000000E+00
  -0.17300000E+01           0.00000000E+00
  -0.17200000E+01           0.00000000E+00
  -0.17100000E+01           0.00000000E+00
  -0.17000000E+01           0.00000000E+00
  -0.16900000E+01           0.00000000E+00
  -0.16800000E+01           0.00000000E+00
  -0.16700000E+01           0.00000000E+00
  -0.16600000E+01           0.00000000E+00
  -0.16500000E+01           0.00000000E+00
  -0.16400000E+01           0.00000000E+00
  -0.16300000E+01           0.00000000E+00
  -0.16200000E+01           0.00000000E+00
  -0.16100000E+01           0.00000000E+00
  -0.16000000E+01           0.00000000E+00
  -0.15900000E+01           0.00000000E+00
  -0.15800000E+01           0.00000000E+00
  -0.15700000E+01           0.00000000E+00
  -0.15600000E+01           0.00000000E+00
  -0.15500000E+01           0.00000000E+00
  -0.15400000E+01           0.00000000E+00
  -0.15300000E+01           0.00000000E+00
  -0.15200000E+01           0.00000000E+00
  -0.15100000E+01           0.00000000E+00
  -0.15000000E+01           0.00000000E+00
  -0.14900000E+01           0.00000000E+00
[...]
  -0.64000000E+00           0.00000000E+00
  -0.63000000E+00           0.00000000E+00
  -0.62000000E+00           0.00000000E+00
  -0.61000000E+00           0.00000000E+00
  -0.60000000E+00           0.00000000E+00
  -0.59000000E+00           0.00000000E+00
  -0.58000000E+00           0.00000000E+00
  -0.57000000E+00           0.00000000E+00
  -0.56000000E+00           0.00000000E+00
  -0.55000000E+00           0.00000000E+00
  -0.54000000E+00           0.00000000E+00
  -0.53000000E+00           0.00000000E+00
  -0.52000000E+00           0.00000000E+00
  -0.51000000E+00           0.00000000E+00
  -0.50000000E+00           0.00000000E+00
  -0.49000000E+00           0.00000000E+00
  -0.48000000E+00           0.00000000E+00
  -0.47000000E+00           0.00000000E+00
  -0.46000000E+00           0.00000000E+00
  -0.45000000E+00           0.00000000E+00
  -0.44000000E+00           0.00000000E+00
  -0.43000000E+00           0.00000000E+00
  -0.42000000E+00           0.00000000E+00
  -0.41000000E+00           0.00000000E+00
  -0.40000000E+00           0.00000000E+00
  -0.39000000E+00           0.00000000E+00
  -0.38000000E+00           0.00000000E+00
  -0.37000000E+00           0.00000000E+00
  -0.36000000E+00           0.00000000E+00
  -0.35000000E+00           0.00000000E+00
  -0.34000000E+00           0.00000000E+00
  -0.33000000E+00           0.00000000E+00
  -0.32000000E+00           0.00000000E+00
  -0.31000000E+00           0.00000000E+00
  -0.30000000E+00           0.00000000E+00
  -0.29000000E+00           0.00000000E+00
  -0.28000000E+00           0.00000000E+00
  -0.27000000E+00           0.00000000E+00
  -0.26000000E+00           0.00000000E+00
  -0.25000000E+00           0.00000000E+00
  -0.24000000E+00           0.00000000E+00
  -0.23000000E+00           0.00000000E+00
  -0.22000000E+00           0.00000000E+00
  -0.21000000E+00           0.00000000E+00
  -0.20000000E+00           0.00000000E+00
  -0.19000000E+00           0.00000000E+00
  -0.18000000E+00           0.00000000E+00
  -0.17000000E+00           0.00000000E+00
  -0.16000000E+00           0.00000000E+00
  -0.15000000E+00           0.00000000E+00
  -0.14000000E+00           0.00000000E+00
  -0.13000000E+00           0.00000000E+00
  -0.12000000E+00           0.00000000E+00
  -0.11000000E+00           0.00000000E+00
  -0.10000000E+00           0.00000000E+00
  -0.90000000E-01           0.00000000E+00
  -0.80000000E-01           0.00000000E+00
  -0.70000000E-01           0.00000000E+00
  -0.60000000E-01           0.00000000E+00
  -0.50000000E-01           0.00000000E+00
  -0.40000000E-01           0.00000000E+00
  -0.30000000E-01           0.00000000E+00
  -0.20000000E-01           0.00000000E+00
  -0.10000000E-01           0.00000000E+00
   0.00000000E+00           0.15625000E-05
   0.10000000E-01           0.50976562E-04
   0.20000000E-01           0.19628906E-03
   0.30000000E-01           0.45664062E-03
   0.40000000E-01           0.80546875E-03
   0.50000000E-01           0.12412109E-02
   0.60000000E-01           0.17414062E-02
   0.70000000E-01           0.23816406E-02
   0.80000000E-01           0.30873047E-02
   0.90000000E-01           0.39093750E-02
   0.10000000E+00           0.48087891E-02
   0.11000000E+00           0.57494141E-02
   0.12000000E+00           0.67732422E-02
   0.13000000E+00           0.80595703E-02
   0.14000000E+00           0.92205078E-02
   0.15000000E+00           0.10563672E-01
   0.16000000E+00           0.11993164E-01
   0.17000000E+00           0.13318359E-01
   0.18000000E+00           0.14992578E-01
   0.19000000E+00           0.16605664E-01
   0.20000000E+00           0.18283594E-01
   0.21000000E+00           0.20105469E-01
   0.22000000E+00           0.21962500E-01
   0.23000000E+00           0.23985352E-01
   0.24000000E+00           0.26035156E-01
   0.25000000E+00           0.27982227E-01
   0.26000000E+00           0.30291992E-01
   0.27000000E+00           0.32548828E-01
   0.28000000E+00           0.34837500E-01
   0.29000000E+00           0.37287109E-01
   0.30000000E+00           0.39658398E-01
   0.31000000E+00           0.42106836E-01
   0.32000000E+00           0.45009375E-01
   0.33000000E+00           0.47412109E-01
   0.34000000E+00           0.49987695E-01
   0.35000000E+00           0.52809766E-01
   0.36000000E+00           0.55596875E-01
   0.37000000E+00           0.58499414E-01
   0.38000000E+00           0.61341406E-01
   0.39000000E+00           0.64372852E-01
   0.40000000E+00           0.67427930E-01
   0.41000000E+00           0.70693555E-01
   0.42000000E+00           0.73750195E-01
   0.43000000E+00           0.76934766E-01
   0.44000000E+00           0.80184961E-01
   0.45000000E+00           0.83445703E-01
   0.46000000E+00           0.87000586E-01
   0.47000000E+00           0.90376172E-01
   0.48000000E+00           0.93745703E-01
   0.49000000E+00           0.97018164E-01
   0.50000000E+00           0.10083301E+00
   0.51000000E+00           0.10434551E+00
   0.52000000E+00           0.10811973E+00
   0.53000000E+00           0.11174258E+00
   0.54000000E+00           0.11538516E+00
   0.55000000E+00           0.11943672E+00
   0.56000000E+00           0.12295332E+00
   0.57000000E+00           0.12693145E+00
   0.58000000E+00           0.13077852E+00
   0.59000000E+00           0.13482598E+00
   0.60000000E+00           0.13852031E+00
   0.61000000E+00           0.14259141E+00
   0.62000000E+00           0.14677930E+00
   0.63000000E+00           0.15071797E+00
   0.64000000E+00           0.15430977E+00
   0.65000000E+00           0.15881523E+00
   0.66000000E+00           0.16284434E+00
   0.67000000E+00           0.16695820E+00
   0.68000000E+00           0.17104805E+00
   0.69000000E+00           0.17535742E+00
   0.70000000E+00           0.17931484E+00
   0.71000000E+00           0.18404629E+00
   0.72000000E+00           0.18805586E+00
   0.73000000E+00           0.19233730E+00
   0.74000000E+00           0.19665352E+00
   0.75000000E+00           0.20106035E+00
   0.76000000E+00           0.20516758E+00
   0.77000000E+00           0.20952754E+00
   0.78000000E+00           0.21367441E+00
   0.79000000E+00           0.21806641E+00
   0.80000000E+00           0.22261992E+00
   0.81000000E+00           0.22708027E+00
   0.82000000E+00           0.23116953E+00
   0.83000000E+00           0.23562168E+00
   0.84000000E+00           0.24084180E+00
   0.85000000E+00           0.24462910E+00
   0.86000000E+00           0.24900371E+00
   0.87000000E+00           0.25356992E+00
   0.88000000E+00           0.25749805E+00
   0.89000000E+00           0.26205547E+00
   0.90000000E+00           0.26667344E+00
   0.91000000E+00           0.27119805E+00
   0.92000000E+00           0.27546445E+00
   0.93000000E+00           0.27961523E+00
   0.94000000E+00           0.28401133E+00
   0.95000000E+00           0.28864238E+00
   0.96000000E+00           0.29311836E+00
   0.97000000E+00           0.29731426E+00
   0.98000000E+00           0.30171953E+00
   0.99000000E+00           0.30589727E+00
   0.10000000E+01           0.31044199E+00
   0.10100000E+01           0.31494824E+00
   0.10200000E+01           0.31914395E+00
   0.10300000E+01           0.32398535E+00
   0.10400000E+01           0.32767344E+00
   0.10500000E+01           0.33217969E+00
   0.10600000E+01           0.33695039E+00
   0.10700000E+01           0.34078633E+00
   0.10800000E+01           0.34513652E+00
   0.10900000E+01           0.34932188E+00
   0.11000000E+01           0.35375547E+00
   0.11100000E+01           0.35785781E+00
   0.11200000E+01           0.36155684E+00
   0.11300000E+01           0.36549512E+00
   0.11400000E+01           0.36987012E+00
   0.11500000E+01           0.37404727E+00
   0.11600000E+01           0.37830820E+00
   0.11700000E+01           0.38226289E+00
   0.11800000E+01           0.38608945E+00
   0.11900000E+01           0.39020898E+00
   0.12000000E+01           0.39362031E+00
   0.12100000E+01           0.39755352E+00
   0.12200000E+01           0.40180547E+00
   0.12300000E+01           0.40528223E+00
   0.12400000E+01           0.40888652E+00
   0.12500000E+01           0.41305449E+00
   0.12600000E+01           0.41689043E+00
   0.12700000E+01           0.42000957E+00
   0.12800000E+01           0.42389805E+00
   0.12900000E+01           0.42789980E+00
   0.13000000E+01           0.43150820E+00
   0.13100000E+01           0.43441113E+00
   0.13200000E+01           0.43799180E+00
   0.13300000E+01           0.44196504E+00
   0.13400000E+01           0.44464805E+00
   0.13500000E+01           0.44837383E+00
   0.13600000E+01           0.45158496E+00
   0.13700000E+01           0.45442187E+00
   0.13800000E+01           0.45779941E+00
   0.13900000E+01           0.46084805E+00
   0.14000000E+01           0.46349277E+00
   0.14100000E+01           0.46685098E+00
   0.14200000E+01           0.46977422E+00
   0.14300000E+01           0.47240820E+00
   0.14400000E+01           0.47522695E+00
   0.14500000E+01           0.47812500E+00
   0.14600000E+01           0.48059102E+00
   0.14700000E+01           0.48315430E+00
   0.14800000E+01           0.48505508E+00
   0.14900000E+01           0.48823184E+00
   0.15000000E+01           0.49127461E+00
   0.15100000E+01           0.49300859E+00
   0.15200000E+01           0.49480508E+00
   0.15300000E+01           0.49715645E+00
   0.15400000E+01           0.49956465E+00
   0.15500000E+01           0.50167559E+00
   0.15600000E+01           0.50349473E+00
   0.15700000E+01           0.50523281E+00
   0.15800000E+01           0.50718555E+00
   0.15900000E+01           0.50829102E+00
   0.16000000E+01           0.51017187E+00
   0.16100000E+01           0.51214355E+00
   0.16200000E+01           0.51377363E+00
   0.16300000E+01           0.51515801E+00
   0.16400000E+01           0.51623281E+00
   0.16500000E+01           0.51762559E+00
   0.16600000E+01           0.51881797E+00
   0.16700000E+01           0.52002812E+00
   0.16800000E+01           0.52141328E+00
   0.16900000E+01           0.52184551E+00
   0.17000000E+01           0.52295059E+00
   0.17100000E+01           0.52399941E+00
   0.17200000E+01           0.52399023E+00
   0.17300000E+01           0.52439180E+00
   0.17400000E+01           0.52530156E+00
   0.17500000E+01           0.52560684E+00
   0.17600000E+01           0.52620918E+00
   0.17700000E+01           0.52625723E+00
   0.17800000E+01           0.52562891E+00
   0.17900000E+01           0.52561445E+00
   0.18000000E+01           0.52544727E+00
   0.18100000E+01           0.52529844E+00
   0.18200000E+01           0.52468145E+00
   0.18300000E+01           0.52447637E+00
   0.18400000E+01           0.52407910E+00
   0.18500000E+01           0.52294473E+00
   0.18600000E+01           0.52278301E+00
   0.18700000E+01           0.52172988E+00
   0.18800000E+01           0.52060078E+00
   0.18900000E+01           0.51923633E+00
   0.19000000E+01           0.51852305E+00
   0.19100000E+01           0.51771133E+00
   0.19200000E+01           0.51569668E+00
   0.19300000E+01           0.51394902E+00
   0.19400000E+01           0.51220293E+00
   0.19500000E+01           0.51047578E+00
   0.19600000E+01           0.50881797E+00
   0.19700000E+01           0.50651113E+00
   0.19800000E+01           0.50430039E+00
   0.19900000E+01           0.50185527E+00
   0.20000000E+01           0.50026250E+00
   0.20100000E+01           0.49762656E+00
   0.20200000E+01           0.49483633E+00
   0.20300000E+01           0.49257520E+00
   0.20400000E+01           0.49027852E+00
   0.20500000E+01           0.48727715E+00
   0.20600000E+01           0.48419297E+00
   0.20700000E+01           0.48273613E+00
   0.20800000E+01           0.47922324E+00
   0.20900000E+01           0.47692559E+00
   0.21000000E+01           0.47390312E+00
   0.21100000E+01           0.47185898E+00
   0.21200000E+01           0.46842715E+00
   0.21300000E+01           0.46556367E+00
   0.21400000E+01           0.46361836E+00
   0.21500000E+01           0.46087227E+00
   0.21600000E+01           0.45813008E+00
   0.21700000E+01           0.45478730E+00
   0.21800000E+01           0.45201836E+00
   0.21900000E+01           0.44883164E+00
   0.22000000E+01           0.44608281E+00
   0.22100000E+01           0.44332246E+00
   0.22200000E+01           0.43988340E+00
   0.22300000E+01           0.43744707E+00
   0.22400000E+01           0.43435762E+00
   0.22500000E+01           0.43186211E+00
   0.22600000E+01           0.42895664E+00
   0.22700000E+01           0.42583496E+00
   0.22800000E+01           0.42215273E+00
   0.22900000E+01           0.41984512E+00
   0.23000000E+01           0.41666738E+00
   0.23100000E+01           0.41296738E+00
   0.23200000E+01           0.41094902E+00
   0.23300000E+01           0.40724121E+00
   0.23400000E+01           0.40395273E+00
   0.23500000E+01           0.40127070E+00
   0.23600000E+01           0.39790176E+00
   0.23700000E+01           0.39486758E+00
   0.23800000E+01           0.39189473E+00
   0.23900000E+01           0.38834453E+00
   0.24000000E+01           0.38558164E+00
   0.24100000E+01           0.38186484E+00
   0.24200000E+01           0.37925020E+00
   0.24300000E+01           0.37571445E+00
   0.24400000E+01           0.37275410E+00
   0.24500000E+01           0.36909902E+00
   0.24600000E+01           0.36635859E+00
   0.24700000E+01           0.36251855E+00
   0.24800000E+01           0.35928164E+00
   0.24900000E+01           0.35648301E+00
   0.25000000E+01           0.35329434E+00
   0.25100000E+01           0.34984961E+00
   0.25200000E+01           0.34647832E+00
   0.25300000E+01           0.34365508E+00
   0.25400000E+01           0.33971035E+00
   0.25500000E+01           0.33691992E+00
   0.25600000E+01           0.33359492E+00
   0.25700000E+01           0.33009316E+00
   0.25800000E+01           0.32690723E+00
   0.25900000E+01           0.32342715E+00
   0.26000000E+01           0.32039297E+00
   0.26100000E+01           0.31690625E+00
   0.26200000E+01           0.31375508E+00
   0.26300000E+01           0.30959199E+00
   0.26400000E+01           0.30702676E+00
   0.26500000E+01           0.30366836E+00
   0.26600000E+01           0.30054375E+00
   0.26700000E+01           0.29659395E+00
   0.26800000E+01           0.29375566E+00
   0.26900000E+01           0.29020703E+00
   0.27000000E+01           0.28699727E+00
   0.27100000E+01           0.28376953E+00
   0.27200000E+01           0.28065059E+00
   0.27300000E+01           0.27718789E+00
   0.27400000E+01           0.27365879E+00
   0.27500000E+01           0.27087363E+00
   0.27600000E+01           0.26759141E+00
   0.27700000E+01           0.26386094E+00
   0.27800000E+01           0.26066016E+00
   0.27900000E+01           0.25711563E+00
   0.28000000E+01           0.25403340E+00
   0.28100000E+01           0.25095137E+00
   0.28200000E+01           0.24732148E+00
   0.28300000E+01           0.24444844E+00
   0.28400000E+01           0.24124023E+00
   0.28500000E+01           0.23751289E+00
   0.28600000E+01           0.23399609E+00
   0.28700000E+01           0.23091777E+00
   0.28800000E+01           0.22757207E+00
   0.28900000E+01           0.22425215E+00
   0.29000000E+01           0.22109902E+00
   0.29100000E+01           0.21807949E+00
   0.29200000E+01           0.21472988E+00
   0.29300000E+01           0.21181992E+00
   0.29400000E+01           0.20835762E+00
   0.29500000E+01           0.20563652E+00
   0.29600000E+01           0.20200371E+00
   0.29700000E+01           0.19862656E+00
   0.29800000E+01           0.19545703E+00
   0.29900000E+01           0.19239824E+00
   0.30000000E+01           0.18936348E+00
   0.30100000E+01           0.18631777E+00
   0.30200000E+01           0.18265137E+00
   0.30300000E+01           0.18001074E+00
   0.30400000E+01           0.17659941E+00
   0.30500000E+01           0.17380840E+00
   0.30600000E+01           0.17091562E+00
   0.30700000E+01           0.16714941E+00
   0.30800000E+01           0.16433086E+00
   0.30900000E+01           0.16170840E+00
   0.31000000E+01           0.15840449E+00
   0.31100000E+01           0.15575254E+00
   0.31200000E+01           0.15269160E+00
   0.31300000E+01           0.14984375E+00
   0.31400000E+01           0.14682539E+00
   0.31500000E+01           0.14376465E+00
   0.31600000E+01           0.14114082E+00
   0.31700000E+01           0.13824902E+00
   0.31800000E+01           0.13487422E+00
   0.31900000E+01           0.13244043E+00
   0.32000000E+01           0.12942539E+00
   0.32100000E+01           0.12684043E+00
   0.32200000E+01           0.12404688E+00
   0.32300000E+01           0.12122129E+00
   0.32400000E+01           0.11825781E+00
   0.32500000E+01           0.11547148E+00
   0.32600000E+01           0.11317051E+00
   0.32700000E+01           0.11057988E+00
   0.32800000E+01           0.10769414E+00
   0.32900000E+01           0.10509883E+00
   0.33000000E+01           0.10239062E+00
   0.33100000E+01           0.99745703E-01
   0.33200000E+01           0.97337891E-01
   0.33300000E+01           0.94772852E-01
   0.33400000E+01           0.92347070E-01
   0.33500000E+01           0.89596484E-01
   0.33600000E+01           0.87184961E-01
   0.33700000E+01           0.84616602E-01
   0.33800000E+01           0.82383398E-01
   0.33900000E+01           0.79902539E-01
   0.34000000E+01           0.77510156E-01
   0.34100000E+01           0.75249805E-01
   0.34200000E+01           0.73111523E-01
   0.34300000E+01           0.70492383E-01
   0.34400000E+01           0.68600781E-01
   0.34500000E+01           0.66143359E-01
   0.34600000E+01           0.63947852E-01
   0.34700000E+01           0.61855859E-01
   0.34800000E+01           0.59616992E-01
   0.34900000E+01           0.57703320E-01
   0.35000000E+01           0.55406836E-01
   0.35100000E+01           0.53411914E-01
   0.35200000E+01           0.51662891E-01
   0.35300000E+01           0.49558398E-01
   0.35400000E+01           0.47426367E-01
   0.35500000E+01           0.45504102E-01
   0.35600000E+01           0.43892578E-01
   0.35700000E+01           0.41777930E-01
   0.35800000E+01           0.40107422E-01
   0.35900000E+01           0.38445117E-01
   0.36000000E+01           0.36518945E-01
   0.36100000E+01           0.34980078E-01
   0.36200000E+01           0.33196875E-01
   0.36300000E+01           0.31507617E-01
   0.36400000E+01           0.30067969E-01
   0.36500000E+01           0.28377344E-01
   0.36600000E+01           0.26877734E-01
   0.36700000E+01           0.25377930E-01
   0.36800000E+01           0.24003906E-01
   0.36900000E+01           0.22707422E-01
   0.37000000E+01           0.21198828E-01
   0.37100000E+01           0.19821289E-01
   0.37200000E+01           0.18557031E-01
   0.37300000E+01           0.17314258E-01
   0.37400000E+01           0.16107031E-01
   0.37500000E+01           0.14901562E-01
   0.37600000E+01           0.13764062E-01
   0.37700000E+01           0.12771094E-01
   0.37800000E+01           0.11684766E-01
   0.37900000E+01           0.10597852E-01
   0.38000000E+01           0.96195312E-02
   0.38100000E+01           0.87964844E-02
   0.38200000E+01           0.78748047E-02
   0.38300000E+01           0.70197266E-02
   0.38400000E+01           0.62343750E-02
   0.38500000E+01           0.55546875E-02
   0.38600000E+01           0.48062500E-02
   0.38700000E+01           0.42083984E-02
   0.38800000E+01           0.35708984E-02
   0.38900000E+01           0.30126953E-02
   0.39000000E+01           0.24648438E-02
   0.39100000E+01           0.20449219E-02
   0.39200000E+01           0.15921875E-02
   0.39300000E+01           0.12197266E-02
   0.39400000E+01           0.91328125E-03
   0.39500000E+01           0.61152344E-03
   0.39600000E+01           0.41171875E-03
   0.39700000E+01           0.23632812E-03
   0.39800000E+01           0.10058594E-03
   0.39900000E+01           0.30468750E-04
   0.40000000E+01           0.11718750E-05
