 #written on 11Aug2024 at 12:16:52 
 #----------------------------------------------- MONTECARLO ---------------------------------------------------#
 # Temp      Magnetization     Energy_ave          C_M              Sus              U_E              U_M       #
 #--------------------------------------------------------------------------------------------------------------#
 150.0000   0.13195683E-01  -0.26454904E+03   0.15027525E+01   0.44065668E-03   0.66635251E+00   0.43144953E+00
 151.0000   0.13267472E-01  -0.26303911E+03   0.15044196E+01   0.44079479E-03   0.66634427E+00   0.43249466E+00
 152.0000   0.13327102E-01  -0.26152818E+03   0.15164999E+01   0.44215973E-03   0.66633357E+00   0.43210568E+00
 153.0000   0.13391085E-01  -0.26001132E+03   0.15204318E+01   0.44265170E-03   0.66632436E+00   0.43280039E+00
 154.0000   0.13462442E-01  -0.25847594E+03   0.15325691E+01   0.44481961E-03   0.66631291E+00   0.43283110E+00
 155.0000   0.13514181E-01  -0.25692988E+03   0.15461049E+01   0.44525747E-03   0.66630078E+00   0.43283488E+00
 156.0000   0.13589337E-01  -0.25539538E+03   0.15514934E+01   0.44515916E-03   0.66629032E+00   0.43460879E+00
 157.0000   0.13669377E-01  -0.25384087E+03   0.15632858E+01   0.44745770E-03   0.66627786E+00   0.43453647E+00
 158.0000   0.13723404E-01  -0.25225232E+03   0.15757556E+01   0.44847622E-03   0.66626477E+00   0.43402684E+00
 159.0000   0.13797901E-01  -0.25068393E+03   0.15885248E+01   0.44856471E-03   0.66625118E+00   0.43555270E+00
 160.0000   0.13865043E-01  -0.24906234E+03   0.15974683E+01   0.45139941E-03   0.66623808E+00   0.43458246E+00
 161.0000   0.13934956E-01  -0.24748748E+03   0.16101590E+01   0.45126141E-03   0.66622367E+00   0.43582528E+00
 162.0000   0.13999614E-01  -0.24586400E+03   0.16151993E+01   0.45378634E-03   0.66621083E+00   0.43523047E+00
 163.0000   0.14068133E-01  -0.24424043E+03   0.16311207E+01   0.45501924E-03   0.66619443E+00   0.43516688E+00
 164.0000   0.14131756E-01  -0.24261531E+03   0.16419865E+01   0.45615181E-03   0.66617898E+00   0.43572171E+00
 165.0000   0.14198018E-01  -0.24094306E+03   0.16584891E+01   0.45695780E-03   0.66616113E+00   0.43607888E+00
 166.0000   0.14273923E-01  -0.23927154E+03   0.16751253E+01   0.45813840E-03   0.66614262E+00   0.43687678E+00
 167.0000   0.14344968E-01  -0.23761359E+03   0.16801824E+01   0.45846957E-03   0.66612731E+00   0.43790771E+00
 168.0000   0.14408222E-01  -0.23592279E+03   0.16987611E+01   0.46107903E-03   0.66610688E+00   0.43698391E+00
 169.0000   0.14483779E-01  -0.23421367E+03   0.17088485E+01   0.46232431E-03   0.66608844E+00   0.43758091E+00
 170.0000   0.14556553E-01  -0.23249480E+03   0.17281986E+01   0.46377534E-03   0.66606626E+00   0.43768603E+00
 171.0000   0.14631805E-01  -0.23077944E+03   0.17345070E+01   0.46451348E-03   0.66604786E+00   0.43873806E+00
 172.0000   0.14693167E-01  -0.22904100E+03   0.17469120E+01   0.46591359E-03   0.66602659E+00   0.43850600E+00
 173.0000   0.14769038E-01  -0.22728129E+03   0.17623630E+01   0.46766437E-03   0.66600331E+00   0.43906115E+00
 174.0000   0.14846717E-01  -0.22550945E+03   0.17745306E+01   0.46904778E-03   0.66598024E+00   0.43948977E+00
 175.0000   0.14909432E-01  -0.22373217E+03   0.17930000E+01   0.47069501E-03   0.66595396E+00   0.43898787E+00
 176.0000   0.14982270E-01  -0.22192199E+03   0.18080687E+01   0.47291809E-03   0.66592791E+00   0.43901882E+00
 177.0000   0.15043027E-01  -0.22011451E+03   0.18225593E+01   0.47237449E-03   0.66590116E+00   0.43979022E+00
 178.0000   0.15126820E-01  -0.21829710E+03   0.18363623E+01   0.47526829E-03   0.66587362E+00   0.43977757E+00
 179.0000   0.15196998E-01  -0.21644532E+03   0.18511621E+01   0.47716248E-03   0.66584432E+00   0.44012031E+00
 180.0000   0.15291358E-01  -0.21457037E+03   0.18668632E+01   0.47960759E-03   0.66581336E+00   0.44033292E+00
 181.0000   0.15345359E-01  -0.21271075E+03   0.18822894E+01   0.48012056E-03   0.66578151E+00   0.44025802E+00
 182.0000   0.15436389E-01  -0.21080471E+03   0.19082021E+01   0.48416705E-03   0.66574296E+00   0.44033527E+00
 183.0000   0.15505125E-01  -0.20890274E+03   0.19158408E+01   0.48489577E-03   0.66571196E+00   0.44049196E+00
 184.0000   0.15582083E-01  -0.20697624E+03   0.19382487E+01   0.48653956E-03   0.66567207E+00   0.44077480E+00
 185.0000   0.15646553E-01  -0.20500887E+03   0.19574501E+01   0.48864347E-03   0.66563157E+00   0.44077000E+00
 186.0000   0.15727500E-01  -0.20307945E+03   0.19669257E+01   0.48965810E-03   0.66559548E+00   0.44163795E+00
 187.0000   0.15816711E-01  -0.20108854E+03   0.19894245E+01   0.49194486E-03   0.66554989E+00   0.44183795E+00
 188.0000   0.15901274E-01  -0.19906186E+03   0.20057413E+01   0.49530462E-03   0.66550550E+00   0.44146427E+00
 189.0000   0.15970571E-01  -0.19709781E+03   0.20273185E+01   0.49710235E-03   0.66545697E+00   0.44148226E+00
 190.0000   0.16043846E-01  -0.19502832E+03   0.20421651E+01   0.49871061E-03   0.66540895E+00   0.44137053E+00
 191.0000   0.16121560E-01  -0.19297634E+03   0.20703190E+01   0.49989705E-03   0.66535069E+00   0.44242526E+00
 192.0000   0.16231309E-01  -0.19090987E+03   0.20836850E+01   0.50391391E-03   0.66529920E+00   0.44221791E+00
 193.0000   0.16291122E-01  -0.18880988E+03   0.21023282E+01   0.50480502E-03   0.66524162E+00   0.44205440E+00
 194.0000   0.16358672E-01  -0.18669110E+03   0.21279870E+01   0.50680259E-03   0.66517598E+00   0.44197932E+00
 195.0000   0.16444085E-01  -0.18459371E+03   0.21381864E+01   0.50966885E-03   0.66511908E+00   0.44211108E+00
 196.0000   0.16530849E-01  -0.18241517E+03   0.21557834E+01   0.51180944E-03   0.66505220E+00   0.44226734E+00
 197.0000   0.16610568E-01  -0.18025296E+03   0.21761500E+01   0.51338679E-03   0.66498097E+00   0.44251158E+00
 198.0000   0.16694510E-01  -0.17808844E+03   0.21833939E+01   0.51607314E-03   0.66491631E+00   0.44311202E+00
 199.0000   0.16771565E-01  -0.17586767E+03   0.22019205E+01   0.51856274E-03   0.66483783E+00   0.44240030E+00
 200.0000   0.16859658E-01  -0.17370860E+03   0.22162465E+01   0.52053183E-03   0.66476134E+00   0.44323237E+00
 201.0000   0.16958839E-01  -0.17145287E+03   0.22173017E+01   0.52368408E-03   0.66468967E+00   0.44307366E+00
 202.0000   0.17026190E-01  -0.16924343E+03   0.22141397E+01   0.52640293E-03   0.66462032E+00   0.44240877E+00
 203.0000   0.17110997E-01  -0.16703236E+03   0.22130706E+01   0.52691917E-03   0.66454623E+00   0.44382877E+00
 204.0000   0.17189472E-01  -0.16481676E+03   0.22096754E+01   0.53165080E-03   0.66446969E+00   0.44219610E+00
 205.0000   0.17268403E-01  -0.16260913E+03   0.21964458E+01   0.53264002E-03   0.66440082E+00   0.44326884E+00
 206.0000   0.17358195E-01  -0.16039135E+03   0.21912373E+01   0.53326174E-03   0.66432032E+00   0.44454321E+00
 207.0000   0.17452054E-01  -0.15821474E+03   0.21595742E+01   0.53882124E-03   0.66426570E+00   0.44286614E+00
 208.0000   0.17523119E-01  -0.15606918E+03   0.21222212E+01   0.54055129E-03   0.66421727E+00   0.44331856E+00
 209.0000   0.17592277E-01  -0.15395477E+03   0.20878987E+01   0.54265805E-03   0.66416559E+00   0.44277684E+00
 210.0000   0.17674851E-01  -0.15188852E+03   0.20502675E+01   0.54419345E-03   0.66411762E+00   0.44376809E+00
 211.0000   0.17743477E-01  -0.14989082E+03   0.20057012E+01   0.54424714E-03   0.66408016E+00   0.44445701E+00
 212.0000   0.17804488E-01  -0.14789445E+03   0.19518931E+01   0.54633724E-03   0.66405565E+00   0.44376650E+00
 213.0000   0.17895937E-01  -0.14595482E+03   0.18865745E+01   0.54960502E-03   0.66404913E+00   0.44340237E+00
 214.0000   0.17958401E-01  -0.14411955E+03   0.18239551E+01   0.55065735E-03   0.66404622E+00   0.44391657E+00
 215.0000   0.18034641E-01  -0.14232768E+03   0.17693494E+01   0.55294346E-03   0.66403443E+00   0.44383605E+00
 216.0000   0.18082128E-01  -0.14060236E+03   0.17132913E+01   0.55309596E-03   0.66402938E+00   0.44397533E+00
 217.0000   0.18142326E-01  -0.13893095E+03   0.16343907E+01   0.55425024E-03   0.66406558E+00   0.44384029E+00
 218.0000   0.18207017E-01  -0.13733261E+03   0.15713597E+01   0.55529753E-03   0.66408333E+00   0.44418946E+00
 219.0000   0.18262418E-01  -0.13578285E+03   0.15106892E+01   0.55621092E-03   0.66410177E+00   0.44401421E+00
 220.0000   0.18324561E-01  -0.13431837E+03   0.14515306E+01   0.55745498E-03   0.66412444E+00   0.44381271E+00
 221.0000   0.18372061E-01  -0.13287736E+03   0.13962807E+01   0.55782943E-03   0.66414465E+00   0.44370624E+00
 222.0000   0.18405216E-01  -0.13151946E+03   0.13376072E+01   0.55835363E-03   0.66417878E+00   0.44376930E+00
 223.0000   0.18480716E-01  -0.13019220E+03   0.12892450E+01   0.55979952E-03   0.66419697E+00   0.44380764E+00
 224.0000   0.18525982E-01  -0.12894665E+03   0.12405566E+01   0.55850972E-03   0.66422233E+00   0.44458901E+00
 225.0000   0.18574785E-01  -0.12772274E+03   0.11867664E+01   0.56075899E-03   0.66426241E+00   0.44347471E+00
 226.0000   0.18599239E-01  -0.12655494E+03   0.11435003E+01   0.55905888E-03   0.66428609E+00   0.44429215E+00
 227.0000   0.18655736E-01  -0.12542660E+03   0.11050073E+01   0.55976057E-03   0.66430365E+00   0.44402229E+00
 228.0000   0.18701434E-01  -0.12433741E+03   0.10667261E+01   0.56033614E-03   0.66432492E+00   0.44416644E+00
 229.0000   0.18732129E-01  -0.12329806E+03   0.10299787E+01   0.55854247E-03   0.66434751E+00   0.44427267E+00
 230.0000   0.18778463E-01  -0.12227706E+03   0.99681967E+00   0.56065301E-03   0.66436513E+00   0.44391772E+00
 231.0000   0.18820718E-01  -0.12131386E+03   0.96527457E+00   0.55894138E-03   0.66438227E+00   0.44439176E+00
 232.0000   0.18846818E-01  -0.12034822E+03   0.93455854E+00   0.55952230E-03   0.66440027E+00   0.44403574E+00
 233.0000   0.18883770E-01  -0.11943878E+03   0.90614888E+00   0.55742473E-03   0.66441660E+00   0.44491134E+00
 234.0000   0.18925987E-01  -0.11854649E+03   0.88240596E+00   0.55955897E-03   0.66442339E+00   0.44404269E+00
 235.0000   0.18941577E-01  -0.11768607E+03   0.85585004E+00   0.55622250E-03   0.66444118E+00   0.44483706E+00
 236.0000   0.18979369E-01  -0.11682697E+03   0.83364358E+00   0.55710331E-03   0.66444773E+00   0.44425803E+00
 237.0000   0.19009787E-01  -0.11600953E+03   0.81274167E+00   0.55761804E-03   0.66445506E+00   0.44433367E+00
 238.0000   0.19043246E-01  -0.11520939E+03   0.79004855E+00   0.55573388E-03   0.66446838E+00   0.44461081E+00
 239.0000   0.19078300E-01  -0.11443560E+03   0.77131116E+00   0.55491727E-03   0.66447301E+00   0.44483024E+00
 240.0000   0.19106315E-01  -0.11366764E+03   0.75206768E+00   0.55368562E-03   0.66448083E+00   0.44494233E+00
 241.0000   0.19114631E-01  -0.11291904E+03   0.73471861E+00   0.55342276E-03   0.66448504E+00   0.44442178E+00
 242.0000   0.19152814E-01  -0.11219271E+03   0.71908621E+00   0.55277797E-03   0.66448634E+00   0.44418649E+00
 243.0000   0.19171882E-01  -0.11148607E+03   0.70119181E+00   0.55185366E-03   0.66449592E+00   0.44470312E+00
 244.0000   0.19203130E-01  -0.11078774E+03   0.68936786E+00   0.55097665E-03   0.66448769E+00   0.44465889E+00
 245.0000   0.19230505E-01  -0.11011532E+03   0.67526394E+00   0.55002924E-03   0.66448850E+00   0.44496472E+00
 246.0000   0.19259807E-01  -0.10943461E+03   0.66265076E+00   0.55010435E-03   0.66448496E+00   0.44407608E+00
 247.0000   0.19281815E-01  -0.10879336E+03   0.64691878E+00   0.54924572E-03   0.66449466E+00   0.44421991E+00
 248.0000   0.19298320E-01  -0.10814895E+03   0.63696797E+00   0.54816998E-03   0.66448426E+00   0.44473239E+00
 249.0000   0.19336682E-01  -0.10750733E+03   0.62501624E+00   0.54756949E-03   0.66448304E+00   0.44461287E+00
