 #written on 30Jul2024 at 17:52:45 
 #----------------- MONTECARLO -------------------#
 #        M                      P(M)             #
 #------------------------------------------------#
 #T=   155.0000
  -0.40000000E+01           0.00000000E+00
  -0.39900000E+01           0.00000000E+00
  -0.39800000E+01           0.00000000E+00
  -0.39700000E+01           0.00000000E+00
  -0.39600000E+01           0.00000000E+00
  -0.39500000E+01           0.00000000E+00
  -0.39400000E+01           0.00000000E+00
  -0.39300000E+01           0.00000000E+00
  -0.39200000E+01           0.00000000E+00
  -0.39100000E+01           0.00000000E+00
  -0.39000000E+01           0.00000000E+00
  -0.38900000E+01           0.00000000E+00
  -0.38800000E+01           0.00000000E+00
  -0.38700000E+01           0.00000000E+00
  -0.38600000E+01           0.00000000E+00
  -0.38500000E+01           0.00000000E+00
  -0.38400000E+01           0.00000000E+00
  -0.38300000E+01           0.00000000E+00
  -0.38200000E+01           0.00000000E+00
  -0.38100000E+01           0.00000000E+00
  -0.38000000E+01           0.00000000E+00
  -0.37900000E+01           0.00000000E+00
  -0.37800000E+01           0.00000000E+00
  -0.37700000E+01           0.00000000E+00
  -0.37600000E+01           0.00000000E+00
  -0.37500000E+01           0.00000000E+00
  -0.37400000E+01           0.00000000E+00
  -0.37300000E+01           0.00000000E+00
  -0.37200000E+01           0.00000000E+00
  -0.37100000E+01           0.00000000E+00
  -0.37000000E+01           0.00000000E+00
  -0.36900000E+01           0.00000000E+00
  -0.36800000E+01           0.00000000E+00
  -0.36700000E+01           0.00000000E+00
  -0.36600000E+01           0.00000000E+00
  -0.36500000E+01           0.00000000E+00
  -0.36400000E+01           0.00000000E+00
  -0.36300000E+01           0.00000000E+00
  -0.36200000E+01           0.00000000E+00
  -0.36100000E+01           0.00000000E+00
  -0.36000000E+01           0.00000000E+00
  -0.35900000E+01           0.00000000E+00
  -0.35800000E+01           0.00000000E+00
  -0.35700000E+01           0.00000000E+00
  -0.35600000E+01           0.00000000E+00
  -0.35500000E+01           0.00000000E+00
  -0.35400000E+01           0.00000000E+00
  -0.35300000E+01           0.00000000E+00
  -0.35200000E+01           0.00000000E+00
  -0.35100000E+01           0.00000000E+00
  -0.35000000E+01           0.00000000E+00
  -0.34900000E+01           0.00000000E+00
  -0.34800000E+01           0.00000000E+00
  -0.34700000E+01           0.00000000E+00
  -0.34600000E+01           0.00000000E+00
  -0.34500000E+01           0.00000000E+00
  -0.34400000E+01           0.00000000E+00
  -0.34300000E+01           0.00000000E+00
  -0.34200000E+01           0.00000000E+00
  -0.34100000E+01           0.00000000E+00
  -0.34000000E+01           0.00000000E+00
  -0.33900000E+01           0.00000000E+00
  -0.33800000E+01           0.00000000E+00
  -0.33700000E+01           0.00000000E+00
  -0.33600000E+01           0.00000000E+00
  -0.33500000E+01           0.00000000E+00
  -0.33400000E+01           0.00000000E+00
  -0.33300000E+01           0.00000000E+00
  -0.33200000E+01           0.00000000E+00
  -0.33100000E+01           0.00000000E+00
  -0.33000000E+01           0.00000000E+00
  -0.32900000E+01           0.00000000E+00
  -0.32800000E+01           0.00000000E+00
  -0.32700000E+01           0.00000000E+00
  -0.32600000E+01           0.00000000E+00
  -0.32500000E+01           0.00000000E+00
  -0.32400000E+01           0.00000000E+00
  -0.32300000E+01           0.00000000E+00
  -0.32200000E+01           0.00000000E+00
  -0.32100000E+01           0.00000000E+00
  -0.32000000E+01           0.00000000E+00
  -0.31900000E+01           0.00000000E+00
  -0.31800000E+01           0.00000000E+00
  -0.31700000E+01           0.00000000E+00
  -0.31600000E+01           0.00000000E+00
  -0.31500000E+01           0.00000000E+00
  -0.31400000E+01           0.00000000E+00
  -0.31300000E+01           0.00000000E+00
  -0.31200000E+01           0.00000000E+00
  -0.31100000E+01           0.00000000E+00
  -0.31000000E+01           0.00000000E+00
  -0.30900000E+01           0.00000000E+00
  -0.30800000E+01           0.00000000E+00
  -0.30700000E+01           0.00000000E+00
  -0.30600000E+01           0.00000000E+00
  -0.30500000E+01           0.00000000E+00
  -0.30400000E+01           0.00000000E+00
  -0.30300000E+01           0.00000000E+00
  -0.30200000E+01           0.00000000E+00
  -0.30100000E+01           0.00000000E+00
  -0.30000000E+01           0.00000000E+00
  -0.29900000E+01           0.00000000E+00
  -0.29800000E+01           0.00000000E+00
  -0.29700000E+01           0.00000000E+00
  -0.29600000E+01           0.00000000E+00
  -0.29500000E+01           0.00000000E+00
  -0.29400000E+01           0.00000000E+00
  -0.29300000E+01           0.00000000E+00
  -0.29200000E+01           0.00000000E+00
  -0.29100000E+01           0.00000000E+00
  -0.29000000E+01           0.00000000E+00
  -0.28900000E+01           0.00000000E+00
  -0.28800000E+01           0.00000000E+00
  -0.28700000E+01           0.00000000E+00
  -0.28600000E+01           0.00000000E+00
  -0.28500000E+01           0.00000000E+00
  -0.28400000E+01           0.00000000E+00
  -0.28300000E+01           0.00000000E+00
  -0.28200000E+01           0.00000000E+00
  -0.28100000E+01           0.00000000E+00
  -0.28000000E+01           0.00000000E+00
  -0.27900000E+01           0.00000000E+00
  -0.27800000E+01           0.00000000E+00
  -0.27700000E+01           0.00000000E+00
  -0.27600000E+01           0.00000000E+00
  -0.27500000E+01           0.00000000E+00
  -0.27400000E+01           0.00000000E+00
  -0.27300000E+01           0.00000000E+00
  -0.27200000E+01           0.00000000E+00
  -0.27100000E+01           0.00000000E+00
  -0.27000000E+01           0.00000000E+00
  -0.26900000E+01           0.00000000E+00
  -0.26800000E+01           0.00000000E+00
  -0.26700000E+01           0.00000000E+00
  -0.26600000E+01           0.00000000E+00
  -0.26500000E+01           0.00000000E+00
  -0.26400000E+01           0.00000000E+00
  -0.26300000E+01           0.00000000E+00
  -0.26200000E+01           0.00000000E+00
  -0.26100000E+01           0.00000000E+00
  -0.26000000E+01           0.00000000E+00
  -0.25900000E+01           0.00000000E+00
  -0.25800000E+01           0.00000000E+00
  -0.25700000E+01           0.00000000E+00
  -0.25600000E+01           0.00000000E+00
  -0.25500000E+01           0.00000000E+00
  -0.25400000E+01           0.00000000E+00
  -0.25300000E+01           0.00000000E+00
  -0.25200000E+01           0.00000000E+00
  -0.25100000E+01           0.00000000E+00
  -0.25000000E+01           0.00000000E+00
  -0.24900000E+01           0.00000000E+00
  -0.24800000E+01           0.00000000E+00
  -0.24700000E+01           0.00000000E+00
  -0.24600000E+01           0.00000000E+00
  -0.24500000E+01           0.00000000E+00
  -0.24400000E+01           0.00000000E+00
  -0.24300000E+01           0.00000000E+00
  -0.24200000E+01           0.00000000E+00
  -0.24100000E+01           0.00000000E+00
  -0.24000000E+01           0.00000000E+00
  -0.23900000E+01           0.00000000E+00
  -0.23800000E+01           0.00000000E+00
  -0.23700000E+01           0.00000000E+00
  -0.23600000E+01           0.00000000E+00
  -0.23500000E+01           0.00000000E+00
  -0.23400000E+01           0.00000000E+00
  -0.23300000E+01           0.00000000E+00
  -0.23200000E+01           0.00000000E+00
  -0.23100000E+01           0.00000000E+00
  -0.23000000E+01           0.00000000E+00
  -0.22900000E+01           0.00000000E+00
  -0.22800000E+01           0.00000000E+00
  -0.22700000E+01           0.00000000E+00
  -0.22600000E+01           0.00000000E+00
  -0.22500000E+01           0.00000000E+00
  -0.22400000E+01           0.00000000E+00
  -0.22300000E+01           0.00000000E+00
  -0.22200000E+01           0.00000000E+00
  -0.22100000E+01           0.00000000E+00
  -0.22000000E+01           0.00000000E+00
  -0.21900000E+01           0.00000000E+00
  -0.21800000E+01           0.00000000E+00
  -0.21700000E+01           0.00000000E+00
  -0.21600000E+01           0.00000000E+00
  -0.21500000E+01           0.00000000E+00
  -0.21400000E+01           0.00000000E+00
  -0.21300000E+01           0.00000000E+00
  -0.21200000E+01           0.00000000E+00
  -0.21100000E+01           0.00000000E+00
  -0.21000000E+01           0.00000000E+00
  -0.20900000E+01           0.00000000E+00
  -0.20800000E+01           0.00000000E+00
  -0.20700000E+01           0.00000000E+00
  -0.20600000E+01           0.00000000E+00
  -0.20500000E+01           0.00000000E+00
  -0.20400000E+01           0.00000000E+00
  -0.20300000E+01           0.00000000E+00
  -0.20200000E+01           0.00000000E+00
  -0.20100000E+01           0.00000000E+00
  -0.20000000E+01           0.00000000E+00
  -0.19900000E+01           0.00000000E+00
  -0.19800000E+01           0.00000000E+00
  -0.19700000E+01           0.00000000E+00
  -0.19600000E+01           0.00000000E+00
  -0.19500000E+01           0.00000000E+00
  -0.19400000E+01           0.00000000E+00
  -0.19300000E+01           0.00000000E+00
  -0.19200000E+01           0.00000000E+00
  -0.19100000E+01           0.00000000E+00
  -0.19000000E+01           0.00000000E+00
  -0.18900000E+01           0.00000000E+00
  -0.18800000E+01           0.00000000E+00
  -0.18700000E+01           0.00000000E+00
  -0.18600000E+01           0.00000000E+00
  -0.18500000E+01           0.00000000E+00
  -0.18400000E+01           0.00000000E+00
  -0.18300000E+01           0.00000000E+00
  -0.18200000E+01           0.00000000E+00
  -0.18100000E+01           0.00000000E+00
  -0.18000000E+01           0.00000000E+00
  -0.17900000E+01           0.00000000E+00
  -0.17800000E+01           0.00000000E+00
  -0.17700000E+01           0.00000000E+00
  -0.17600000E+01           0.00000000E+00
  -0.17500000E+01           0.00000000E+00
  -0.17400000E+01           0.00000000E+00
  -0.17300000E+01           0.00000000E+00
  -0.17200000E+01           0.00000000E+00
  -0.17100000E+01           0.00000000E+00
  -0.17000000E+01           0.00000000E+00
  -0.16900000E+01           0.00000000E+00
  -0.16800000E+01           0.00000000E+00
  -0.16700000E+01           0.00000000E+00
  -0.16600000E+01           0.00000000E+00
  -0.16500000E+01           0.00000000E+00
  -0.16400000E+01           0.00000000E+00
  -0.16300000E+01           0.00000000E+00
  -0.16200000E+01           0.00000000E+00
  -0.16100000E+01           0.00000000E+00
  -0.16000000E+01           0.00000000E+00
  -0.15900000E+01           0.00000000E+00
  -0.15800000E+01           0.00000000E+00
  -0.15700000E+01           0.00000000E+00
  -0.15600000E+01           0.00000000E+00
  -0.15500000E+01           0.00000000E+00
  -0.15400000E+01           0.00000000E+00
  -0.15300000E+01           0.00000000E+00
  -0.15200000E+01           0.00000000E+00
  -0.15100000E+01           0.00000000E+00
  -0.15000000E+01           0.00000000E+00
  -0.14900000E+01           0.00000000E+00
  -0.14800000E+01           0.00000000E+00
  -0.14700000E+01           0.00000000E+00
  -0.14600000E+01           0.00000000E+00
  -0.14500000E+01           0.00000000E+00
  -0.14400000E+01           0.00000000E+00
  -0.14300000E+01           0.00000000E+00
  -0.14200000E+01           0.00000000E+00
  -0.14100000E+01           0.00000000E+00
  -0.14000000E+01           0.00000000E+00
  -0.13900000E+01           0.00000000E+00
  -0.13800000E+01           0.00000000E+00
  -0.13700000E+01           0.00000000E+00
  -0.13600000E+01           0.00000000E+00
  -0.13500000E+01           0.00000000E+00
  -0.13400000E+01           0.00000000E+00
  -0.13300000E+01           0.00000000E+00
  -0.13200000E+01           0.00000000E+00
  -0.13100000E+01           0.00000000E+00
  -0.13000000E+01           0.00000000E+00
  -0.12900000E+01           0.00000000E+00
  -0.12800000E+01           0.00000000E+00
  -0.12700000E+01           0.00000000E+00
  -0.12600000E+01           0.00000000E+00
  -0.12500000E+01           0.00000000E+00
  -0.12400000E+01           0.00000000E+00
  -0.12300000E+01           0.00000000E+00
  -0.12200000E+01           0.00000000E+00
  -0.12100000E+01           0.00000000E+00
  -0.12000000E+01           0.00000000E+00
  -0.11900000E+01           0.00000000E+00
  -0.11800000E+01           0.00000000E+00
  -0.11700000E+01           0.00000000E+00
  -0.11600000E+01           0.00000000E+00
  -0.11500000E+01           0.00000000E+00
  -0.11400000E+01           0.00000000E+00
  -0.11300000E+01           0.00000000E+00
  -0.11200000E+01           0.00000000E+00
  -0.11100000E+01           0.00000000E+00
  -0.11000000E+01           0.00000000E+00
  -0.10900000E+01           0.00000000E+00
  -0.10800000E+01           0.00000000E+00
  -0.10700000E+01           0.00000000E+00
  -0.10600000E+01           0.00000000E+00
  -0.10500000E+01           0.00000000E+00
  -0.10400000E+01           0.00000000E+00
  -0.10300000E+01           0.00000000E+00
  -0.10200000E+01           0.00000000E+00
  -0.10100000E+01           0.00000000E+00
  -0.10000000E+01           0.00000000E+00
  -0.99000000E+00           0.00000000E+00
  -0.98000000E+00           0.00000000E+00
  -0.97000000E+00           0.00000000E+00
  -0.96000000E+00           0.00000000E+00
  -0.95000000E+00           0.00000000E+00
  -0.94000000E+00           0.00000000E+00
  -0.93000000E+00           0.00000000E+00
  -0.92000000E+00           0.00000000E+00
  -0.91000000E+00           0.00000000E+00
  -0.90000000E+00           0.00000000E+00
  -0.89000000E+00           0.00000000E+00
  -0.88000000E+00           0.00000000E+00
  -0.87000000E+00           0.00000000E+00
  -0.86000000E+00           0.00000000E+00
  -0.85000000E+00           0.00000000E+00
  -0.84000000E+00           0.00000000E+00
  -0.83000000E+00           0.00000000E+00
  -0.82000000E+00           0.00000000E+00
  -0.81000000E+00           0.00000000E+00
  -0.80000000E+00           0.00000000E+00
  -0.79000000E+00           0.00000000E+00
  -0.78000000E+00           0.00000000E+00
  -0.77000000E+00           0.00000000E+00
  -0.76000000E+00           0.00000000E+00
  -0.75000000E+00           0.00000000E+00
  -0.74000000E+00           0.00000000E+00
  -0.73000000E+00           0.00000000E+00
  -0.72000000E+00           0.00000000E+00
  -0.71000000E+00           0.00000000E+00
  -0.70000000E+00           0.00000000E+00
  -0.69000000E+00           0.00000000E+00
  -0.68000000E+00           0.00000000E+00
  -0.67000000E+00           0.00000000E+00
  -0.66000000E+00           0.00000000E+00
  -0.65000000E+00           0.00000000E+00
  -0.64000000E+00           0.00000000E+00
  -0.63000000E+00           0.00000000E+00
  -0.62000000E+00           0.00000000E+00
  -0.61000000E+00           0.00000000E+00
  -0.60000000E+00           0.00000000E+00
  -0.59000000E+00           0.00000000E+00
  -0.58000000E+00           0.00000000E+00
  -0.57000000E+00           0.00000000E+00
  -0.56000000E+00           0.00000000E+00
  -0.55000000E+00           0.00000000E+00
  -0.54000000E+00           0.00000000E+00
  -0.53000000E+00           0.00000000E+00
  -0.52000000E+00           0.00000000E+00
  -0.51000000E+00           0.00000000E+00
  -0.50000000E+00           0.00000000E+00
  -0.49000000E+00           0.00000000E+00
  -0.48000000E+00           0.00000000E+00
  -0.47000000E+00           0.00000000E+00
  -0.46000000E+00           0.00000000E+00
  -0.45000000E+00           0.00000000E+00
  -0.44000000E+00           0.00000000E+00
  -0.43000000E+00           0.00000000E+00
  -0.42000000E+00           0.00000000E+00
  -0.41000000E+00           0.00000000E+00
  -0.40000000E+00           0.00000000E+00
  -0.39000000E+00           0.00000000E+00
  -0.38000000E+00           0.00000000E+00
  -0.37000000E+00           0.00000000E+00
  -0.36000000E+00           0.00000000E+00
  -0.35000000E+00           0.00000000E+00
  -0.34000000E+00           0.00000000E+00
  -0.33000000E+00           0.00000000E+00
  -0.32000000E+00           0.00000000E+00
  -0.31000000E+00           0.00000000E+00
  -0.30000000E+00           0.00000000E+00
  -0.29000000E+00           0.00000000E+00
  -0.28000000E+00           0.00000000E+00
  -0.27000000E+00           0.00000000E+00
  -0.26000000E+00           0.00000000E+00
  -0.25000000E+00           0.00000000E+00
  -0.24000000E+00           0.00000000E+00
  -0.23000000E+00           0.00000000E+00
  -0.22000000E+00           0.00000000E+00
  -0.21000000E+00           0.00000000E+00
  -0.20000000E+00           0.00000000E+00
  -0.19000000E+00           0.00000000E+00
  -0.18000000E+00           0.00000000E+00
  -0.17000000E+00           0.00000000E+00
  -0.16000000E+00           0.00000000E+00
  -0.15000000E+00           0.00000000E+00
  -0.14000000E+00           0.00000000E+00
  -0.13000000E+00           0.00000000E+00
  -0.12000000E+00           0.00000000E+00
  -0.11000000E+00           0.00000000E+00
  -0.10000000E+00           0.00000000E+00
  -0.90000000E-01           0.00000000E+00
  -0.80000000E-01           0.00000000E+00
  -0.70000000E-01           0.00000000E+00
  -0.60000000E-01           0.00000000E+00
  -0.50000000E-01           0.00000000E+00
  -0.40000000E-01           0.00000000E+00
  -0.30000000E-01           0.00000000E+00
  -0.20000000E-01           0.00000000E+00
  -0.10000000E-01           0.00000000E+00
   0.00000000E+00           0.25000000E-04
   0.10000000E-01           0.66425781E-03
   0.20000000E-01           0.25244141E-02
   0.30000000E-01           0.54394531E-02
   0.40000000E-01           0.95527344E-02
   0.50000000E-01           0.14691992E-01
   0.60000000E-01           0.20729102E-01
   0.70000000E-01           0.27698047E-01
   0.80000000E-01           0.35644531E-01
   0.90000000E-01           0.44405273E-01
   0.10000000E+00           0.53984766E-01
   0.11000000E+00           0.64239844E-01
   0.12000000E+00           0.75252734E-01
   0.13000000E+00           0.86794531E-01
   0.14000000E+00           0.99465430E-01
   0.15000000E+00           0.11197910E+00
   0.16000000E+00           0.12565176E+00
   0.17000000E+00           0.13929785E+00
   0.18000000E+00           0.15345293E+00
   0.19000000E+00           0.16851621E+00
   0.20000000E+00           0.18371113E+00
   0.21000000E+00           0.19962734E+00
   0.22000000E+00           0.21457480E+00
   0.23000000E+00           0.23076914E+00
   0.24000000E+00           0.24698223E+00
   0.25000000E+00           0.26363027E+00
   0.26000000E+00           0.27994199E+00
   0.27000000E+00           0.29688320E+00
   0.28000000E+00           0.31387969E+00
   0.29000000E+00           0.33090215E+00
   0.30000000E+00           0.34780293E+00
   0.31000000E+00           0.36474883E+00
   0.32000000E+00           0.38177520E+00
   0.33000000E+00           0.39843555E+00
   0.34000000E+00           0.41550762E+00
   0.35000000E+00           0.43259922E+00
   0.36000000E+00           0.44969922E+00
   0.37000000E+00           0.46629102E+00
   0.38000000E+00           0.48306523E+00
   0.39000000E+00           0.49860488E+00
   0.40000000E+00           0.51521465E+00
   0.41000000E+00           0.53120645E+00
   0.42000000E+00           0.54679453E+00
   0.43000000E+00           0.56179336E+00
   0.44000000E+00           0.57709082E+00
   0.45000000E+00           0.59266270E+00
   0.46000000E+00           0.60718867E+00
   0.47000000E+00           0.62197168E+00
   0.48000000E+00           0.63531738E+00
   0.49000000E+00           0.64892695E+00
   0.50000000E+00           0.66262871E+00
   0.51000000E+00           0.67593008E+00
   0.52000000E+00           0.68817617E+00
   0.53000000E+00           0.70076426E+00
   0.54000000E+00           0.71269512E+00
   0.55000000E+00           0.72411230E+00
   0.56000000E+00           0.73544102E+00
   0.57000000E+00           0.74627129E+00
   0.58000000E+00           0.75601152E+00
   0.59000000E+00           0.76636387E+00
   0.60000000E+00           0.77663535E+00
   0.61000000E+00           0.78559434E+00
   0.62000000E+00           0.79273828E+00
   0.63000000E+00           0.80178359E+00
   0.64000000E+00           0.80930859E+00
   0.65000000E+00           0.81741797E+00
   0.66000000E+00           0.82412207E+00
   0.67000000E+00           0.83063887E+00
   0.68000000E+00           0.83599043E+00
   0.69000000E+00           0.84182246E+00
   0.70000000E+00           0.84700664E+00
   0.71000000E+00           0.85238145E+00
   0.72000000E+00           0.85619277E+00
   0.73000000E+00           0.86036719E+00
   0.74000000E+00           0.86372148E+00
   0.75000000E+00           0.86720781E+00
   0.76000000E+00           0.86964043E+00
   0.77000000E+00           0.87191680E+00
   0.78000000E+00           0.87337129E+00
   0.79000000E+00           0.87517656E+00
   0.80000000E+00           0.87548555E+00
   0.81000000E+00           0.87566133E+00
   0.82000000E+00           0.87563945E+00
   0.83000000E+00           0.87635254E+00
   0.84000000E+00           0.87617891E+00
   0.85000000E+00           0.87471172E+00
   0.86000000E+00           0.87394297E+00
   0.87000000E+00           0.87140293E+00
   0.88000000E+00           0.86921602E+00
   0.89000000E+00           0.86675195E+00
   0.90000000E+00           0.86433262E+00
   0.91000000E+00           0.86110332E+00
   0.92000000E+00           0.85730195E+00
   0.93000000E+00           0.85432754E+00
   0.94000000E+00           0.84973770E+00
   0.95000000E+00           0.84550742E+00
   0.96000000E+00           0.84094180E+00
   0.97000000E+00           0.83576484E+00
   0.98000000E+00           0.83179336E+00
   0.99000000E+00           0.82529453E+00
   0.10000000E+01           0.81985684E+00
   0.10100000E+01           0.81446230E+00
   0.10200000E+01           0.80746953E+00
   0.10300000E+01           0.80042559E+00
   0.10400000E+01           0.79469785E+00
   0.10500000E+01           0.78798711E+00
   0.10600000E+01           0.78038379E+00
   0.10700000E+01           0.77416387E+00
   0.10800000E+01           0.76652852E+00
   0.10900000E+01           0.75922461E+00
   0.11000000E+01           0.75145410E+00
   0.11100000E+01           0.74292402E+00
   0.11200000E+01           0.73551113E+00
   0.11300000E+01           0.72686426E+00
   0.11400000E+01           0.71869512E+00
   0.11500000E+01           0.71031230E+00
   0.11600000E+01           0.70237988E+00
   0.11700000E+01           0.69303203E+00
   0.11800000E+01           0.68435996E+00
   0.11900000E+01           0.67508418E+00
   0.12000000E+01           0.66694902E+00
   0.12100000E+01           0.65740449E+00
   0.12200000E+01           0.64918320E+00
   0.12300000E+01           0.63900098E+00
   0.12400000E+01           0.62997539E+00
   0.12500000E+01           0.62056680E+00
   0.12600000E+01           0.61215762E+00
   0.12700000E+01           0.60213320E+00
   0.12800000E+01           0.59274160E+00
   0.12900000E+01           0.58365469E+00
   0.13000000E+01           0.57456309E+00
   0.13100000E+01           0.56494238E+00
   0.13200000E+01           0.55562246E+00
   0.13300000E+01           0.54616250E+00
   0.13400000E+01           0.53611875E+00
   0.13500000E+01           0.52771230E+00
   0.13600000E+01           0.51820977E+00
   0.13700000E+01           0.50897012E+00
   0.13800000E+01           0.49959121E+00
   0.13900000E+01           0.49052109E+00
   0.14000000E+01           0.48125547E+00
   0.14100000E+01           0.47218125E+00
   0.14200000E+01           0.46319141E+00
   0.14300000E+01           0.45485156E+00
   0.14400000E+01           0.44512422E+00
   0.14500000E+01           0.43641172E+00
   0.14600000E+01           0.42769785E+00
   0.14700000E+01           0.41906602E+00
   0.14800000E+01           0.41034512E+00
   0.14900000E+01           0.40214082E+00
   0.15000000E+01           0.39345566E+00
   0.15100000E+01           0.38457402E+00
   0.15200000E+01           0.37668496E+00
   0.15300000E+01           0.36859707E+00
   0.15400000E+01           0.36042422E+00
   0.15500000E+01           0.35219375E+00
   0.15600000E+01           0.34422832E+00
   0.15700000E+01           0.33641367E+00
   0.15800000E+01           0.32862344E+00
   0.15900000E+01           0.32137930E+00
   0.16000000E+01           0.31331191E+00
   0.16100000E+01           0.30559570E+00
   0.16200000E+01           0.29868574E+00
   0.16300000E+01           0.29166152E+00
   0.16400000E+01           0.28387402E+00
   0.16500000E+01           0.27693457E+00
   0.16600000E+01           0.26995605E+00
   0.16700000E+01           0.26344727E+00
   0.16800000E+01           0.25652598E+00
   0.16900000E+01           0.24989023E+00
   0.17000000E+01           0.24384434E+00
   0.17100000E+01           0.23726445E+00
   0.17200000E+01           0.23109629E+00
   0.17300000E+01           0.22506152E+00
   0.17400000E+01           0.21877012E+00
   0.17500000E+01           0.21315801E+00
   0.17600000E+01           0.20690391E+00
   0.17700000E+01           0.20107871E+00
   0.17800000E+01           0.19589785E+00
   0.17900000E+01           0.19049219E+00
   0.18000000E+01           0.18526855E+00
   0.18100000E+01           0.17958984E+00
   0.18200000E+01           0.17458848E+00
   0.18300000E+01           0.16966328E+00
   0.18400000E+01           0.16481758E+00
   0.18500000E+01           0.15959277E+00
   0.18600000E+01           0.15540918E+00
   0.18700000E+01           0.15065000E+00
   0.18800000E+01           0.14625352E+00
   0.18900000E+01           0.14165273E+00
   0.19000000E+01           0.13721680E+00
   0.19100000E+01           0.13313203E+00
   0.19200000E+01           0.12908301E+00
   0.19300000E+01           0.12496328E+00
   0.19400000E+01           0.12114375E+00
   0.19500000E+01           0.11739414E+00
   0.19600000E+01           0.11363965E+00
   0.19700000E+01           0.10978848E+00
   0.19800000E+01           0.10617871E+00
   0.19900000E+01           0.10266777E+00
   0.20000000E+01           0.99503516E-01
   0.20100000E+01           0.96071680E-01
   0.20200000E+01           0.92890625E-01
   0.20300000E+01           0.89769336E-01
   0.20400000E+01           0.86600391E-01
   0.20500000E+01           0.83638672E-01
   0.20600000E+01           0.81017578E-01
   0.20700000E+01           0.78409570E-01
   0.20800000E+01           0.75224023E-01
   0.20900000E+01           0.72864844E-01
   0.21000000E+01           0.70368945E-01
   0.21100000E+01           0.67772070E-01
   0.21200000E+01           0.65373242E-01
   0.21300000E+01           0.62926367E-01
   0.21400000E+01           0.60693359E-01
   0.21500000E+01           0.58643945E-01
   0.21600000E+01           0.56532422E-01
   0.21700000E+01           0.54400391E-01
   0.21800000E+01           0.52509766E-01
   0.21900000E+01           0.50399609E-01
   0.22000000E+01           0.48597656E-01
   0.22100000E+01           0.46731250E-01
   0.22200000E+01           0.45135547E-01
   0.22300000E+01           0.43243750E-01
   0.22400000E+01           0.41622852E-01
   0.22500000E+01           0.39953906E-01
   0.22600000E+01           0.38667383E-01
   0.22700000E+01           0.37089648E-01
   0.22800000E+01           0.35530273E-01
   0.22900000E+01           0.34032422E-01
   0.23000000E+01           0.32728711E-01
   0.23100000E+01           0.31392383E-01
   0.23200000E+01           0.30325000E-01
   0.23300000E+01           0.28941211E-01
   0.23400000E+01           0.27891797E-01
   0.23500000E+01           0.26707617E-01
   0.23600000E+01           0.25564258E-01
   0.23700000E+01           0.24596875E-01
   0.23800000E+01           0.23481445E-01
   0.23900000E+01           0.22603125E-01
   0.24000000E+01           0.21674219E-01
   0.24100000E+01           0.20735742E-01
   0.24200000E+01           0.19833594E-01
   0.24300000E+01           0.18991211E-01
   0.24400000E+01           0.18191992E-01
   0.24500000E+01           0.17365039E-01
   0.24600000E+01           0.16730664E-01
   0.24700000E+01           0.15912500E-01
   0.24800000E+01           0.15214453E-01
   0.24900000E+01           0.14628125E-01
   0.25000000E+01           0.13937695E-01
   0.25100000E+01           0.13280469E-01
   0.25200000E+01           0.12731445E-01
   0.25300000E+01           0.12161914E-01
   0.25400000E+01           0.11565820E-01
   0.25500000E+01           0.11032617E-01
   0.25600000E+01           0.10556836E-01
   0.25700000E+01           0.10143164E-01
   0.25800000E+01           0.95798828E-02
   0.25900000E+01           0.91791016E-02
   0.26000000E+01           0.87625000E-02
   0.26100000E+01           0.83531250E-02
   0.26200000E+01           0.78861328E-02
   0.26300000E+01           0.75402344E-02
   0.26400000E+01           0.71667969E-02
   0.26500000E+01           0.68283203E-02
   0.26600000E+01           0.65335937E-02
   0.26700000E+01           0.61812500E-02
   0.26800000E+01           0.58400391E-02
   0.26900000E+01           0.56519531E-02
   0.27000000E+01           0.53193359E-02
   0.27100000E+01           0.50978516E-02
   0.27200000E+01           0.48000000E-02
   0.27300000E+01           0.46080078E-02
   0.27400000E+01           0.43263672E-02
   0.27500000E+01           0.40703125E-02
   0.27600000E+01           0.39619141E-02
   0.27700000E+01           0.37376953E-02
   0.27800000E+01           0.35447266E-02
   0.27900000E+01           0.33154297E-02
   0.28000000E+01           0.32193359E-02
   0.28100000E+01           0.29490234E-02
   0.28200000E+01           0.28580078E-02
   0.28300000E+01           0.27000000E-02
   0.28400000E+01           0.25800781E-02
   0.28500000E+01           0.24267578E-02
   0.28600000E+01           0.22767578E-02
   0.28700000E+01           0.21771484E-02
   0.28800000E+01           0.20798828E-02
   0.28900000E+01           0.19220703E-02
   0.29000000E+01           0.18251953E-02
   0.29100000E+01           0.17478516E-02
   0.29200000E+01           0.16216797E-02
   0.29300000E+01           0.15617187E-02
   0.29400000E+01           0.14304687E-02
   0.29500000E+01           0.13316406E-02
   0.29600000E+01           0.12875000E-02
   0.29700000E+01           0.11994141E-02
   0.29800000E+01           0.11539062E-02
   0.29900000E+01           0.10617187E-02
   0.30000000E+01           0.10289062E-02
   0.30100000E+01           0.96953125E-03
   0.30200000E+01           0.90156250E-03
   0.30300000E+01           0.84218750E-03
   0.30400000E+01           0.78632812E-03
   0.30500000E+01           0.74531250E-03
   0.30600000E+01           0.70078125E-03
   0.30700000E+01           0.66484375E-03
   0.30800000E+01           0.61523438E-03
   0.30900000E+01           0.55937500E-03
   0.31000000E+01           0.55136719E-03
   0.31100000E+01           0.50585938E-03
   0.31200000E+01           0.48886719E-03
   0.31300000E+01           0.44316406E-03
   0.31400000E+01           0.41640625E-03
   0.31500000E+01           0.37539062E-03
   0.31600000E+01           0.35703125E-03
   0.31700000E+01           0.34316406E-03
   0.31800000E+01           0.33613281E-03
   0.31900000E+01           0.29023437E-03
   0.32000000E+01           0.27402344E-03
   0.32100000E+01           0.25625000E-03
   0.32200000E+01           0.23828125E-03
   0.32300000E+01           0.22109375E-03
   0.32400000E+01           0.21015625E-03
   0.32500000E+01           0.20078125E-03
   0.32600000E+01           0.18496094E-03
   0.32700000E+01           0.16855469E-03
   0.32800000E+01           0.15820313E-03
   0.32900000E+01           0.15117187E-03
   0.33000000E+01           0.13964844E-03
   0.33100000E+01           0.13164063E-03
   0.33200000E+01           0.11582031E-03
   0.33300000E+01           0.11152344E-03
   0.33400000E+01           0.10273438E-03
   0.33500000E+01           0.91406250E-04
   0.33600000E+01           0.87109375E-04
   0.33700000E+01           0.77734375E-04
   0.33800000E+01           0.75976562E-04
   0.33900000E+01           0.70703125E-04
   0.34000000E+01           0.60937500E-04
   0.34100000E+01           0.53125000E-04
   0.34200000E+01           0.55273437E-04
   0.34300000E+01           0.47265625E-04
   0.34400000E+01           0.48828125E-04
   0.34500000E+01           0.42773437E-04
   0.34600000E+01           0.34179687E-04
   0.34700000E+01           0.31640625E-04
   0.34800000E+01           0.33398438E-04
   0.34900000E+01           0.26171875E-04
   0.35000000E+01           0.26367187E-04
   0.35100000E+01           0.24218750E-04
   0.35200000E+01           0.20117188E-04
   0.35300000E+01           0.20507812E-04
   0.35400000E+01           0.16796875E-04
   0.35500000E+01           0.16210938E-04
   0.35600000E+01           0.12109375E-04
   0.35700000E+01           0.11718750E-04
   0.35800000E+01           0.12695312E-04
   0.35900000E+01           0.12500000E-04
   0.36000000E+01           0.13671875E-04
   0.36100000E+01           0.10546875E-04
   0.36200000E+01           0.95703125E-05
   0.36300000E+01           0.87890625E-05
   0.36400000E+01           0.76171875E-05
   0.36500000E+01           0.68359375E-05
   0.36600000E+01           0.74218750E-05
   0.36700000E+01           0.48828125E-05
   0.36800000E+01           0.68359375E-05
   0.36900000E+01           0.29296875E-05
   0.37000000E+01           0.27343750E-05
   0.37100000E+01           0.41015625E-05
   0.37200000E+01           0.23437500E-05
   0.37300000E+01           0.19531250E-05
   0.37400000E+01           0.29296875E-05
   0.37500000E+01           0.23437500E-05
   0.37600000E+01           0.78125000E-06
   0.37700000E+01           0.15625000E-05
   0.37800000E+01           0.15625000E-05
   0.37900000E+01           0.97656250E-06
   0.38000000E+01           0.78125000E-06
   0.38100000E+01           0.97656250E-06
   0.38200000E+01           0.97656250E-06
   0.38300000E+01           0.78125000E-06
   0.38400000E+01           0.39062500E-06
   0.38500000E+01           0.97656250E-06
   0.38600000E+01           0.39062500E-06
   0.38700000E+01           0.19531250E-06
   0.38800000E+01           0.19531250E-06
   0.38900000E+01           0.00000000E+00
   0.39000000E+01           0.19531250E-06
   0.39100000E+01           0.00000000E+00
   0.39200000E+01           0.19531250E-06
   0.39300000E+01           0.00000000E+00
   0.39400000E+01           0.00000000E+00
   0.39500000E+01           0.19531250E-06
   0.39600000E+01           0.00000000E+00
   0.39700000E+01           0.00000000E+00
   0.39800000E+01           0.00000000E+00
   0.39900000E+01           0.00000000E+00
   0.40000000E+01           0.00000000E+00
 #T=   156.0000
  -0.40000000E+01           0.00000000E+00
  -0.39900000E+01           0.00000000E+00
  -0.39800000E+01           0.00000000E+00
  -0.39700000E+01           0.00000000E+00
  -0.39600000E+01           0.00000000E+00
  -0.39500000E+01           0.00000000E+00
  -0.39400000E+01           0.00000000E+00
  -0.39300000E+01           0.00000000E+00
  -0.39200000E+01           0.00000000E+00
  -0.39100000E+01           0.00000000E+00
  -0.39000000E+01           0.00000000E+00
  -0.38900000E+01           0.00000000E+00
  -0.38800000E+01           0.00000000E+00
  -0.38700000E+01           0.00000000E+00
  -0.38600000E+01           0.00000000E+00
  -0.38500000E+01           0.00000000E+00
  -0.38400000E+01           0.00000000E+00
  -0.38300000E+01           0.00000000E+00
  -0.38200000E+01           0.00000000E+00
  -0.38100000E+01           0.00000000E+00
  -0.38000000E+01           0.00000000E+00
  -0.37900000E+01           0.00000000E+00
  -0.37800000E+01           0.00000000E+00
  -0.37700000E+01           0.00000000E+00
  -0.37600000E+01           0.00000000E+00
  -0.37500000E+01           0.00000000E+00
  -0.37400000E+01           0.00000000E+00
  -0.37300000E+01           0.00000000E+00
  -0.37200000E+01           0.00000000E+00
  -0.37100000E+01           0.00000000E+00
  -0.37000000E+01           0.00000000E+00
  -0.36900000E+01           0.00000000E+00
  -0.36800000E+01           0.00000000E+00
  -0.36700000E+01           0.00000000E+00
  -0.36600000E+01           0.00000000E+00
  -0.36500000E+01           0.00000000E+00
  -0.36400000E+01           0.00000000E+00
  -0.36300000E+01           0.00000000E+00
  -0.36200000E+01           0.00000000E+00
  -0.36100000E+01           0.00000000E+00
  -0.36000000E+01           0.00000000E+00
  -0.35900000E+01           0.00000000E+00
  -0.35800000E+01           0.00000000E+00
  -0.35700000E+01           0.00000000E+00
  -0.35600000E+01           0.00000000E+00
  -0.35500000E+01           0.00000000E+00
  -0.35400000E+01           0.00000000E+00
  -0.35300000E+01           0.00000000E+00
  -0.35200000E+01           0.00000000E+00
  -0.35100000E+01           0.00000000E+00
  -0.35000000E+01           0.00000000E+00
  -0.34900000E+01           0.00000000E+00
  -0.34800000E+01           0.00000000E+00
  -0.34700000E+01           0.00000000E+00
  -0.34600000E+01           0.00000000E+00
  -0.34500000E+01           0.00000000E+00
  -0.34400000E+01           0.00000000E+00
  -0.34300000E+01           0.00000000E+00
  -0.34200000E+01           0.00000000E+00
  -0.34100000E+01           0.00000000E+00
  -0.34000000E+01           0.00000000E+00
  -0.33900000E+01           0.00000000E+00
  -0.33800000E+01           0.00000000E+00
  -0.33700000E+01           0.00000000E+00
  -0.33600000E+01           0.00000000E+00
  -0.33500000E+01           0.00000000E+00
  -0.33400000E+01           0.00000000E+00
  -0.33300000E+01           0.00000000E+00
  -0.33200000E+01           0.00000000E+00
  -0.33100000E+01           0.00000000E+00
  -0.33000000E+01           0.00000000E+00
  -0.32900000E+01           0.00000000E+00
  -0.32800000E+01           0.00000000E+00
  -0.32700000E+01           0.00000000E+00
  -0.32600000E+01           0.00000000E+00
  -0.32500000E+01           0.00000000E+00
  -0.32400000E+01           0.00000000E+00
  -0.32300000E+01           0.00000000E+00
  -0.32200000E+01           0.00000000E+00
  -0.32100000E+01           0.00000000E+00
  -0.32000000E+01           0.00000000E+00
  -0.31900000E+01           0.00000000E+00
  -0.31800000E+01           0.00000000E+00
  -0.31700000E+01           0.00000000E+00
  -0.31600000E+01           0.00000000E+00
  -0.31500000E+01           0.00000000E+00
  -0.31400000E+01           0.00000000E+00
  -0.31300000E+01           0.00000000E+00
  -0.31200000E+01           0.00000000E+00
  -0.31100000E+01           0.00000000E+00
  -0.31000000E+01           0.00000000E+00
  -0.30900000E+01           0.00000000E+00
  -0.30800000E+01           0.00000000E+00
  -0.30700000E+01           0.00000000E+00
  -0.30600000E+01           0.00000000E+00
  -0.30500000E+01           0.00000000E+00
  -0.30400000E+01           0.00000000E+00
  -0.30300000E+01           0.00000000E+00
  -0.30200000E+01           0.00000000E+00
  -0.30100000E+01           0.00000000E+00
  -0.30000000E+01           0.00000000E+00
  -0.29900000E+01           0.00000000E+00
  -0.29800000E+01           0.00000000E+00
  -0.29700000E+01           0.00000000E+00
  -0.29600000E+01           0.00000000E+00
  -0.29500000E+01           0.00000000E+00
  -0.29400000E+01           0.00000000E+00
  -0.29300000E+01           0.00000000E+00
  -0.29200000E+01           0.00000000E+00
  -0.29100000E+01           0.00000000E+00
  -0.29000000E+01           0.00000000E+00
  -0.28900000E+01           0.00000000E+00
  -0.28800000E+01           0.00000000E+00
  -0.28700000E+01           0.00000000E+00
  -0.28600000E+01           0.00000000E+00
  -0.28500000E+01           0.00000000E+00
  -0.28400000E+01           0.00000000E+00
  -0.28300000E+01           0.00000000E+00
  -0.28200000E+01           0.00000000E+00
  -0.28100000E+01           0.00000000E+00
  -0.28000000E+01           0.00000000E+00
  -0.27900000E+01           0.00000000E+00
  -0.27800000E+01           0.00000000E+00
  -0.27700000E+01           0.00000000E+00
  -0.27600000E+01           0.00000000E+00
  -0.27500000E+01           0.00000000E+00
  -0.27400000E+01           0.00000000E+00
  -0.27300000E+01           0.00000000E+00
  -0.27200000E+01           0.00000000E+00
  -0.27100000E+01           0.00000000E+00
  -0.27000000E+01           0.00000000E+00
  -0.26900000E+01           0.00000000E+00
  -0.26800000E+01           0.00000000E+00
  -0.26700000E+01           0.00000000E+00
  -0.26600000E+01           0.00000000E+00
  -0.26500000E+01           0.00000000E+00
  -0.26400000E+01           0.00000000E+00
  -0.26300000E+01           0.00000000E+00
  -0.26200000E+01           0.00000000E+00
  -0.26100000E+01           0.00000000E+00
  -0.26000000E+01           0.00000000E+00
  -0.25900000E+01           0.00000000E+00
  -0.25800000E+01           0.00000000E+00
  -0.25700000E+01           0.00000000E+00
  -0.25600000E+01           0.00000000E+00
  -0.25500000E+01           0.00000000E+00
  -0.25400000E+01           0.00000000E+00
  -0.25300000E+01           0.00000000E+00
  -0.25200000E+01           0.00000000E+00
  -0.25100000E+01           0.00000000E+00
  -0.25000000E+01           0.00000000E+00
  -0.24900000E+01           0.00000000E+00
  -0.24800000E+01           0.00000000E+00
  -0.24700000E+01           0.00000000E+00
  -0.24600000E+01           0.00000000E+00
  -0.24500000E+01           0.00000000E+00
  -0.24400000E+01           0.00000000E+00
  -0.24300000E+01           0.00000000E+00
  -0.24200000E+01           0.00000000E+00
  -0.24100000E+01           0.00000000E+00
  -0.24000000E+01           0.00000000E+00
  -0.23900000E+01           0.00000000E+00
  -0.23800000E+01           0.00000000E+00
  -0.23700000E+01           0.00000000E+00
  -0.23600000E+01           0.00000000E+00
  -0.23500000E+01           0.00000000E+00
  -0.23400000E+01           0.00000000E+00
  -0.23300000E+01           0.00000000E+00
  -0.23200000E+01           0.00000000E+00
  -0.23100000E+01           0.00000000E+00
  -0.23000000E+01           0.00000000E+00
  -0.22900000E+01           0.00000000E+00
  -0.22800000E+01           0.00000000E+00
  -0.22700000E+01           0.00000000E+00
  -0.22600000E+01           0.00000000E+00
  -0.22500000E+01           0.00000000E+00
  -0.22400000E+01           0.00000000E+00
  -0.22300000E+01           0.00000000E+00
  -0.22200000E+01           0.00000000E+00
  -0.22100000E+01           0.00000000E+00
  -0.22000000E+01           0.00000000E+00
  -0.21900000E+01           0.00000000E+00
  -0.21800000E+01           0.00000000E+00
  -0.21700000E+01           0.00000000E+00
  -0.21600000E+01           0.00000000E+00
  -0.21500000E+01           0.00000000E+00
  -0.21400000E+01           0.00000000E+00
  -0.21300000E+01           0.00000000E+00
  -0.21200000E+01           0.00000000E+00
  -0.21100000E+01           0.00000000E+00
  -0.21000000E+01           0.00000000E+00
  -0.20900000E+01           0.00000000E+00
  -0.20800000E+01           0.00000000E+00
  -0.20700000E+01           0.00000000E+00
  -0.20600000E+01           0.00000000E+00
  -0.20500000E+01           0.00000000E+00
  -0.20400000E+01           0.00000000E+00
  -0.20300000E+01           0.00000000E+00
  -0.20200000E+01           0.00000000E+00
  -0.20100000E+01           0.00000000E+00
  -0.20000000E+01           0.00000000E+00
  -0.19900000E+01           0.00000000E+00
  -0.19800000E+01           0.00000000E+00
  -0.19700000E+01           0.00000000E+00
  -0.19600000E+01           0.00000000E+00
  -0.19500000E+01           0.00000000E+00
  -0.19400000E+01           0.00000000E+00
  -0.19300000E+01           0.00000000E+00
  -0.19200000E+01           0.00000000E+00
  -0.19100000E+01           0.00000000E+00
  -0.19000000E+01           0.00000000E+00
  -0.18900000E+01           0.00000000E+00
  -0.18800000E+01           0.00000000E+00
  -0.18700000E+01           0.00000000E+00
  -0.18600000E+01           0.00000000E+00
  -0.18500000E+01           0.00000000E+00
  -0.18400000E+01           0.00000000E+00
  -0.18300000E+01           0.00000000E+00
  -0.18200000E+01           0.00000000E+00
  -0.18100000E+01           0.00000000E+00
  -0.18000000E+01           0.00000000E+00
  -0.17900000E+01           0.00000000E+00
  -0.17800000E+01           0.00000000E+00
  -0.17700000E+01           0.00000000E+00
  -0.17600000E+01           0.00000000E+00
  -0.17500000E+01           0.00000000E+00
  -0.17400000E+01           0.00000000E+00
  -0.17300000E+01           0.00000000E+00
  -0.17200000E+01           0.00000000E+00
  -0.17100000E+01           0.00000000E+00
  -0.17000000E+01           0.00000000E+00
  -0.16900000E+01           0.00000000E+00
  -0.16800000E+01           0.00000000E+00
  -0.16700000E+01           0.00000000E+00
  -0.16600000E+01           0.00000000E+00
  -0.16500000E+01           0.00000000E+00
  -0.16400000E+01           0.00000000E+00
  -0.16300000E+01           0.00000000E+00
  -0.16200000E+01           0.00000000E+00
  -0.16100000E+01           0.00000000E+00
  -0.16000000E+01           0.00000000E+00
  -0.15900000E+01           0.00000000E+00
  -0.15800000E+01           0.00000000E+00
  -0.15700000E+01           0.00000000E+00
  -0.15600000E+01           0.00000000E+00
  -0.15500000E+01           0.00000000E+00
  -0.15400000E+01           0.00000000E+00
  -0.15300000E+01           0.00000000E+00
  -0.15200000E+01           0.00000000E+00
  -0.15100000E+01           0.00000000E+00
  -0.15000000E+01           0.00000000E+00
  -0.14900000E+01           0.00000000E+00
  -0.14800000E+01           0.00000000E+00
  -0.14700000E+01           0.00000000E+00
  -0.14600000E+01           0.00000000E+00
  -0.14500000E+01           0.00000000E+00
  -0.14400000E+01           0.00000000E+00
  -0.14300000E+01           0.00000000E+00
  -0.14200000E+01           0.00000000E+00
  -0.14100000E+01           0.00000000E+00
  -0.14000000E+01           0.00000000E+00
  -0.13900000E+01           0.00000000E+00
  -0.13800000E+01           0.00000000E+00
  -0.13700000E+01           0.00000000E+00
  -0.13600000E+01           0.00000000E+00
  -0.13500000E+01           0.00000000E+00
  -0.13400000E+01           0.00000000E+00
  -0.13300000E+01           0.00000000E+00
  -0.13200000E+01           0.00000000E+00
  -0.13100000E+01           0.00000000E+00
  -0.13000000E+01           0.00000000E+00
  -0.12900000E+01           0.00000000E+00
  -0.12800000E+01           0.00000000E+00
  -0.12700000E+01           0.00000000E+00
  -0.12600000E+01           0.00000000E+00
  -0.12500000E+01           0.00000000E+00
  -0.12400000E+01           0.00000000E+00
  -0.12300000E+01           0.00000000E+00
  -0.12200000E+01           0.00000000E+00
  -0.12100000E+01           0.00000000E+00
  -0.12000000E+01           0.00000000E+00
  -0.11900000E+01           0.00000000E+00
  -0.11800000E+01           0.00000000E+00
  -0.11700000E+01           0.00000000E+00
  -0.11600000E+01           0.00000000E+00
  -0.11500000E+01           0.00000000E+00
  -0.11400000E+01           0.00000000E+00
  -0.11300000E+01           0.00000000E+00
  -0.11200000E+01           0.00000000E+00
  -0.11100000E+01           0.00000000E+00
  -0.11000000E+01           0.00000000E+00
  -0.10900000E+01           0.00000000E+00
  -0.10800000E+01           0.00000000E+00
  -0.10700000E+01           0.00000000E+00
  -0.10600000E+01           0.00000000E+00
  -0.10500000E+01           0.00000000E+00
  -0.10400000E+01           0.00000000E+00
  -0.10300000E+01           0.00000000E+00
  -0.10200000E+01           0.00000000E+00
  -0.10100000E+01           0.00000000E+00
  -0.10000000E+01           0.00000000E+00
  -0.99000000E+00           0.00000000E+00
  -0.98000000E+00           0.00000000E+00
  -0.97000000E+00           0.00000000E+00
  -0.96000000E+00           0.00000000E+00
  -0.95000000E+00           0.00000000E+00
  -0.94000000E+00           0.00000000E+00
  -0.93000000E+00           0.00000000E+00
  -0.92000000E+00           0.00000000E+00
  -0.91000000E+00           0.00000000E+00
  -0.90000000E+00           0.00000000E+00
  -0.89000000E+00           0.00000000E+00
  -0.88000000E+00           0.00000000E+00
  -0.87000000E+00           0.00000000E+00
  -0.86000000E+00           0.00000000E+00
  -0.85000000E+00           0.00000000E+00
  -0.84000000E+00           0.00000000E+00
  -0.83000000E+00           0.00000000E+00
  -0.82000000E+00           0.00000000E+00
  -0.81000000E+00           0.00000000E+00
  -0.80000000E+00           0.00000000E+00
  -0.79000000E+00           0.00000000E+00
  -0.78000000E+00           0.00000000E+00
  -0.77000000E+00           0.00000000E+00
  -0.76000000E+00           0.00000000E+00
  -0.75000000E+00           0.00000000E+00
  -0.74000000E+00           0.00000000E+00
  -0.73000000E+00           0.00000000E+00
  -0.72000000E+00           0.00000000E+00
  -0.71000000E+00           0.00000000E+00
  -0.70000000E+00           0.00000000E+00
  -0.69000000E+00           0.00000000E+00
  -0.68000000E+00           0.00000000E+00
  -0.67000000E+00           0.00000000E+00
  -0.66000000E+00           0.00000000E+00
  -0.65000000E+00           0.00000000E+00
  -0.64000000E+00           0.00000000E+00
  -0.63000000E+00           0.00000000E+00
  -0.62000000E+00           0.00000000E+00
  -0.61000000E+00           0.00000000E+00
  -0.60000000E+00           0.00000000E+00
  -0.59000000E+00           0.00000000E+00
  -0.58000000E+00           0.00000000E+00
  -0.57000000E+00           0.00000000E+00
  -0.56000000E+00           0.00000000E+00
  -0.55000000E+00           0.00000000E+00
  -0.54000000E+00           0.00000000E+00
  -0.53000000E+00           0.00000000E+00
  -0.52000000E+00           0.00000000E+00
  -0.51000000E+00           0.00000000E+00
  -0.50000000E+00           0.00000000E+00
  -0.49000000E+00           0.00000000E+00
  -0.48000000E+00           0.00000000E+00
  -0.47000000E+00           0.00000000E+00
  -0.46000000E+00           0.00000000E+00
  -0.45000000E+00           0.00000000E+00
  -0.44000000E+00           0.00000000E+00
  -0.43000000E+00           0.00000000E+00
  -0.42000000E+00           0.00000000E+00
  -0.41000000E+00           0.00000000E+00
  -0.40000000E+00           0.00000000E+00
  -0.39000000E+00           0.00000000E+00
  -0.38000000E+00           0.00000000E+00
  -0.37000000E+00           0.00000000E+00
  -0.36000000E+00           0.00000000E+00
  -0.35000000E+00           0.00000000E+00
  -0.34000000E+00           0.00000000E+00
  -0.33000000E+00           0.00000000E+00
  -0.32000000E+00           0.00000000E+00
  -0.31000000E+00           0.00000000E+00
  -0.30000000E+00           0.00000000E+00
  -0.29000000E+00           0.00000000E+00
  -0.28000000E+00           0.00000000E+00
  -0.27000000E+00           0.00000000E+00
  -0.26000000E+00           0.00000000E+00
  -0.25000000E+00           0.00000000E+00
  -0.24000000E+00           0.00000000E+00
  -0.23000000E+00           0.00000000E+00
  -0.22000000E+00           0.00000000E+00
  -0.21000000E+00           0.00000000E+00
  -0.20000000E+00           0.00000000E+00
  -0.19000000E+00           0.00000000E+00
  -0.18000000E+00           0.00000000E+00
  -0.17000000E+00           0.00000000E+00
  -0.16000000E+00           0.00000000E+00
  -0.15000000E+00           0.00000000E+00
  -0.14000000E+00           0.00000000E+00
  -0.13000000E+00           0.00000000E+00
  -0.12000000E+00           0.00000000E+00
  -0.11000000E+00           0.00000000E+00
  -0.10000000E+00           0.00000000E+00
  -0.90000000E-01           0.00000000E+00
  -0.80000000E-01           0.00000000E+00
  -0.70000000E-01           0.00000000E+00
  -0.60000000E-01           0.00000000E+00
  -0.50000000E-01           0.00000000E+00
  -0.40000000E-01           0.00000000E+00
  -0.30000000E-01           0.00000000E+00
  -0.20000000E-01           0.00000000E+00
  -0.10000000E-01           0.00000000E+00
   0.00000000E+00           0.25781250E-04
   0.10000000E-01           0.64960938E-03
   0.20000000E-01           0.24021484E-02
   0.30000000E-01           0.53720703E-02
   0.40000000E-01           0.93878906E-02
   0.50000000E-01           0.14336133E-01
   0.60000000E-01           0.20374414E-01
   0.70000000E-01           0.27356836E-01
   0.80000000E-01           0.35261133E-01
   0.90000000E-01           0.43584180E-01
   0.10000000E+00           0.53196875E-01
   0.11000000E+00           0.63346484E-01
   0.12000000E+00           0.74177148E-01
   0.13000000E+00           0.85747461E-01
   0.14000000E+00           0.97804102E-01
   0.15000000E+00           0.11057402E+00
   0.16000000E+00           0.12387383E+00
   0.17000000E+00           0.13746309E+00
   0.18000000E+00           0.15131816E+00
   0.19000000E+00           0.16596797E+00
   0.20000000E+00           0.18126660E+00
   0.21000000E+00           0.19654707E+00
   0.22000000E+00           0.21194805E+00
   0.23000000E+00           0.22754043E+00
   0.24000000E+00           0.24411016E+00
   0.25000000E+00           0.26023320E+00
   0.26000000E+00           0.27653848E+00
   0.27000000E+00           0.29344023E+00
   0.28000000E+00           0.30995801E+00
   0.29000000E+00           0.32708242E+00
   0.30000000E+00           0.34340801E+00
   0.31000000E+00           0.36009023E+00
   0.32000000E+00           0.37775215E+00
   0.33000000E+00           0.39449551E+00
   0.34000000E+00           0.41105332E+00
   0.35000000E+00           0.42790430E+00
   0.36000000E+00           0.44401836E+00
   0.37000000E+00           0.46078730E+00
   0.38000000E+00           0.47734258E+00
   0.39000000E+00           0.49385254E+00
   0.40000000E+00           0.50995781E+00
   0.41000000E+00           0.52583809E+00
   0.42000000E+00           0.54126289E+00
   0.43000000E+00           0.55731914E+00
   0.44000000E+00           0.57285332E+00
   0.45000000E+00           0.58661855E+00
   0.46000000E+00           0.60118262E+00
   0.47000000E+00           0.61549512E+00
   0.48000000E+00           0.62953125E+00
   0.49000000E+00           0.64363437E+00
   0.50000000E+00           0.65670957E+00
   0.51000000E+00           0.66984297E+00
   0.52000000E+00           0.68209609E+00
   0.53000000E+00           0.69450566E+00
   0.54000000E+00           0.70658047E+00
   0.55000000E+00           0.71857383E+00
   0.56000000E+00           0.72951133E+00
   0.57000000E+00           0.74109434E+00
   0.58000000E+00           0.75055020E+00
   0.59000000E+00           0.76093457E+00
   0.60000000E+00           0.76978730E+00
   0.61000000E+00           0.77933105E+00
   0.62000000E+00           0.78757480E+00
   0.63000000E+00           0.79588457E+00
   0.64000000E+00           0.80435000E+00
   0.65000000E+00           0.81191777E+00
   0.66000000E+00           0.81888535E+00
   0.67000000E+00           0.82490059E+00
   0.68000000E+00           0.83140039E+00
   0.69000000E+00           0.83710918E+00
   0.70000000E+00           0.84265313E+00
   0.71000000E+00           0.84798242E+00
   0.72000000E+00           0.85184551E+00
   0.73000000E+00           0.85539453E+00
   0.74000000E+00           0.85866250E+00
   0.75000000E+00           0.86216582E+00
   0.76000000E+00           0.86462871E+00
   0.77000000E+00           0.86821250E+00
   0.78000000E+00           0.86933730E+00
   0.79000000E+00           0.87126465E+00
   0.80000000E+00           0.87234727E+00
   0.81000000E+00           0.87284199E+00
   0.82000000E+00           0.87265879E+00
   0.83000000E+00           0.87339434E+00
   0.84000000E+00           0.87247988E+00
   0.85000000E+00           0.87148008E+00
   0.86000000E+00           0.87080840E+00
   0.87000000E+00           0.86885332E+00
   0.88000000E+00           0.86619121E+00
   0.89000000E+00           0.86505723E+00
   0.90000000E+00           0.86176641E+00
   0.91000000E+00           0.85883809E+00
   0.92000000E+00           0.85608320E+00
   0.93000000E+00           0.85179922E+00
   0.94000000E+00           0.84918125E+00
   0.95000000E+00           0.84438262E+00
   0.96000000E+00           0.83938965E+00
   0.97000000E+00           0.83495723E+00
   0.98000000E+00           0.83022285E+00
   0.99000000E+00           0.82471738E+00
   0.10000000E+01           0.82037773E+00
   0.10100000E+01           0.81362285E+00
   0.10200000E+01           0.80722520E+00
   0.10300000E+01           0.80147695E+00
   0.10400000E+01           0.79443906E+00
   0.10500000E+01           0.78786211E+00
   0.10600000E+01           0.78093926E+00
   0.10700000E+01           0.77482891E+00
   0.10800000E+01           0.76711836E+00
   0.10900000E+01           0.75926016E+00
   0.11000000E+01           0.75208320E+00
   0.11100000E+01           0.74418418E+00
   0.11200000E+01           0.73675215E+00
   0.11300000E+01           0.72898535E+00
   0.11400000E+01           0.71957578E+00
   0.11500000E+01           0.71141211E+00
   0.11600000E+01           0.70356582E+00
   0.11700000E+01           0.69406465E+00
   0.11800000E+01           0.68647266E+00
   0.11900000E+01           0.67820469E+00
   0.12000000E+01           0.66866953E+00
   0.12100000E+01           0.65915039E+00
   0.12200000E+01           0.65024922E+00
   0.12300000E+01           0.64147402E+00
   0.12400000E+01           0.63259277E+00
   0.12500000E+01           0.62384531E+00
   0.12600000E+01           0.61513477E+00
   0.12700000E+01           0.60555039E+00
   0.12800000E+01           0.59582578E+00
   0.12900000E+01           0.58627891E+00
   0.13000000E+01           0.57741855E+00
   0.13100000E+01           0.56789531E+00
   0.13200000E+01           0.55899961E+00
   0.13300000E+01           0.54945527E+00
   0.13400000E+01           0.53993672E+00
   0.13500000E+01           0.53073555E+00
   0.13600000E+01           0.52072793E+00
   0.13700000E+01           0.51186465E+00
   0.13800000E+01           0.50302520E+00
   0.13900000E+01           0.49445195E+00
   0.14000000E+01           0.48474414E+00
   0.14100000E+01           0.47574961E+00
   0.14200000E+01           0.46666191E+00
   0.14300000E+01           0.45790156E+00
   0.14400000E+01           0.44876680E+00
   0.14500000E+01           0.44037969E+00
   0.14600000E+01           0.43170020E+00
   0.14700000E+01           0.42276777E+00
   0.14800000E+01           0.41368711E+00
   0.14900000E+01           0.40570625E+00
   0.15000000E+01           0.39712656E+00
   0.15100000E+01           0.38853965E+00
   0.15200000E+01           0.38072285E+00
   0.15300000E+01           0.37237793E+00
   0.15400000E+01           0.36387227E+00
   0.15500000E+01           0.35582598E+00
   0.15600000E+01           0.34769395E+00
   0.15700000E+01           0.33995645E+00
   0.15800000E+01           0.33228184E+00
   0.15900000E+01           0.32469277E+00
   0.16000000E+01           0.31712480E+00
   0.16100000E+01           0.30944531E+00
   0.16200000E+01           0.30188223E+00
   0.16300000E+01           0.29483437E+00
   0.16400000E+01           0.28799297E+00
   0.16500000E+01           0.28089414E+00
   0.16600000E+01           0.27415527E+00
   0.16700000E+01           0.26706582E+00
   0.16800000E+01           0.26053418E+00
   0.16900000E+01           0.25369121E+00
   0.17000000E+01           0.24721309E+00
   0.17100000E+01           0.24086641E+00
   0.17200000E+01           0.23438184E+00
   0.17300000E+01           0.22782500E+00
   0.17400000E+01           0.22237891E+00
   0.17500000E+01           0.21617734E+00
   0.17600000E+01           0.21098965E+00
   0.17700000E+01           0.20488672E+00
   0.17800000E+01           0.19923535E+00
   0.17900000E+01           0.19410625E+00
   0.18000000E+01           0.18836953E+00
   0.18100000E+01           0.18304023E+00
   0.18200000E+01           0.17744082E+00
   0.18300000E+01           0.17293203E+00
   0.18400000E+01           0.16766660E+00
   0.18500000E+01           0.16279687E+00
   0.18600000E+01           0.15803105E+00
   0.18700000E+01           0.15329277E+00
   0.18800000E+01           0.14867539E+00
   0.18900000E+01           0.14466582E+00
   0.19000000E+01           0.14045859E+00
   0.19100000E+01           0.13552773E+00
   0.19200000E+01           0.13156875E+00
   0.19300000E+01           0.12761328E+00
   0.19400000E+01           0.12375898E+00
   0.19500000E+01           0.12002734E+00
   0.19600000E+01           0.11598164E+00
   0.19700000E+01           0.11229062E+00
   0.19800000E+01           0.10863535E+00
   0.19900000E+01           0.10519238E+00
   0.20000000E+01           0.10185469E+00
   0.20100000E+01           0.98181055E-01
   0.20200000E+01           0.95137109E-01
   0.20300000E+01           0.91704297E-01
   0.20400000E+01           0.88788281E-01
   0.20500000E+01           0.85735156E-01
   0.20600000E+01           0.82925586E-01
   0.20700000E+01           0.80307812E-01
   0.20800000E+01           0.77185547E-01
   0.20900000E+01           0.74596289E-01
   0.21000000E+01           0.71910547E-01
   0.21100000E+01           0.69941992E-01
   0.21200000E+01           0.67131836E-01
   0.21300000E+01           0.64913281E-01
   0.21400000E+01           0.62545898E-01
   0.21500000E+01           0.60106836E-01
   0.21600000E+01           0.57816992E-01
   0.21700000E+01           0.55986719E-01
   0.21800000E+01           0.53875000E-01
   0.21900000E+01           0.52003711E-01
   0.22000000E+01           0.50106836E-01
   0.22100000E+01           0.48152344E-01
   0.22200000E+01           0.46300586E-01
   0.22300000E+01           0.44630664E-01
   0.22400000E+01           0.43012109E-01
   0.22500000E+01           0.41348828E-01
   0.22600000E+01           0.39740234E-01
   0.22700000E+01           0.38099805E-01
   0.22800000E+01           0.36594141E-01
   0.22900000E+01           0.35322070E-01
   0.23000000E+01           0.33853320E-01
   0.23100000E+01           0.32533984E-01
   0.23200000E+01           0.31346094E-01
   0.23300000E+01           0.29996289E-01
   0.23400000E+01           0.28924414E-01
   0.23500000E+01           0.27657617E-01
   0.23600000E+01           0.26551953E-01
   0.23700000E+01           0.25433008E-01
   0.23800000E+01           0.24403516E-01
   0.23900000E+01           0.23468555E-01
   0.24000000E+01           0.22474414E-01
   0.24100000E+01           0.21415430E-01
   0.24200000E+01           0.20579492E-01
   0.24300000E+01           0.19781836E-01
   0.24400000E+01           0.18978516E-01
   0.24500000E+01           0.18100000E-01
   0.24600000E+01           0.17313281E-01
   0.24700000E+01           0.16576953E-01
   0.24800000E+01           0.15725000E-01
   0.24900000E+01           0.15197656E-01
   0.25000000E+01           0.14466406E-01
   0.25100000E+01           0.13873633E-01
   0.25200000E+01           0.13315820E-01
   0.25300000E+01           0.12722461E-01
   0.25400000E+01           0.12120312E-01
   0.25500000E+01           0.11561133E-01
   0.25600000E+01           0.11047070E-01
   0.25700000E+01           0.10488867E-01
   0.25800000E+01           0.99683594E-02
   0.25900000E+01           0.95865234E-02
   0.26000000E+01           0.91423828E-02
   0.26100000E+01           0.86607422E-02
   0.26200000E+01           0.83361328E-02
   0.26300000E+01           0.79167969E-02
   0.26400000E+01           0.75685547E-02
   0.26500000E+01           0.72072266E-02
   0.26600000E+01           0.68632812E-02
   0.26700000E+01           0.65169922E-02
   0.26800000E+01           0.61869141E-02
   0.26900000E+01           0.59191406E-02
   0.27000000E+01           0.56169922E-02
   0.27100000E+01           0.53228516E-02
   0.27200000E+01           0.50535156E-02
   0.27300000E+01           0.47982422E-02
   0.27400000E+01           0.45937500E-02
   0.27500000E+01           0.43150391E-02
   0.27600000E+01           0.40962891E-02
   0.27700000E+01           0.38832031E-02
   0.27800000E+01           0.37062500E-02
   0.27900000E+01           0.35671875E-02
   0.28000000E+01           0.32974609E-02
   0.28100000E+01           0.31416016E-02
   0.28200000E+01           0.29736328E-02
   0.28300000E+01           0.28802734E-02
   0.28400000E+01           0.26285156E-02
   0.28500000E+01           0.25423828E-02
   0.28600000E+01           0.24025391E-02
   0.28700000E+01           0.22763672E-02
   0.28800000E+01           0.21654297E-02
   0.28900000E+01           0.20658203E-02
   0.29000000E+01           0.19322266E-02
   0.29100000E+01           0.18103516E-02
   0.29200000E+01           0.17402344E-02
   0.29300000E+01           0.16183594E-02
   0.29400000E+01           0.15654297E-02
   0.29500000E+01           0.14720703E-02
   0.29600000E+01           0.13744141E-02
   0.29700000E+01           0.12917969E-02
   0.29800000E+01           0.12277344E-02
   0.29900000E+01           0.11404297E-02
   0.30000000E+01           0.10990234E-02
   0.30100000E+01           0.10089844E-02
   0.30200000E+01           0.96367188E-03
   0.30300000E+01           0.89101562E-03
   0.30400000E+01           0.83437500E-03
   0.30500000E+01           0.77656250E-03
   0.30600000E+01           0.75312500E-03
   0.30700000E+01           0.69921875E-03
   0.30800000E+01           0.64082031E-03
   0.30900000E+01           0.62363281E-03
   0.31000000E+01           0.56972656E-03
   0.31100000E+01           0.54746094E-03
   0.31200000E+01           0.50839844E-03
   0.31300000E+01           0.47402344E-03
   0.31400000E+01           0.46210937E-03
   0.31500000E+01           0.42480469E-03
   0.31600000E+01           0.38203125E-03
   0.31700000E+01           0.38027344E-03
   0.31800000E+01           0.36035156E-03
   0.31900000E+01           0.31835938E-03
   0.32000000E+01           0.30957031E-03
   0.32100000E+01           0.28613281E-03
   0.32200000E+01           0.27109375E-03
   0.32300000E+01           0.24257812E-03
   0.32400000E+01           0.22402344E-03
   0.32500000E+01           0.20097656E-03
   0.32600000E+01           0.19199219E-03
   0.32700000E+01           0.18125000E-03
   0.32800000E+01           0.16484375E-03
   0.32900000E+01           0.15546875E-03
   0.33000000E+01           0.14882812E-03
   0.33100000E+01           0.12753906E-03
   0.33200000E+01           0.11738281E-03
   0.33300000E+01           0.11914062E-03
   0.33400000E+01           0.10683594E-03
   0.33500000E+01           0.99609375E-04
   0.33600000E+01           0.87890625E-04
   0.33700000E+01           0.98632812E-04
   0.33800000E+01           0.83593750E-04
   0.33900000E+01           0.73437500E-04
   0.34000000E+01           0.73046875E-04
   0.34100000E+01           0.64257812E-04
   0.34200000E+01           0.59570312E-04
   0.34300000E+01           0.59960937E-04
   0.34400000E+01           0.51757812E-04
   0.34500000E+01           0.39843750E-04
   0.34600000E+01           0.40039062E-04
   0.34700000E+01           0.38867187E-04
   0.34800000E+01           0.31054688E-04
   0.34900000E+01           0.31445312E-04
   0.35000000E+01           0.30468750E-04
   0.35100000E+01           0.30859375E-04
   0.35200000E+01           0.23046875E-04
   0.35300000E+01           0.22070312E-04
   0.35400000E+01           0.18750000E-04
   0.35500000E+01           0.17382812E-04
   0.35600000E+01           0.17578125E-04
   0.35700000E+01           0.15429687E-04
   0.35800000E+01           0.15039062E-04
   0.35900000E+01           0.15625000E-04
   0.36000000E+01           0.12890625E-04
   0.36100000E+01           0.93750000E-05
   0.36200000E+01           0.93750000E-05
   0.36300000E+01           0.76171875E-05
   0.36400000E+01           0.64453125E-05
   0.36500000E+01           0.72265625E-05
   0.36600000E+01           0.64453125E-05
   0.36700000E+01           0.58593750E-05
   0.36800000E+01           0.52734375E-05
   0.36900000E+01           0.27343750E-05
   0.37000000E+01           0.37109375E-05
   0.37100000E+01           0.33203125E-05
   0.37200000E+01           0.44921875E-05
   0.37300000E+01           0.29296875E-05
   0.37400000E+01           0.27343750E-05
   0.37500000E+01           0.13671875E-05
   0.37600000E+01           0.21484375E-05
   0.37700000E+01           0.15625000E-05
   0.37800000E+01           0.17578125E-05
   0.37900000E+01           0.15625000E-05
   0.38000000E+01           0.58593750E-06
   0.38100000E+01           0.97656250E-06
   0.38200000E+01           0.97656250E-06
   0.38300000E+01           0.78125000E-06
   0.38400000E+01           0.39062500E-06
   0.38500000E+01           0.58593750E-06
   0.38600000E+01           0.00000000E+00
   0.38700000E+01           0.19531250E-06
   0.38800000E+01           0.39062500E-06
   0.38900000E+01           0.00000000E+00
   0.39000000E+01           0.00000000E+00
   0.39100000E+01           0.19531250E-06
   0.39200000E+01           0.19531250E-06
   0.39300000E+01           0.19531250E-06
   0.39400000E+01           0.19531250E-06
   0.39500000E+01           0.00000000E+00
   0.39600000E+01           0.00000000E+00
   0.39700000E+01           0.00000000E+00
   0.39800000E+01           0.00000000E+00
   0.39900000E+01           0.00000000E+00
   0.40000000E+01           0.00000000E+00
 #T=   157.0000
  -0.40000000E+01           0.00000000E+00
  -0.39900000E+01           0.00000000E+00
  -0.39800000E+01           0.00000000E+00
  -0.39700000E+01           0.00000000E+00
  -0.39600000E+01           0.00000000E+00
  -0.39500000E+01           0.00000000E+00
  -0.39400000E+01           0.00000000E+00
  -0.39300000E+01           0.00000000E+00
  -0.39200000E+01           0.00000000E+00
  -0.39100000E+01           0.00000000E+00
  -0.39000000E+01           0.00000000E+00
  -0.38900000E+01           0.00000000E+00
  -0.38800000E+01           0.00000000E+00
  -0.38700000E+01           0.00000000E+00
  -0.38600000E+01           0.00000000E+00
  -0.38500000E+01           0.00000000E+00
  -0.38400000E+01           0.00000000E+00
  -0.38300000E+01           0.00000000E+00
  -0.38200000E+01           0.00000000E+00
  -0.38100000E+01           0.00000000E+00
  -0.38000000E+01           0.00000000E+00
  -0.37900000E+01           0.00000000E+00
  -0.37800000E+01           0.00000000E+00
  -0.37700000E+01           0.00000000E+00
  -0.37600000E+01           0.00000000E+00
  -0.37500000E+01           0.00000000E+00
  -0.37400000E+01           0.00000000E+00
  -0.37300000E+01           0.00000000E+00
  -0.37200000E+01           0.00000000E+00
  -0.37100000E+01           0.00000000E+00
  -0.37000000E+01           0.00000000E+00
  -0.36900000E+01           0.00000000E+00
  -0.36800000E+01           0.00000000E+00
  -0.36700000E+01           0.00000000E+00
  -0.36600000E+01           0.00000000E+00
  -0.36500000E+01           0.00000000E+00
  -0.36400000E+01           0.00000000E+00
  -0.36300000E+01           0.00000000E+00
  -0.36200000E+01           0.00000000E+00
  -0.36100000E+01           0.00000000E+00
  -0.36000000E+01           0.00000000E+00
  -0.35900000E+01           0.00000000E+00
  -0.35800000E+01           0.00000000E+00
  -0.35700000E+01           0.00000000E+00
  -0.35600000E+01           0.00000000E+00
  -0.35500000E+01           0.00000000E+00
  -0.35400000E+01           0.00000000E+00
  -0.35300000E+01           0.00000000E+00
  -0.35200000E+01           0.00000000E+00
  -0.35100000E+01           0.00000000E+00
  -0.35000000E+01           0.00000000E+00
  -0.34900000E+01           0.00000000E+00
  -0.34800000E+01           0.00000000E+00
  -0.34700000E+01           0.00000000E+00
  -0.34600000E+01           0.00000000E+00
  -0.34500000E+01           0.00000000E+00
  -0.34400000E+01           0.00000000E+00
  -0.34300000E+01           0.00000000E+00
  -0.34200000E+01           0.00000000E+00
  -0.34100000E+01           0.00000000E+00
  -0.34000000E+01           0.00000000E+00
  -0.33900000E+01           0.00000000E+00
  -0.33800000E+01           0.00000000E+00
  -0.33700000E+01           0.00000000E+00
  -0.33600000E+01           0.00000000E+00
  -0.33500000E+01           0.00000000E+00
  -0.33400000E+01           0.00000000E+00
  -0.33300000E+01           0.00000000E+00
  -0.33200000E+01           0.00000000E+00
  -0.33100000E+01           0.00000000E+00
  -0.33000000E+01           0.00000000E+00
  -0.32900000E+01           0.00000000E+00
  -0.32800000E+01           0.00000000E+00
  -0.32700000E+01           0.00000000E+00
  -0.32600000E+01           0.00000000E+00
  -0.32500000E+01           0.00000000E+00
  -0.32400000E+01           0.00000000E+00
  -0.32300000E+01           0.00000000E+00
  -0.32200000E+01           0.00000000E+00
  -0.32100000E+01           0.00000000E+00
  -0.32000000E+01           0.00000000E+00
  -0.31900000E+01           0.00000000E+00
  -0.31800000E+01           0.00000000E+00
  -0.31700000E+01           0.00000000E+00
  -0.31600000E+01           0.00000000E+00
  -0.31500000E+01           0.00000000E+00
  -0.31400000E+01           0.00000000E+00
  -0.31300000E+01           0.00000000E+00
  -0.31200000E+01           0.00000000E+00
  -0.31100000E+01           0.00000000E+00
  -0.31000000E+01           0.00000000E+00
  -0.30900000E+01           0.00000000E+00
  -0.30800000E+01           0.00000000E+00
  -0.30700000E+01           0.00000000E+00
  -0.30600000E+01           0.00000000E+00
  -0.30500000E+01           0.00000000E+00
  -0.30400000E+01           0.00000000E+00
  -0.30300000E+01           0.00000000E+00
  -0.30200000E+01           0.00000000E+00
  -0.30100000E+01           0.00000000E+00
  -0.30000000E+01           0.00000000E+00
  -0.29900000E+01           0.00000000E+00
  -0.29800000E+01           0.00000000E+00
  -0.29700000E+01           0.00000000E+00
  -0.29600000E+01           0.00000000E+00
  -0.29500000E+01           0.00000000E+00
  -0.29400000E+01           0.00000000E+00
  -0.29300000E+01           0.00000000E+00
  -0.29200000E+01           0.00000000E+00
  -0.29100000E+01           0.00000000E+00
  -0.29000000E+01           0.00000000E+00
  -0.28900000E+01           0.00000000E+00
  -0.28800000E+01           0.00000000E+00
  -0.28700000E+01           0.00000000E+00
  -0.28600000E+01           0.00000000E+00
  -0.28500000E+01           0.00000000E+00
  -0.28400000E+01           0.00000000E+00
  -0.28300000E+01           0.00000000E+00
  -0.28200000E+01           0.00000000E+00
  -0.28100000E+01           0.00000000E+00
  -0.28000000E+01           0.00000000E+00
  -0.27900000E+01           0.00000000E+00
  -0.27800000E+01           0.00000000E+00
  -0.27700000E+01           0.00000000E+00
  -0.27600000E+01           0.00000000E+00
  -0.27500000E+01           0.00000000E+00
  -0.27400000E+01           0.00000000E+00
  -0.27300000E+01           0.00000000E+00
  -0.27200000E+01           0.00000000E+00
  -0.27100000E+01           0.00000000E+00
  -0.27000000E+01           0.00000000E+00
  -0.26900000E+01           0.00000000E+00
  -0.26800000E+01           0.00000000E+00
  -0.26700000E+01           0.00000000E+00
  -0.26600000E+01           0.00000000E+00
  -0.26500000E+01           0.00000000E+00
  -0.26400000E+01           0.00000000E+00
  -0.26300000E+01           0.00000000E+00
  -0.26200000E+01           0.00000000E+00
  -0.26100000E+01           0.00000000E+00
  -0.26000000E+01           0.00000000E+00
  -0.25900000E+01           0.00000000E+00
  -0.25800000E+01           0.00000000E+00
  -0.25700000E+01           0.00000000E+00
  -0.25600000E+01           0.00000000E+00
  -0.25500000E+01           0.00000000E+00
  -0.25400000E+01           0.00000000E+00
  -0.25300000E+01           0.00000000E+00
  -0.25200000E+01           0.00000000E+00
  -0.25100000E+01           0.00000000E+00
  -0.25000000E+01           0.00000000E+00
  -0.24900000E+01           0.00000000E+00
  -0.24800000E+01           0.00000000E+00
  -0.24700000E+01           0.00000000E+00
  -0.24600000E+01           0.00000000E+00
  -0.24500000E+01           0.00000000E+00
  -0.24400000E+01           0.00000000E+00
  -0.24300000E+01           0.00000000E+00
  -0.24200000E+01           0.00000000E+00
  -0.24100000E+01           0.00000000E+00
  -0.24000000E+01           0.00000000E+00
  -0.23900000E+01           0.00000000E+00
  -0.23800000E+01           0.00000000E+00
  -0.23700000E+01           0.00000000E+00
  -0.23600000E+01           0.00000000E+00
  -0.23500000E+01           0.00000000E+00
  -0.23400000E+01           0.00000000E+00
  -0.23300000E+01           0.00000000E+00
  -0.23200000E+01           0.00000000E+00
  -0.23100000E+01           0.00000000E+00
  -0.23000000E+01           0.00000000E+00
  -0.22900000E+01           0.00000000E+00
  -0.22800000E+01           0.00000000E+00
  -0.22700000E+01           0.00000000E+00
  -0.22600000E+01           0.00000000E+00
  -0.22500000E+01           0.00000000E+00
  -0.22400000E+01           0.00000000E+00
  -0.22300000E+01           0.00000000E+00
  -0.22200000E+01           0.00000000E+00
  -0.22100000E+01           0.00000000E+00
  -0.22000000E+01           0.00000000E+00
  -0.21900000E+01           0.00000000E+00
  -0.21800000E+01           0.00000000E+00
  -0.21700000E+01           0.00000000E+00
  -0.21600000E+01           0.00000000E+00
  -0.21500000E+01           0.00000000E+00
  -0.21400000E+01           0.00000000E+00
  -0.21300000E+01           0.00000000E+00
  -0.21200000E+01           0.00000000E+00
  -0.21100000E+01           0.00000000E+00
  -0.21000000E+01           0.00000000E+00
  -0.20900000E+01           0.00000000E+00
  -0.20800000E+01           0.00000000E+00
  -0.20700000E+01           0.00000000E+00
  -0.20600000E+01           0.00000000E+00
  -0.20500000E+01           0.00000000E+00
  -0.20400000E+01           0.00000000E+00
  -0.20300000E+01           0.00000000E+00
  -0.20200000E+01           0.00000000E+00
  -0.20100000E+01           0.00000000E+00
  -0.20000000E+01           0.00000000E+00
  -0.19900000E+01           0.00000000E+00
  -0.19800000E+01           0.00000000E+00
  -0.19700000E+01           0.00000000E+00
  -0.19600000E+01           0.00000000E+00
  -0.19500000E+01           0.00000000E+00
  -0.19400000E+01           0.00000000E+00
  -0.19300000E+01           0.00000000E+00
  -0.19200000E+01           0.00000000E+00
  -0.19100000E+01           0.00000000E+00
  -0.19000000E+01           0.00000000E+00
  -0.18900000E+01           0.00000000E+00
  -0.18800000E+01           0.00000000E+00
  -0.18700000E+01           0.00000000E+00
  -0.18600000E+01           0.00000000E+00
  -0.18500000E+01           0.00000000E+00
  -0.18400000E+01           0.00000000E+00
  -0.18300000E+01           0.00000000E+00
  -0.18200000E+01           0.00000000E+00
  -0.18100000E+01           0.00000000E+00
  -0.18000000E+01           0.00000000E+00
  -0.17900000E+01           0.00000000E+00
  -0.17800000E+01           0.00000000E+00
  -0.17700000E+01           0.00000000E+00
  -0.17600000E+01           0.00000000E+00
  -0.17500000E+01           0.00000000E+00
  -0.17400000E+01           0.00000000E+00
  -0.17300000E+01           0.00000000E+00
  -0.17200000E+01           0.00000000E+00
  -0.17100000E+01           0.00000000E+00
  -0.17000000E+01           0.00000000E+00
  -0.16900000E+01           0.00000000E+00
  -0.16800000E+01           0.00000000E+00
  -0.16700000E+01           0.00000000E+00
  -0.16600000E+01           0.00000000E+00
  -0.16500000E+01           0.00000000E+00
  -0.16400000E+01           0.00000000E+00
  -0.16300000E+01           0.00000000E+00
  -0.16200000E+01           0.00000000E+00
  -0.16100000E+01           0.00000000E+00
  -0.16000000E+01           0.00000000E+00
  -0.15900000E+01           0.00000000E+00
  -0.15800000E+01           0.00000000E+00
  -0.15700000E+01           0.00000000E+00
  -0.15600000E+01           0.00000000E+00
  -0.15500000E+01           0.00000000E+00
  -0.15400000E+01           0.00000000E+00
  -0.15300000E+01           0.00000000E+00
  -0.15200000E+01           0.00000000E+00
  -0.15100000E+01           0.00000000E+00
  -0.15000000E+01           0.00000000E+00
  -0.14900000E+01           0.00000000E+00
[...]
  -0.64000000E+00           0.00000000E+00
  -0.63000000E+00           0.00000000E+00
  -0.62000000E+00           0.00000000E+00
  -0.61000000E+00           0.00000000E+00
  -0.60000000E+00           0.00000000E+00
  -0.59000000E+00           0.00000000E+00
  -0.58000000E+00           0.00000000E+00
  -0.57000000E+00           0.00000000E+00
  -0.56000000E+00           0.00000000E+00
  -0.55000000E+00           0.00000000E+00
  -0.54000000E+00           0.00000000E+00
  -0.53000000E+00           0.00000000E+00
  -0.52000000E+00           0.00000000E+00
  -0.51000000E+00           0.00000000E+00
  -0.50000000E+00           0.00000000E+00
  -0.49000000E+00           0.00000000E+00
  -0.48000000E+00           0.00000000E+00
  -0.47000000E+00           0.00000000E+00
  -0.46000000E+00           0.00000000E+00
  -0.45000000E+00           0.00000000E+00
  -0.44000000E+00           0.00000000E+00
  -0.43000000E+00           0.00000000E+00
  -0.42000000E+00           0.00000000E+00
  -0.41000000E+00           0.00000000E+00
  -0.40000000E+00           0.00000000E+00
  -0.39000000E+00           0.00000000E+00
  -0.38000000E+00           0.00000000E+00
  -0.37000000E+00           0.00000000E+00
  -0.36000000E+00           0.00000000E+00
  -0.35000000E+00           0.00000000E+00
  -0.34000000E+00           0.00000000E+00
  -0.33000000E+00           0.00000000E+00
  -0.32000000E+00           0.00000000E+00
  -0.31000000E+00           0.00000000E+00
  -0.30000000E+00           0.00000000E+00
  -0.29000000E+00           0.00000000E+00
  -0.28000000E+00           0.00000000E+00
  -0.27000000E+00           0.00000000E+00
  -0.26000000E+00           0.00000000E+00
  -0.25000000E+00           0.00000000E+00
  -0.24000000E+00           0.00000000E+00
  -0.23000000E+00           0.00000000E+00
  -0.22000000E+00           0.00000000E+00
  -0.21000000E+00           0.00000000E+00
  -0.20000000E+00           0.00000000E+00
  -0.19000000E+00           0.00000000E+00
  -0.18000000E+00           0.00000000E+00
  -0.17000000E+00           0.00000000E+00
  -0.16000000E+00           0.00000000E+00
  -0.15000000E+00           0.00000000E+00
  -0.14000000E+00           0.00000000E+00
  -0.13000000E+00           0.00000000E+00
  -0.12000000E+00           0.00000000E+00
  -0.11000000E+00           0.00000000E+00
  -0.10000000E+00           0.00000000E+00
  -0.90000000E-01           0.00000000E+00
  -0.80000000E-01           0.00000000E+00
  -0.70000000E-01           0.00000000E+00
  -0.60000000E-01           0.00000000E+00
  -0.50000000E-01           0.00000000E+00
  -0.40000000E-01           0.00000000E+00
  -0.30000000E-01           0.00000000E+00
  -0.20000000E-01           0.00000000E+00
  -0.10000000E-01           0.00000000E+00
   0.00000000E+00           0.87890625E-05
   0.10000000E-01           0.24765625E-03
   0.20000000E-01           0.90195312E-03
   0.30000000E-01           0.19818359E-02
   0.40000000E-01           0.34226562E-02
   0.50000000E-01           0.53042969E-02
   0.60000000E-01           0.75968750E-02
   0.70000000E-01           0.10185742E-01
   0.80000000E-01           0.13272266E-01
   0.90000000E-01           0.16599609E-01
   0.10000000E+00           0.20184961E-01
   0.11000000E+00           0.24512109E-01
   0.12000000E+00           0.28766797E-01
   0.13000000E+00           0.33441797E-01
   0.14000000E+00           0.38476953E-01
   0.15000000E+00           0.43766797E-01
   0.16000000E+00           0.49432031E-01
   0.17000000E+00           0.55256250E-01
   0.18000000E+00           0.61418164E-01
   0.19000000E+00           0.67653516E-01
   0.20000000E+00           0.74480469E-01
   0.21000000E+00           0.81167188E-01
   0.22000000E+00           0.88533203E-01
   0.23000000E+00           0.95890039E-01
   0.24000000E+00           0.10337070E+00
   0.25000000E+00           0.11090215E+00
   0.26000000E+00           0.11906934E+00
   0.27000000E+00           0.12687871E+00
   0.28000000E+00           0.13496387E+00
   0.29000000E+00           0.14350312E+00
   0.30000000E+00           0.15214863E+00
   0.31000000E+00           0.16083418E+00
   0.32000000E+00           0.16963477E+00
   0.33000000E+00           0.17870762E+00
   0.34000000E+00           0.18741758E+00
   0.35000000E+00           0.19621680E+00
   0.36000000E+00           0.20615762E+00
   0.37000000E+00           0.21512734E+00
   0.38000000E+00           0.22450449E+00
   0.39000000E+00           0.23382324E+00
   0.40000000E+00           0.24342754E+00
   0.41000000E+00           0.25268691E+00
   0.42000000E+00           0.26282578E+00
   0.43000000E+00           0.27238477E+00
   0.44000000E+00           0.28135078E+00
   0.45000000E+00           0.29163906E+00
   0.46000000E+00           0.30047109E+00
   0.47000000E+00           0.31048320E+00
   0.48000000E+00           0.31963809E+00
   0.49000000E+00           0.32931953E+00
   0.50000000E+00           0.33941602E+00
   0.51000000E+00           0.34892930E+00
   0.52000000E+00           0.35817500E+00
   0.53000000E+00           0.36747559E+00
   0.54000000E+00           0.37693027E+00
   0.55000000E+00           0.38584785E+00
   0.56000000E+00           0.39548086E+00
   0.57000000E+00           0.40408789E+00
   0.58000000E+00           0.41354043E+00
   0.59000000E+00           0.42251152E+00
   0.60000000E+00           0.43082539E+00
   0.61000000E+00           0.44028750E+00
   0.62000000E+00           0.44899512E+00
   0.63000000E+00           0.45780996E+00
   0.64000000E+00           0.46618047E+00
   0.65000000E+00           0.47405859E+00
   0.66000000E+00           0.48234512E+00
   0.67000000E+00           0.49057715E+00
   0.68000000E+00           0.49852031E+00
   0.69000000E+00           0.50647539E+00
   0.70000000E+00           0.51445078E+00
   0.71000000E+00           0.52114980E+00
   0.72000000E+00           0.52812754E+00
   0.73000000E+00           0.53624961E+00
   0.74000000E+00           0.54323203E+00
   0.75000000E+00           0.55004883E+00
   0.76000000E+00           0.55724922E+00
   0.77000000E+00           0.56343145E+00
   0.78000000E+00           0.56977070E+00
   0.79000000E+00           0.57606992E+00
   0.80000000E+00           0.58235273E+00
   0.81000000E+00           0.58910820E+00
   0.82000000E+00           0.59340586E+00
   0.83000000E+00           0.59949844E+00
   0.84000000E+00           0.60512246E+00
   0.85000000E+00           0.61056367E+00
   0.86000000E+00           0.61491445E+00
   0.87000000E+00           0.62031641E+00
   0.88000000E+00           0.62514707E+00
   0.89000000E+00           0.62939375E+00
   0.90000000E+00           0.63337871E+00
   0.91000000E+00           0.63678770E+00
   0.92000000E+00           0.64126113E+00
   0.93000000E+00           0.64573262E+00
   0.94000000E+00           0.64830742E+00
   0.95000000E+00           0.65195703E+00
   0.96000000E+00           0.65499453E+00
   0.97000000E+00           0.65785527E+00
   0.98000000E+00           0.66088437E+00
   0.99000000E+00           0.66405176E+00
   0.10000000E+01           0.66541367E+00
   0.10100000E+01           0.66739316E+00
   0.10200000E+01           0.67034766E+00
   0.10300000E+01           0.67204258E+00
   0.10400000E+01           0.67356465E+00
   0.10500000E+01           0.67429199E+00
   0.10600000E+01           0.67595957E+00
   0.10700000E+01           0.67693145E+00
   0.10800000E+01           0.67779766E+00
   0.10900000E+01           0.67885605E+00
   0.11000000E+01           0.67993828E+00
   0.11100000E+01           0.67956660E+00
   0.11200000E+01           0.68041094E+00
   0.11300000E+01           0.68014375E+00
   0.11400000E+01           0.68032227E+00
   0.11500000E+01           0.67969258E+00
   0.11600000E+01           0.67857129E+00
   0.11700000E+01           0.67785840E+00
   0.11800000E+01           0.67756738E+00
   0.11900000E+01           0.67692832E+00
   0.12000000E+01           0.67518262E+00
   0.12100000E+01           0.67377109E+00
   0.12200000E+01           0.67197559E+00
   0.12300000E+01           0.66965723E+00
   0.12400000E+01           0.66898203E+00
   0.12500000E+01           0.66718516E+00
   0.12600000E+01           0.66393789E+00
   0.12700000E+01           0.66248652E+00
   0.12800000E+01           0.66060312E+00
   0.12900000E+01           0.65762852E+00
   0.13000000E+01           0.65505957E+00
   0.13100000E+01           0.65149375E+00
   0.13200000E+01           0.64982031E+00
   0.13300000E+01           0.64680352E+00
   0.13400000E+01           0.64412187E+00
   0.13500000E+01           0.64058613E+00
   0.13600000E+01           0.63657949E+00
   0.13700000E+01           0.63378809E+00
   0.13800000E+01           0.62951543E+00
   0.13900000E+01           0.62599961E+00
   0.14000000E+01           0.62270879E+00
   0.14100000E+01           0.61791914E+00
   0.14200000E+01           0.61481465E+00
   0.14300000E+01           0.61048105E+00
   0.14400000E+01           0.60568691E+00
   0.14500000E+01           0.60207031E+00
   0.14600000E+01           0.59790918E+00
   0.14700000E+01           0.59315801E+00
   0.14800000E+01           0.58788711E+00
   0.14900000E+01           0.58369980E+00
   0.15000000E+01           0.57862734E+00
   0.15100000E+01           0.57405508E+00
   0.15200000E+01           0.56941562E+00
   0.15300000E+01           0.56460781E+00
   0.15400000E+01           0.55950059E+00
   0.15500000E+01           0.55455645E+00
   0.15600000E+01           0.54899004E+00
   0.15700000E+01           0.54348398E+00
   0.15800000E+01           0.53852402E+00
   0.15900000E+01           0.53330781E+00
   0.16000000E+01           0.52767539E+00
   0.16100000E+01           0.52285684E+00
   0.16200000E+01           0.51698613E+00
   0.16300000E+01           0.51112051E+00
   0.16400000E+01           0.50609688E+00
   0.16500000E+01           0.50006426E+00
   0.16600000E+01           0.49460332E+00
   0.16700000E+01           0.48887129E+00
   0.16800000E+01           0.48330527E+00
   0.16900000E+01           0.47760527E+00
   0.17000000E+01           0.47205684E+00
   0.17100000E+01           0.46594609E+00
   0.17200000E+01           0.46034199E+00
   0.17300000E+01           0.45439805E+00
   0.17400000E+01           0.44880020E+00
   0.17500000E+01           0.44339082E+00
   0.17600000E+01           0.43692852E+00
   0.17700000E+01           0.43106211E+00
   0.17800000E+01           0.42484805E+00
   0.17900000E+01           0.41911973E+00
   0.18000000E+01           0.41403496E+00
   0.18100000E+01           0.40766797E+00
   0.18200000E+01           0.40162480E+00
   0.18300000E+01           0.39560469E+00
   0.18400000E+01           0.39018379E+00
   0.18500000E+01           0.38397656E+00
   0.18600000E+01           0.37773496E+00
   0.18700000E+01           0.37185020E+00
   0.18800000E+01           0.36635430E+00
   0.18900000E+01           0.36077773E+00
   0.19000000E+01           0.35506094E+00
   0.19100000E+01           0.34848633E+00
   0.19200000E+01           0.34296836E+00
   0.19300000E+01           0.33732910E+00
   0.19400000E+01           0.33130820E+00
   0.19500000E+01           0.32590469E+00
   0.19600000E+01           0.32031016E+00
   0.19700000E+01           0.31420156E+00
   0.19800000E+01           0.30876973E+00
   0.19900000E+01           0.30321133E+00
   0.20000000E+01           0.29730664E+00
   0.20100000E+01           0.29166016E+00
   0.20200000E+01           0.28595039E+00
   0.20300000E+01           0.28078008E+00
   0.20400000E+01           0.27520332E+00
   0.20500000E+01           0.26977598E+00
   0.20600000E+01           0.26440430E+00
   0.20700000E+01           0.25949551E+00
   0.20800000E+01           0.25416680E+00
   0.20900000E+01           0.24898516E+00
   0.21000000E+01           0.24427715E+00
   0.21100000E+01           0.23870625E+00
   0.21200000E+01           0.23427148E+00
   0.21300000E+01           0.22947617E+00
   0.21400000E+01           0.22465840E+00
   0.21500000E+01           0.22004590E+00
   0.21600000E+01           0.21541406E+00
   0.21700000E+01           0.21105352E+00
   0.21800000E+01           0.20632129E+00
   0.21900000E+01           0.20188574E+00
   0.22000000E+01           0.19735352E+00
   0.22100000E+01           0.19328301E+00
   0.22200000E+01           0.18934590E+00
   0.22300000E+01           0.18491426E+00
   0.22400000E+01           0.18070059E+00
   0.22500000E+01           0.17682539E+00
   0.22600000E+01           0.17323965E+00
   0.22700000E+01           0.16901172E+00
   0.22800000E+01           0.16506191E+00
   0.22900000E+01           0.16163027E+00
   0.23000000E+01           0.15753730E+00
   0.23100000E+01           0.15372891E+00
   0.23200000E+01           0.15025840E+00
   0.23300000E+01           0.14689531E+00
   0.23400000E+01           0.14308652E+00
   0.23500000E+01           0.13969766E+00
   0.23600000E+01           0.13680449E+00
   0.23700000E+01           0.13290293E+00
   0.23800000E+01           0.13016133E+00
   0.23900000E+01           0.12702559E+00
   0.24000000E+01           0.12393672E+00
   0.24100000E+01           0.12050898E+00
   0.24200000E+01           0.11753203E+00
   0.24300000E+01           0.11465469E+00
   0.24400000E+01           0.11168125E+00
   0.24500000E+01           0.10880488E+00
   0.24600000E+01           0.10619980E+00
   0.24700000E+01           0.10316367E+00
   0.24800000E+01           0.10084062E+00
   0.24900000E+01           0.98107227E-01
   0.25000000E+01           0.95508789E-01
   0.25100000E+01           0.93129688E-01
   0.25200000E+01           0.90535742E-01
   0.25300000E+01           0.88091406E-01
   0.25400000E+01           0.85675781E-01
   0.25500000E+01           0.83349609E-01
   0.25600000E+01           0.81160547E-01
   0.25700000E+01           0.79008984E-01
   0.25800000E+01           0.76563867E-01
   0.25900000E+01           0.74831250E-01
   0.26000000E+01           0.72372266E-01
   0.26100000E+01           0.70646094E-01
   0.26200000E+01           0.68571484E-01
   0.26300000E+01           0.66622070E-01
   0.26400000E+01           0.64592969E-01
   0.26500000E+01           0.62736328E-01
   0.26600000E+01           0.60934961E-01
   0.26700000E+01           0.59168945E-01
   0.26800000E+01           0.57491602E-01
   0.26900000E+01           0.55749023E-01
   0.27000000E+01           0.53883008E-01
   0.27100000E+01           0.52478320E-01
   0.27200000E+01           0.50963672E-01
   0.27300000E+01           0.49255469E-01
   0.27400000E+01           0.48022461E-01
   0.27500000E+01           0.46394336E-01
   0.27600000E+01           0.45114062E-01
   0.27700000E+01           0.43552734E-01
   0.27800000E+01           0.42179492E-01
   0.27900000E+01           0.40796875E-01
   0.28000000E+01           0.39427148E-01
   0.28100000E+01           0.38388281E-01
   0.28200000E+01           0.37125781E-01
   0.28300000E+01           0.35977539E-01
   0.28400000E+01           0.34578125E-01
   0.28500000E+01           0.33518359E-01
   0.28600000E+01           0.32355859E-01
   0.28700000E+01           0.31258008E-01
   0.28800000E+01           0.30398242E-01
   0.28900000E+01           0.29172070E-01
   0.29000000E+01           0.28356445E-01
   0.29100000E+01           0.27262695E-01
   0.29200000E+01           0.26523242E-01
   0.29300000E+01           0.25370703E-01
   0.29400000E+01           0.24569922E-01
   0.29500000E+01           0.23688086E-01
   0.29600000E+01           0.22861914E-01
   0.29700000E+01           0.22117969E-01
   0.29800000E+01           0.21310156E-01
   0.29900000E+01           0.20488477E-01
   0.30000000E+01           0.19773242E-01
   0.30100000E+01           0.18866992E-01
   0.30200000E+01           0.18273633E-01
   0.30300000E+01           0.17692969E-01
   0.30400000E+01           0.17025000E-01
   0.30500000E+01           0.16275195E-01
   0.30600000E+01           0.15685742E-01
   0.30700000E+01           0.15135938E-01
   0.30800000E+01           0.14587305E-01
   0.30900000E+01           0.13942578E-01
   0.31000000E+01           0.13433008E-01
   0.31100000E+01           0.12911719E-01
   0.31200000E+01           0.12374023E-01
   0.31300000E+01           0.11884766E-01
   0.31400000E+01           0.11389453E-01
   0.31500000E+01           0.10963867E-01
   0.31600000E+01           0.10494141E-01
   0.31700000E+01           0.10077148E-01
   0.31800000E+01           0.95933594E-02
   0.31900000E+01           0.92224609E-02
   0.32000000E+01           0.88382812E-02
   0.32100000E+01           0.85296875E-02
   0.32200000E+01           0.80142578E-02
   0.32300000E+01           0.77152344E-02
   0.32400000E+01           0.73521484E-02
   0.32500000E+01           0.70531250E-02
   0.32600000E+01           0.67449219E-02
   0.32700000E+01           0.64529297E-02
   0.32800000E+01           0.60970703E-02
   0.32900000E+01           0.58732422E-02
   0.33000000E+01           0.56388672E-02
   0.33100000E+01           0.53066406E-02
   0.33200000E+01           0.50816406E-02
   0.33300000E+01           0.48087891E-02
   0.33400000E+01           0.46373047E-02
   0.33500000E+01           0.43019531E-02
   0.33600000E+01           0.41328125E-02
   0.33700000E+01           0.39589844E-02
   0.33800000E+01           0.37689453E-02
   0.33900000E+01           0.35531250E-02
   0.34000000E+01           0.34128906E-02
   0.34100000E+01           0.31738281E-02
   0.34200000E+01           0.30251953E-02
   0.34300000E+01           0.28371094E-02
   0.34400000E+01           0.27164063E-02
   0.34500000E+01           0.26121094E-02
   0.34600000E+01           0.24123047E-02
   0.34700000E+01           0.22734375E-02
   0.34800000E+01           0.21732422E-02
   0.34900000E+01           0.20632813E-02
   0.35000000E+01           0.18966797E-02
   0.35100000E+01           0.17792969E-02
   0.35200000E+01           0.17552734E-02
   0.35300000E+01           0.15773437E-02
   0.35400000E+01           0.14777344E-02
   0.35500000E+01           0.14089844E-02
   0.35600000E+01           0.13085937E-02
   0.35700000E+01           0.12414062E-02
   0.35800000E+01           0.11457031E-02
   0.35900000E+01           0.10894531E-02
   0.36000000E+01           0.97910156E-03
   0.36100000E+01           0.93437500E-03
   0.36200000E+01           0.87285156E-03
   0.36300000E+01           0.78632812E-03
   0.36400000E+01           0.75039062E-03
   0.36500000E+01           0.67636719E-03
   0.36600000E+01           0.64082031E-03
   0.36700000E+01           0.57617187E-03
   0.36800000E+01           0.52617187E-03
   0.36900000E+01           0.48378906E-03
   0.37000000E+01           0.46523437E-03
   0.37100000E+01           0.41660156E-03
   0.37200000E+01           0.38671875E-03
   0.37300000E+01           0.34902344E-03
   0.37400000E+01           0.32675781E-03
   0.37500000E+01           0.28925781E-03
   0.37600000E+01           0.25839844E-03
   0.37700000E+01           0.22636719E-03
   0.37800000E+01           0.20976562E-03
   0.37900000E+01           0.17187500E-03
   0.38000000E+01           0.16757813E-03
   0.38100000E+01           0.14414062E-03
   0.38200000E+01           0.12929687E-03
   0.38300000E+01           0.10703125E-03
   0.38400000E+01           0.10429687E-03
   0.38500000E+01           0.76953125E-04
   0.38600000E+01           0.73046875E-04
   0.38700000E+01           0.59765625E-04
   0.38800000E+01           0.48242187E-04
   0.38900000E+01           0.44335937E-04
   0.39000000E+01           0.31835937E-04
   0.39100000E+01           0.29492187E-04
   0.39200000E+01           0.19140625E-04
   0.39300000E+01           0.12890625E-04
   0.39400000E+01           0.11718750E-04
   0.39500000E+01           0.72265625E-05
   0.39600000E+01           0.54687500E-05
   0.39700000E+01           0.35156250E-05
   0.39800000E+01           0.13671875E-05
   0.39900000E+01           0.39062500E-06
   0.40000000E+01           0.00000000E+00
