 #written on  1Aug2024 at 19:52:59 
 #----------------- MONTECARLO -------------------#
 #        M                      P(M)             #
 #------------------------------------------------#
 #T=    41.0000
  -0.20000000E+01           0.00000000E+00
  -0.19900000E+01           0.00000000E+00
  -0.19800000E+01           0.00000000E+00
  -0.19700000E+01           0.00000000E+00
  -0.19600000E+01           0.00000000E+00
  -0.19500000E+01           0.00000000E+00
  -0.19400000E+01           0.00000000E+00
  -0.19300000E+01           0.00000000E+00
  -0.19200000E+01           0.00000000E+00
  -0.19100000E+01           0.00000000E+00
  -0.19000000E+01           0.00000000E+00
  -0.18900000E+01           0.00000000E+00
  -0.18800000E+01           0.00000000E+00
  -0.18700000E+01           0.00000000E+00
  -0.18600000E+01           0.00000000E+00
  -0.18500000E+01           0.00000000E+00
  -0.18400000E+01           0.00000000E+00
  -0.18300000E+01           0.00000000E+00
  -0.18200000E+01           0.00000000E+00
  -0.18100000E+01           0.00000000E+00
  -0.18000000E+01           0.00000000E+00
  -0.17900000E+01           0.00000000E+00
  -0.17800000E+01           0.00000000E+00
  -0.17700000E+01           0.00000000E+00
  -0.17600000E+01           0.00000000E+00
  -0.17500000E+01           0.00000000E+00
  -0.17400000E+01           0.00000000E+00
  -0.17300000E+01           0.00000000E+00
  -0.17200000E+01           0.00000000E+00
  -0.17100000E+01           0.00000000E+00
  -0.17000000E+01           0.00000000E+00
  -0.16900000E+01           0.00000000E+00
  -0.16800000E+01           0.00000000E+00
  -0.16700000E+01           0.00000000E+00
  -0.16600000E+01           0.00000000E+00
  -0.16500000E+01           0.00000000E+00
  -0.16400000E+01           0.00000000E+00
  -0.16300000E+01           0.00000000E+00
  -0.16200000E+01           0.00000000E+00
  -0.16100000E+01           0.00000000E+00
  -0.16000000E+01           0.00000000E+00
  -0.15900000E+01           0.00000000E+00
  -0.15800000E+01           0.00000000E+00
  -0.15700000E+01           0.00000000E+00
  -0.15600000E+01           0.00000000E+00
  -0.15500000E+01           0.00000000E+00
  -0.15400000E+01           0.00000000E+00
  -0.15300000E+01           0.00000000E+00
  -0.15200000E+01           0.00000000E+00
  -0.15100000E+01           0.00000000E+00
  -0.15000000E+01           0.00000000E+00
  -0.14900000E+01           0.00000000E+00
  -0.14800000E+01           0.00000000E+00
  -0.14700000E+01           0.00000000E+00
  -0.14600000E+01           0.00000000E+00
  -0.14500000E+01           0.00000000E+00
  -0.14400000E+01           0.00000000E+00
  -0.14300000E+01           0.00000000E+00
  -0.14200000E+01           0.00000000E+00
  -0.14100000E+01           0.00000000E+00
  -0.14000000E+01           0.00000000E+00
  -0.13900000E+01           0.00000000E+00
  -0.13800000E+01           0.00000000E+00
  -0.13700000E+01           0.00000000E+00
  -0.13600000E+01           0.00000000E+00
  -0.13500000E+01           0.00000000E+00
  -0.13400000E+01           0.00000000E+00
  -0.13300000E+01           0.00000000E+00
  -0.13200000E+01           0.00000000E+00
  -0.13100000E+01           0.00000000E+00
  -0.13000000E+01           0.00000000E+00
  -0.12900000E+01           0.00000000E+00
  -0.12800000E+01           0.00000000E+00
  -0.12700000E+01           0.00000000E+00
  -0.12600000E+01           0.00000000E+00
  -0.12500000E+01           0.00000000E+00
  -0.12400000E+01           0.00000000E+00
  -0.12300000E+01           0.00000000E+00
  -0.12200000E+01           0.00000000E+00
  -0.12100000E+01           0.00000000E+00
  -0.12000000E+01           0.00000000E+00
  -0.11900000E+01           0.00000000E+00
  -0.11800000E+01           0.00000000E+00
  -0.11700000E+01           0.00000000E+00
  -0.11600000E+01           0.00000000E+00
  -0.11500000E+01           0.00000000E+00
  -0.11400000E+01           0.00000000E+00
  -0.11300000E+01           0.00000000E+00
  -0.11200000E+01           0.00000000E+00
  -0.11100000E+01           0.00000000E+00
  -0.11000000E+01           0.00000000E+00
  -0.10900000E+01           0.00000000E+00
  -0.10800000E+01           0.00000000E+00
  -0.10700000E+01           0.00000000E+00
  -0.10600000E+01           0.00000000E+00
  -0.10500000E+01           0.00000000E+00
  -0.10400000E+01           0.00000000E+00
  -0.10300000E+01           0.00000000E+00
  -0.10200000E+01           0.00000000E+00
  -0.10100000E+01           0.00000000E+00
  -0.10000000E+01           0.00000000E+00
  -0.99000000E+00           0.00000000E+00
  -0.98000000E+00           0.00000000E+00
  -0.97000000E+00           0.00000000E+00
  -0.96000000E+00           0.00000000E+00
  -0.95000000E+00           0.00000000E+00
  -0.94000000E+00           0.00000000E+00
  -0.93000000E+00           0.00000000E+00
  -0.92000000E+00           0.00000000E+00
  -0.91000000E+00           0.00000000E+00
  -0.90000000E+00           0.00000000E+00
  -0.89000000E+00           0.00000000E+00
  -0.88000000E+00           0.00000000E+00
  -0.87000000E+00           0.00000000E+00
  -0.86000000E+00           0.00000000E+00
  -0.85000000E+00           0.00000000E+00
  -0.84000000E+00           0.00000000E+00
  -0.83000000E+00           0.00000000E+00
  -0.82000000E+00           0.00000000E+00
  -0.81000000E+00           0.00000000E+00
  -0.80000000E+00           0.00000000E+00
  -0.79000000E+00           0.00000000E+00
  -0.78000000E+00           0.00000000E+00
  -0.77000000E+00           0.00000000E+00
  -0.76000000E+00           0.00000000E+00
  -0.75000000E+00           0.00000000E+00
  -0.74000000E+00           0.00000000E+00
  -0.73000000E+00           0.00000000E+00
  -0.72000000E+00           0.00000000E+00
  -0.71000000E+00           0.00000000E+00
  -0.70000000E+00           0.00000000E+00
  -0.69000000E+00           0.00000000E+00
  -0.68000000E+00           0.00000000E+00
  -0.67000000E+00           0.00000000E+00
  -0.66000000E+00           0.00000000E+00
  -0.65000000E+00           0.00000000E+00
  -0.64000000E+00           0.00000000E+00
  -0.63000000E+00           0.00000000E+00
  -0.62000000E+00           0.00000000E+00
  -0.61000000E+00           0.00000000E+00
  -0.60000000E+00           0.00000000E+00
  -0.59000000E+00           0.00000000E+00
  -0.58000000E+00           0.00000000E+00
  -0.57000000E+00           0.00000000E+00
  -0.56000000E+00           0.00000000E+00
  -0.55000000E+00           0.00000000E+00
  -0.54000000E+00           0.00000000E+00
  -0.53000000E+00           0.00000000E+00
  -0.52000000E+00           0.00000000E+00
  -0.51000000E+00           0.00000000E+00
  -0.50000000E+00           0.00000000E+00
  -0.49000000E+00           0.00000000E+00
  -0.48000000E+00           0.00000000E+00
  -0.47000000E+00           0.00000000E+00
  -0.46000000E+00           0.00000000E+00
  -0.45000000E+00           0.00000000E+00
  -0.44000000E+00           0.00000000E+00
  -0.43000000E+00           0.00000000E+00
  -0.42000000E+00           0.00000000E+00
  -0.41000000E+00           0.00000000E+00
  -0.40000000E+00           0.00000000E+00
  -0.39000000E+00           0.00000000E+00
  -0.38000000E+00           0.00000000E+00
  -0.37000000E+00           0.00000000E+00
  -0.36000000E+00           0.00000000E+00
  -0.35000000E+00           0.00000000E+00
  -0.34000000E+00           0.00000000E+00
  -0.33000000E+00           0.00000000E+00
  -0.32000000E+00           0.00000000E+00
  -0.31000000E+00           0.00000000E+00
  -0.30000000E+00           0.00000000E+00
  -0.29000000E+00           0.00000000E+00
  -0.28000000E+00           0.00000000E+00
  -0.27000000E+00           0.00000000E+00
  -0.26000000E+00           0.00000000E+00
  -0.25000000E+00           0.00000000E+00
  -0.24000000E+00           0.00000000E+00
  -0.23000000E+00           0.00000000E+00
  -0.22000000E+00           0.00000000E+00
  -0.21000000E+00           0.00000000E+00
  -0.20000000E+00           0.00000000E+00
  -0.19000000E+00           0.00000000E+00
  -0.18000000E+00           0.00000000E+00
  -0.17000000E+00           0.00000000E+00
  -0.16000000E+00           0.00000000E+00
  -0.15000000E+00           0.00000000E+00
  -0.14000000E+00           0.00000000E+00
  -0.13000000E+00           0.00000000E+00
  -0.12000000E+00           0.00000000E+00
  -0.11000000E+00           0.00000000E+00
  -0.10000000E+00           0.00000000E+00
  -0.90000000E-01           0.00000000E+00
  -0.80000000E-01           0.00000000E+00
  -0.70000000E-01           0.00000000E+00
  -0.60000000E-01           0.00000000E+00
  -0.50000000E-01           0.00000000E+00
  -0.40000000E-01           0.00000000E+00
  -0.30000000E-01           0.00000000E+00
  -0.20000000E-01           0.00000000E+00
  -0.10000000E-01           0.00000000E+00
   0.00000000E+00           0.35725000E-02
   0.10000000E-01           0.28919700E-01
   0.20000000E-01           0.57275400E-01
   0.30000000E-01           0.85940900E-01
   0.40000000E-01           0.11474340E+00
   0.50000000E-01           0.14284960E+00
   0.60000000E-01           0.17151320E+00
   0.70000000E-01           0.19942700E+00
   0.80000000E-01           0.22801810E+00
   0.90000000E-01           0.25535290E+00
   0.10000000E+00           0.28317890E+00
   0.11000000E+00           0.31033330E+00
   0.12000000E+00           0.33795490E+00
   0.13000000E+00           0.36497010E+00
   0.14000000E+00           0.39152500E+00
   0.15000000E+00           0.41790730E+00
   0.16000000E+00           0.44409210E+00
   0.17000000E+00           0.47019790E+00
   0.18000000E+00           0.49560740E+00
   0.19000000E+00           0.52099450E+00
   0.20000000E+00           0.54485400E+00
   0.21000000E+00           0.56925040E+00
   0.22000000E+00           0.59335080E+00
   0.23000000E+00           0.61666500E+00
   0.24000000E+00           0.63961710E+00
   0.25000000E+00           0.66164170E+00
   0.26000000E+00           0.68413920E+00
   0.27000000E+00           0.70489990E+00
   0.28000000E+00           0.72675600E+00
   0.29000000E+00           0.74662020E+00
   0.30000000E+00           0.76689550E+00
   0.31000000E+00           0.78645360E+00
   0.32000000E+00           0.80475960E+00
   0.33000000E+00           0.82244410E+00
   0.34000000E+00           0.83985600E+00
   0.35000000E+00           0.85716490E+00
   0.36000000E+00           0.87436160E+00
   0.37000000E+00           0.88853150E+00
   0.38000000E+00           0.90390570E+00
   0.39000000E+00           0.91886380E+00
   0.40000000E+00           0.93288360E+00
   0.41000000E+00           0.94630810E+00
   0.42000000E+00           0.95915040E+00
   0.43000000E+00           0.97043340E+00
   0.44000000E+00           0.98061110E+00
   0.45000000E+00           0.99079970E+00
   0.46000000E+00           0.10024324E+01
   0.47000000E+00           0.10113109E+01
   0.48000000E+00           0.10200199E+01
   0.49000000E+00           0.10276825E+01
   0.50000000E+00           0.10355978E+01
   0.51000000E+00           0.10416238E+01
   0.52000000E+00           0.10474410E+01
   0.53000000E+00           0.10529089E+01
   0.54000000E+00           0.10575257E+01
   0.55000000E+00           0.10609872E+01
   0.56000000E+00           0.10647815E+01
   0.57000000E+00           0.10673565E+01
   0.58000000E+00           0.10690586E+01
   0.59000000E+00           0.10703335E+01
   0.60000000E+00           0.10721053E+01
   0.61000000E+00           0.10718208E+01
   0.62000000E+00           0.10716669E+01
   0.63000000E+00           0.10705473E+01
   0.64000000E+00           0.10688716E+01
   0.65000000E+00           0.10668445E+01
   0.66000000E+00           0.10627568E+01
   0.67000000E+00           0.10603894E+01
   0.68000000E+00           0.10562866E+01
   0.69000000E+00           0.10514861E+01
   0.70000000E+00           0.10465945E+01
   0.71000000E+00           0.10417930E+01
   0.72000000E+00           0.10350232E+01
   0.73000000E+00           0.10284104E+01
   0.74000000E+00           0.10214473E+01
   0.75000000E+00           0.10143762E+01
   0.76000000E+00           0.10065192E+01
   0.77000000E+00           0.99906980E+00
   0.78000000E+00           0.98907880E+00
   0.79000000E+00           0.98050240E+00
   0.80000000E+00           0.97075170E+00
   0.81000000E+00           0.96006800E+00
   0.82000000E+00           0.94997640E+00
   0.83000000E+00           0.93987290E+00
   0.84000000E+00           0.92797890E+00
   0.85000000E+00           0.91595150E+00
   0.86000000E+00           0.90508670E+00
   0.87000000E+00           0.89303910E+00
   0.88000000E+00           0.88101020E+00
   0.89000000E+00           0.86781190E+00
   0.90000000E+00           0.85493570E+00
   0.91000000E+00           0.84195960E+00
   0.92000000E+00           0.82896840E+00
   0.93000000E+00           0.81544910E+00
   0.94000000E+00           0.80104080E+00
   0.95000000E+00           0.78776030E+00
   0.96000000E+00           0.77403410E+00
   0.97000000E+00           0.75957280E+00
   0.98000000E+00           0.74618200E+00
   0.99000000E+00           0.73152390E+00
   0.10000000E+01           0.71642560E+00
   0.10100000E+01           0.70264900E+00
   0.10200000E+01           0.68825510E+00
   0.10300000E+01           0.67302100E+00
   0.10400000E+01           0.65854920E+00
   0.10500000E+01           0.64449690E+00
   0.10600000E+01           0.62982550E+00
   0.10700000E+01           0.61494550E+00
   0.10800000E+01           0.60013000E+00
   0.10900000E+01           0.58552380E+00
   0.11000000E+01           0.57100820E+00
   0.11100000E+01           0.55629250E+00
   0.11200000E+01           0.54211050E+00
   0.11300000E+01           0.52738590E+00
   0.11400000E+01           0.51337670E+00
   0.11500000E+01           0.49910510E+00
   0.11600000E+01           0.48553490E+00
   0.11700000E+01           0.47172560E+00
   0.11800000E+01           0.45727540E+00
   0.11900000E+01           0.44408380E+00
   0.12000000E+01           0.43027070E+00
   0.12100000E+01           0.41731870E+00
   0.12200000E+01           0.40385090E+00
   0.12300000E+01           0.39093610E+00
   0.12400000E+01           0.37819220E+00
   0.12500000E+01           0.36563050E+00
   0.12600000E+01           0.35325060E+00
   0.12700000E+01           0.34107410E+00
   0.12800000E+01           0.32867150E+00
   0.12900000E+01           0.31700840E+00
   0.13000000E+01           0.30518040E+00
   0.13100000E+01           0.29421250E+00
   0.13200000E+01           0.28275690E+00
   0.13300000E+01           0.27201420E+00
   0.13400000E+01           0.26105350E+00
   0.13500000E+01           0.25106040E+00
   0.13600000E+01           0.24097040E+00
   0.13700000E+01           0.23074740E+00
   0.13800000E+01           0.22144190E+00
   0.13900000E+01           0.21148870E+00
   0.14000000E+01           0.20273880E+00
   0.14100000E+01           0.19362910E+00
   0.14200000E+01           0.18466660E+00
   0.14300000E+01           0.17626690E+00
   0.14400000E+01           0.16808840E+00
   0.14500000E+01           0.16040120E+00
   0.14600000E+01           0.15233250E+00
   0.14700000E+01           0.14495800E+00
   0.14800000E+01           0.13777070E+00
   0.14900000E+01           0.13049310E+00
   0.15000000E+01           0.12378440E+00
   0.15100000E+01           0.11730130E+00
   0.15200000E+01           0.11073850E+00
   0.15300000E+01           0.10462350E+00
   0.15400000E+01           0.99193300E-01
   0.15500000E+01           0.93509000E-01
   0.15600000E+01           0.87905400E-01
   0.15700000E+01           0.82609300E-01
   0.15800000E+01           0.77732300E-01
   0.15900000E+01           0.72929700E-01
   0.16000000E+01           0.68508700E-01
   0.16100000E+01           0.64077500E-01
   0.16200000E+01           0.59984700E-01
   0.16300000E+01           0.55980600E-01
   0.16400000E+01           0.52410000E-01
   0.16500000E+01           0.48541500E-01
   0.16600000E+01           0.45160300E-01
   0.16700000E+01           0.41890400E-01
   0.16800000E+01           0.38865800E-01
   0.16900000E+01           0.36024400E-01
   0.17000000E+01           0.32980400E-01
   0.17100000E+01           0.30641700E-01
   0.17200000E+01           0.28096600E-01
   0.17300000E+01           0.25853500E-01
   0.17400000E+01           0.23701900E-01
   0.17500000E+01           0.21738400E-01
   0.17600000E+01           0.19799200E-01
   0.17700000E+01           0.17950500E-01
   0.17800000E+01           0.16217200E-01
   0.17900000E+01           0.14652100E-01
   0.18000000E+01           0.13253100E-01
   0.18100000E+01           0.11883400E-01
   0.18200000E+01           0.10733600E-01
   0.18300000E+01           0.95613000E-02
   0.18400000E+01           0.85487000E-02
   0.18500000E+01           0.75160000E-02
   0.18600000E+01           0.66512000E-02
   0.18700000E+01           0.58300000E-02
   0.18800000E+01           0.51757000E-02
   0.18900000E+01           0.44149000E-02
   0.19000000E+01           0.38326000E-02
   0.19100000E+01           0.32840000E-02
   0.19200000E+01           0.27821000E-02
   0.19300000E+01           0.23268000E-02
   0.19400000E+01           0.19214000E-02
   0.19500000E+01           0.15781000E-02
   0.19600000E+01           0.12874000E-02
   0.19700000E+01           0.10127000E-02
   0.19800000E+01           0.76910000E-03
   0.19900000E+01           0.58820000E-03
   0.20000000E+01           0.23680000E-03
 #T=    42.0000
  -0.20000000E+01           0.00000000E+00
  -0.19900000E+01           0.00000000E+00
  -0.19800000E+01           0.00000000E+00
  -0.19700000E+01           0.00000000E+00
  -0.19600000E+01           0.00000000E+00
  -0.19500000E+01           0.00000000E+00
  -0.19400000E+01           0.00000000E+00
  -0.19300000E+01           0.00000000E+00
  -0.19200000E+01           0.00000000E+00
  -0.19100000E+01           0.00000000E+00
  -0.19000000E+01           0.00000000E+00
  -0.18900000E+01           0.00000000E+00
  -0.18800000E+01           0.00000000E+00
  -0.18700000E+01           0.00000000E+00
  -0.18600000E+01           0.00000000E+00
  -0.18500000E+01           0.00000000E+00
  -0.18400000E+01           0.00000000E+00
  -0.18300000E+01           0.00000000E+00
  -0.18200000E+01           0.00000000E+00
  -0.18100000E+01           0.00000000E+00
  -0.18000000E+01           0.00000000E+00
  -0.17900000E+01           0.00000000E+00
  -0.17800000E+01           0.00000000E+00
  -0.17700000E+01           0.00000000E+00
  -0.17600000E+01           0.00000000E+00
  -0.17500000E+01           0.00000000E+00
  -0.17400000E+01           0.00000000E+00
  -0.17300000E+01           0.00000000E+00
  -0.17200000E+01           0.00000000E+00
  -0.17100000E+01           0.00000000E+00
  -0.17000000E+01           0.00000000E+00
  -0.16900000E+01           0.00000000E+00
  -0.16800000E+01           0.00000000E+00
  -0.16700000E+01           0.00000000E+00
  -0.16600000E+01           0.00000000E+00
  -0.16500000E+01           0.00000000E+00
  -0.16400000E+01           0.00000000E+00
  -0.16300000E+01           0.00000000E+00
  -0.16200000E+01           0.00000000E+00
  -0.16100000E+01           0.00000000E+00
  -0.16000000E+01           0.00000000E+00
  -0.15900000E+01           0.00000000E+00
  -0.15800000E+01           0.00000000E+00
  -0.15700000E+01           0.00000000E+00
  -0.15600000E+01           0.00000000E+00
  -0.15500000E+01           0.00000000E+00
  -0.15400000E+01           0.00000000E+00
  -0.15300000E+01           0.00000000E+00
  -0.15200000E+01           0.00000000E+00
  -0.15100000E+01           0.00000000E+00
  -0.15000000E+01           0.00000000E+00
  -0.14900000E+01           0.00000000E+00
  -0.14800000E+01           0.00000000E+00
  -0.14700000E+01           0.00000000E+00
  -0.14600000E+01           0.00000000E+00
  -0.14500000E+01           0.00000000E+00
  -0.14400000E+01           0.00000000E+00
  -0.14300000E+01           0.00000000E+00
  -0.14200000E+01           0.00000000E+00
  -0.14100000E+01           0.00000000E+00
  -0.14000000E+01           0.00000000E+00
  -0.13900000E+01           0.00000000E+00
  -0.13800000E+01           0.00000000E+00
  -0.13700000E+01           0.00000000E+00
  -0.13600000E+01           0.00000000E+00
  -0.13500000E+01           0.00000000E+00
  -0.13400000E+01           0.00000000E+00
  -0.13300000E+01           0.00000000E+00
  -0.13200000E+01           0.00000000E+00
  -0.13100000E+01           0.00000000E+00
  -0.13000000E+01           0.00000000E+00
  -0.12900000E+01           0.00000000E+00
  -0.12800000E+01           0.00000000E+00
  -0.12700000E+01           0.00000000E+00
  -0.12600000E+01           0.00000000E+00
  -0.12500000E+01           0.00000000E+00
  -0.12400000E+01           0.00000000E+00
  -0.12300000E+01           0.00000000E+00
  -0.12200000E+01           0.00000000E+00
  -0.12100000E+01           0.00000000E+00
  -0.12000000E+01           0.00000000E+00
  -0.11900000E+01           0.00000000E+00
  -0.11800000E+01           0.00000000E+00
  -0.11700000E+01           0.00000000E+00
  -0.11600000E+01           0.00000000E+00
  -0.11500000E+01           0.00000000E+00
  -0.11400000E+01           0.00000000E+00
  -0.11300000E+01           0.00000000E+00
  -0.11200000E+01           0.00000000E+00
  -0.11100000E+01           0.00000000E+00
  -0.11000000E+01           0.00000000E+00
  -0.10900000E+01           0.00000000E+00
  -0.10800000E+01           0.00000000E+00
  -0.10700000E+01           0.00000000E+00
  -0.10600000E+01           0.00000000E+00
  -0.10500000E+01           0.00000000E+00
  -0.10400000E+01           0.00000000E+00
  -0.10300000E+01           0.00000000E+00
  -0.10200000E+01           0.00000000E+00
  -0.10100000E+01           0.00000000E+00
  -0.10000000E+01           0.00000000E+00
  -0.99000000E+00           0.00000000E+00
  -0.98000000E+00           0.00000000E+00
  -0.97000000E+00           0.00000000E+00
  -0.96000000E+00           0.00000000E+00
  -0.95000000E+00           0.00000000E+00
  -0.94000000E+00           0.00000000E+00
  -0.93000000E+00           0.00000000E+00
  -0.92000000E+00           0.00000000E+00
  -0.91000000E+00           0.00000000E+00
  -0.90000000E+00           0.00000000E+00
  -0.89000000E+00           0.00000000E+00
  -0.88000000E+00           0.00000000E+00
  -0.87000000E+00           0.00000000E+00
  -0.86000000E+00           0.00000000E+00
  -0.85000000E+00           0.00000000E+00
  -0.84000000E+00           0.00000000E+00
  -0.83000000E+00           0.00000000E+00
  -0.82000000E+00           0.00000000E+00
  -0.81000000E+00           0.00000000E+00
  -0.80000000E+00           0.00000000E+00
  -0.79000000E+00           0.00000000E+00
  -0.78000000E+00           0.00000000E+00
  -0.77000000E+00           0.00000000E+00
  -0.76000000E+00           0.00000000E+00
  -0.75000000E+00           0.00000000E+00
  -0.74000000E+00           0.00000000E+00
  -0.73000000E+00           0.00000000E+00
  -0.72000000E+00           0.00000000E+00
  -0.71000000E+00           0.00000000E+00
  -0.70000000E+00           0.00000000E+00
  -0.69000000E+00           0.00000000E+00
  -0.68000000E+00           0.00000000E+00
  -0.67000000E+00           0.00000000E+00
  -0.66000000E+00           0.00000000E+00
  -0.65000000E+00           0.00000000E+00
  -0.64000000E+00           0.00000000E+00
  -0.63000000E+00           0.00000000E+00
  -0.62000000E+00           0.00000000E+00
  -0.61000000E+00           0.00000000E+00
  -0.60000000E+00           0.00000000E+00
  -0.59000000E+00           0.00000000E+00
  -0.58000000E+00           0.00000000E+00
  -0.57000000E+00           0.00000000E+00
  -0.56000000E+00           0.00000000E+00
  -0.55000000E+00           0.00000000E+00
  -0.54000000E+00           0.00000000E+00
  -0.53000000E+00           0.00000000E+00
  -0.52000000E+00           0.00000000E+00
  -0.51000000E+00           0.00000000E+00
  -0.50000000E+00           0.00000000E+00
  -0.49000000E+00           0.00000000E+00
  -0.48000000E+00           0.00000000E+00
  -0.47000000E+00           0.00000000E+00
  -0.46000000E+00           0.00000000E+00
  -0.45000000E+00           0.00000000E+00
  -0.44000000E+00           0.00000000E+00
  -0.43000000E+00           0.00000000E+00
  -0.42000000E+00           0.00000000E+00
  -0.41000000E+00           0.00000000E+00
  -0.40000000E+00           0.00000000E+00
  -0.39000000E+00           0.00000000E+00
  -0.38000000E+00           0.00000000E+00
  -0.37000000E+00           0.00000000E+00
  -0.36000000E+00           0.00000000E+00
  -0.35000000E+00           0.00000000E+00
  -0.34000000E+00           0.00000000E+00
  -0.33000000E+00           0.00000000E+00
  -0.32000000E+00           0.00000000E+00
  -0.31000000E+00           0.00000000E+00
  -0.30000000E+00           0.00000000E+00
  -0.29000000E+00           0.00000000E+00
  -0.28000000E+00           0.00000000E+00
  -0.27000000E+00           0.00000000E+00
  -0.26000000E+00           0.00000000E+00
  -0.25000000E+00           0.00000000E+00
  -0.24000000E+00           0.00000000E+00
  -0.23000000E+00           0.00000000E+00
  -0.22000000E+00           0.00000000E+00
  -0.21000000E+00           0.00000000E+00
  -0.20000000E+00           0.00000000E+00
  -0.19000000E+00           0.00000000E+00
  -0.18000000E+00           0.00000000E+00
  -0.17000000E+00           0.00000000E+00
  -0.16000000E+00           0.00000000E+00
  -0.15000000E+00           0.00000000E+00
  -0.14000000E+00           0.00000000E+00
  -0.13000000E+00           0.00000000E+00
  -0.12000000E+00           0.00000000E+00
  -0.11000000E+00           0.00000000E+00
  -0.10000000E+00           0.00000000E+00
  -0.90000000E-01           0.00000000E+00
  -0.80000000E-01           0.00000000E+00
  -0.70000000E-01           0.00000000E+00
  -0.60000000E-01           0.00000000E+00
  -0.50000000E-01           0.00000000E+00
  -0.40000000E-01           0.00000000E+00
  -0.30000000E-01           0.00000000E+00
  -0.20000000E-01           0.00000000E+00
  -0.10000000E-01           0.00000000E+00
   0.00000000E+00           0.34650000E-02
   0.10000000E-01           0.27856900E-01
   0.20000000E-01           0.55892300E-01
   0.30000000E-01           0.83451000E-01
   0.40000000E-01           0.11120430E+00
   0.50000000E-01           0.13884760E+00
   0.60000000E-01           0.16648680E+00
   0.70000000E-01           0.19396840E+00
   0.80000000E-01           0.22125320E+00
   0.90000000E-01           0.24874270E+00
   0.10000000E+00           0.27468250E+00
   0.11000000E+00           0.30204930E+00
   0.12000000E+00           0.32889340E+00
   0.13000000E+00           0.35476330E+00
   0.14000000E+00           0.38074350E+00
   0.15000000E+00           0.40657480E+00
   0.16000000E+00           0.43209890E+00
   0.17000000E+00           0.45721610E+00
   0.18000000E+00           0.48182740E+00
   0.19000000E+00           0.50628690E+00
   0.20000000E+00           0.53009800E+00
   0.21000000E+00           0.55438720E+00
   0.22000000E+00           0.57707610E+00
   0.23000000E+00           0.60025090E+00
   0.24000000E+00           0.62204430E+00
   0.25000000E+00           0.64496610E+00
   0.26000000E+00           0.66629880E+00
   0.27000000E+00           0.68713470E+00
   0.28000000E+00           0.70695380E+00
   0.29000000E+00           0.72843850E+00
   0.30000000E+00           0.74700010E+00
   0.31000000E+00           0.76601450E+00
   0.32000000E+00           0.78445740E+00
   0.33000000E+00           0.80252020E+00
   0.34000000E+00           0.81953150E+00
   0.35000000E+00           0.83767060E+00
   0.36000000E+00           0.85335630E+00
   0.37000000E+00           0.86887840E+00
   0.38000000E+00           0.88402410E+00
   0.39000000E+00           0.89786870E+00
   0.40000000E+00           0.91185760E+00
   0.41000000E+00           0.92522310E+00
   0.42000000E+00           0.93743050E+00
   0.43000000E+00           0.94921930E+00
   0.44000000E+00           0.96078000E+00
   0.45000000E+00           0.97175290E+00
   0.46000000E+00           0.98132550E+00
   0.47000000E+00           0.99064980E+00
   0.48000000E+00           0.99994620E+00
   0.49000000E+00           0.10080905E+01
   0.50000000E+00           0.10159078E+01
   0.51000000E+00           0.10233645E+01
   0.52000000E+00           0.10292812E+01
   0.53000000E+00           0.10353012E+01
   0.54000000E+00           0.10398885E+01
   0.55000000E+00           0.10441611E+01
   0.56000000E+00           0.10485050E+01
   0.57000000E+00           0.10512696E+01
   0.58000000E+00           0.10529362E+01
   0.59000000E+00           0.10556803E+01
   0.60000000E+00           0.10565130E+01
   0.61000000E+00           0.10578006E+01
   0.62000000E+00           0.10579082E+01
   0.63000000E+00           0.10570008E+01
   0.64000000E+00           0.10563679E+01
   0.65000000E+00           0.10544869E+01
   0.66000000E+00           0.10523563E+01
   0.67000000E+00           0.10498773E+01
   0.68000000E+00           0.10463431E+01
   0.69000000E+00           0.10425111E+01
   0.70000000E+00           0.10378088E+01
   0.71000000E+00           0.10335144E+01
   0.72000000E+00           0.10276565E+01
   0.73000000E+00           0.10221575E+01
   0.74000000E+00           0.10159923E+01
   0.75000000E+00           0.10084970E+01
   0.76000000E+00           0.10018059E+01
   0.77000000E+00           0.99417240E+00
   0.78000000E+00           0.98607670E+00
   0.79000000E+00           0.97797000E+00
   0.80000000E+00           0.96871950E+00
   0.81000000E+00           0.95978420E+00
   0.82000000E+00           0.94944450E+00
   0.83000000E+00           0.93982530E+00
   0.84000000E+00           0.92933930E+00
   0.85000000E+00           0.91857120E+00
   0.86000000E+00           0.90809000E+00
   0.87000000E+00           0.89582820E+00
   0.88000000E+00           0.88502690E+00
   0.89000000E+00           0.87220490E+00
   0.90000000E+00           0.86058460E+00
   0.91000000E+00           0.84779540E+00
   0.92000000E+00           0.83541250E+00
   0.93000000E+00           0.82256980E+00
   0.94000000E+00           0.80909040E+00
   0.95000000E+00           0.79678230E+00
   0.96000000E+00           0.78343540E+00
   0.97000000E+00           0.76927390E+00
   0.98000000E+00           0.75617350E+00
   0.99000000E+00           0.74202650E+00
   0.10000000E+01           0.72793480E+00
   0.10100000E+01           0.71322800E+00
   0.10200000E+01           0.70036070E+00
   0.10300000E+01           0.68557250E+00
   0.10400000E+01           0.67183380E+00
   0.10500000E+01           0.65737240E+00
   0.10600000E+01           0.64377070E+00
   0.10700000E+01           0.62892640E+00
   0.10800000E+01           0.61440890E+00
   0.10900000E+01           0.60081360E+00
   0.11000000E+01           0.58683260E+00
   0.11100000E+01           0.57213820E+00
   0.11200000E+01           0.55816640E+00
   0.11300000E+01           0.54397480E+00
   0.11400000E+01           0.52987790E+00
   0.11500000E+01           0.51513460E+00
   0.11600000E+01           0.50229610E+00
   0.11700000E+01           0.48814490E+00
   0.11800000E+01           0.47483870E+00
   0.11900000E+01           0.46101220E+00
   0.12000000E+01           0.44763810E+00
   0.12100000E+01           0.43412800E+00
   0.12200000E+01           0.42071130E+00
   0.12300000E+01           0.40786410E+00
   0.12400000E+01           0.39531090E+00
   0.12500000E+01           0.38243570E+00
   0.12600000E+01           0.37006140E+00
   0.12700000E+01           0.35734040E+00
   0.12800000E+01           0.34554230E+00
   0.12900000E+01           0.33318520E+00
   0.13000000E+01           0.32235170E+00
   0.13100000E+01           0.31074260E+00
   0.13200000E+01           0.29922340E+00
   0.13300000E+01           0.28775240E+00
   0.13400000E+01           0.27741610E+00
   0.13500000E+01           0.26683650E+00
   0.13600000E+01           0.25658860E+00
   0.13700000E+01           0.24607990E+00
   0.13800000E+01           0.23624680E+00
   0.13900000E+01           0.22670190E+00
   0.14000000E+01           0.21693340E+00
   0.14100000E+01           0.20768050E+00
   0.14200000E+01           0.19866940E+00
   0.14300000E+01           0.19012630E+00
   0.14400000E+01           0.18158840E+00
   0.14500000E+01           0.17293020E+00
   0.14600000E+01           0.16521330E+00
   0.14700000E+01           0.15724490E+00
   0.14800000E+01           0.14978630E+00
   0.14900000E+01           0.14223840E+00
   0.15000000E+01           0.13538360E+00
   0.15100000E+01           0.12831440E+00
   0.15200000E+01           0.12172320E+00
   0.15300000E+01           0.11526110E+00
   0.15400000E+01           0.10931760E+00
   0.15500000E+01           0.10296200E+00
   0.15600000E+01           0.97117200E-01
   0.15700000E+01           0.91688800E-01
   0.15800000E+01           0.86474900E-01
   0.15900000E+01           0.81458100E-01
   0.16000000E+01           0.76341400E-01
   0.16100000E+01           0.71789100E-01
   0.16200000E+01           0.67275300E-01
   0.16300000E+01           0.63086500E-01
   0.16400000E+01           0.58839200E-01
   0.16500000E+01           0.54900300E-01
   0.16600000E+01           0.51245700E-01
   0.16700000E+01           0.47655900E-01
   0.16800000E+01           0.44321800E-01
   0.16900000E+01           0.41139000E-01
   0.17000000E+01           0.38229900E-01
   0.17100000E+01           0.35290300E-01
   0.17200000E+01           0.32476600E-01
   0.17300000E+01           0.29985500E-01
   0.17400000E+01           0.27524000E-01
   0.17500000E+01           0.25232900E-01
   0.17600000E+01           0.23144300E-01
   0.17700000E+01           0.21005300E-01
   0.17800000E+01           0.19233200E-01
   0.17900000E+01           0.17447400E-01
   0.18000000E+01           0.15783900E-01
   0.18100000E+01           0.14279800E-01
   0.18200000E+01           0.12845000E-01
   0.18300000E+01           0.11551300E-01
   0.18400000E+01           0.10361500E-01
   0.18500000E+01           0.92358000E-02
   0.18600000E+01           0.81316000E-02
   0.18700000E+01           0.71524000E-02
   0.18800000E+01           0.63018000E-02
   0.18900000E+01           0.54944000E-02
   0.19000000E+01           0.47498000E-02
   0.19100000E+01           0.41138000E-02
   0.19200000E+01           0.35072000E-02
   0.19300000E+01           0.29684000E-02
   0.19400000E+01           0.25054000E-02
   0.19500000E+01           0.20910000E-02
   0.19600000E+01           0.16762000E-02
   0.19700000E+01           0.13457000E-02
   0.19800000E+01           0.10595000E-02
   0.19900000E+01           0.80030000E-03
   0.20000000E+01           0.33380000E-03
 #T=    43.0000
  -0.20000000E+01           0.00000000E+00
  -0.19900000E+01           0.00000000E+00
  -0.19800000E+01           0.00000000E+00
  -0.19700000E+01           0.00000000E+00
  -0.19600000E+01           0.00000000E+00
  -0.19500000E+01           0.00000000E+00
  -0.19400000E+01           0.00000000E+00
  -0.19300000E+01           0.00000000E+00
  -0.19200000E+01           0.00000000E+00
  -0.19100000E+01           0.00000000E+00
  -0.19000000E+01           0.00000000E+00
  -0.18900000E+01           0.00000000E+00
  -0.18800000E+01           0.00000000E+00
  -0.18700000E+01           0.00000000E+00
  -0.18600000E+01           0.00000000E+00
  -0.18500000E+01           0.00000000E+00
  -0.18400000E+01           0.00000000E+00
  -0.18300000E+01           0.00000000E+00
  -0.18200000E+01           0.00000000E+00
  -0.18100000E+01           0.00000000E+00
  -0.18000000E+01           0.00000000E+00
  -0.17900000E+01           0.00000000E+00
  -0.17800000E+01           0.00000000E+00
  -0.17700000E+01           0.00000000E+00
  -0.17600000E+01           0.00000000E+00
  -0.17500000E+01           0.00000000E+00
  -0.17400000E+01           0.00000000E+00
  -0.17300000E+01           0.00000000E+00
  -0.17200000E+01           0.00000000E+00
  -0.17100000E+01           0.00000000E+00
  -0.17000000E+01           0.00000000E+00
  -0.16900000E+01           0.00000000E+00
  -0.16800000E+01           0.00000000E+00
  -0.16700000E+01           0.00000000E+00
  -0.16600000E+01           0.00000000E+00
  -0.16500000E+01           0.00000000E+00
  -0.16400000E+01           0.00000000E+00
  -0.16300000E+01           0.00000000E+00
  -0.16200000E+01           0.00000000E+00
  -0.16100000E+01           0.00000000E+00
  -0.16000000E+01           0.00000000E+00
  -0.15900000E+01           0.00000000E+00
  -0.15800000E+01           0.00000000E+00
  -0.15700000E+01           0.00000000E+00
  -0.15600000E+01           0.00000000E+00
  -0.15500000E+01           0.00000000E+00
  -0.15400000E+01           0.00000000E+00
  -0.15300000E+01           0.00000000E+00
  -0.15200000E+01           0.00000000E+00
  -0.15100000E+01           0.00000000E+00
  -0.15000000E+01           0.00000000E+00
  -0.14900000E+01           0.00000000E+00
  -0.14800000E+01           0.00000000E+00
  -0.14700000E+01           0.00000000E+00
  -0.14600000E+01           0.00000000E+00
  -0.14500000E+01           0.00000000E+00
  -0.14400000E+01           0.00000000E+00
  -0.14300000E+01           0.00000000E+00
  -0.14200000E+01           0.00000000E+00
  -0.14100000E+01           0.00000000E+00
  -0.14000000E+01           0.00000000E+00
  -0.13900000E+01           0.00000000E+00
  -0.13800000E+01           0.00000000E+00
  -0.13700000E+01           0.00000000E+00
  -0.13600000E+01           0.00000000E+00
  -0.13500000E+01           0.00000000E+00
  -0.13400000E+01           0.00000000E+00
  -0.13300000E+01           0.00000000E+00
  -0.13200000E+01           0.00000000E+00
  -0.13100000E+01           0.00000000E+00
  -0.13000000E+01           0.00000000E+00
  -0.12900000E+01           0.00000000E+00
  -0.12800000E+01           0.00000000E+00
  -0.12700000E+01           0.00000000E+00
  -0.12600000E+01           0.00000000E+00
  -0.12500000E+01           0.00000000E+00
  -0.12400000E+01           0.00000000E+00
  -0.12300000E+01           0.00000000E+00
  -0.12200000E+01           0.00000000E+00
  -0.12100000E+01           0.00000000E+00
  -0.12000000E+01           0.00000000E+00
  -0.11900000E+01           0.00000000E+00
  -0.11800000E+01           0.00000000E+00
  -0.11700000E+01           0.00000000E+00
  -0.11600000E+01           0.00000000E+00
  -0.11500000E+01           0.00000000E+00
  -0.11400000E+01           0.00000000E+00
  -0.11300000E+01           0.00000000E+00
  -0.11200000E+01           0.00000000E+00
  -0.11100000E+01           0.00000000E+00
  -0.11000000E+01           0.00000000E+00
  -0.10900000E+01           0.00000000E+00
  -0.10800000E+01           0.00000000E+00
  -0.10700000E+01           0.00000000E+00
  -0.10600000E+01           0.00000000E+00
  -0.10500000E+01           0.00000000E+00
  -0.10400000E+01           0.00000000E+00
  -0.10300000E+01           0.00000000E+00
  -0.10200000E+01           0.00000000E+00
  -0.10100000E+01           0.00000000E+00
  -0.10000000E+01           0.00000000E+00
  -0.99000000E+00           0.00000000E+00
  -0.98000000E+00           0.00000000E+00
  -0.97000000E+00           0.00000000E+00
  -0.96000000E+00           0.00000000E+00
  -0.95000000E+00           0.00000000E+00
  -0.94000000E+00           0.00000000E+00
  -0.93000000E+00           0.00000000E+00
  -0.92000000E+00           0.00000000E+00
  -0.91000000E+00           0.00000000E+00
  -0.90000000E+00           0.00000000E+00
  -0.89000000E+00           0.00000000E+00
  -0.88000000E+00           0.00000000E+00
  -0.87000000E+00           0.00000000E+00
  -0.86000000E+00           0.00000000E+00
  -0.85000000E+00           0.00000000E+00
  -0.84000000E+00           0.00000000E+00
  -0.83000000E+00           0.00000000E+00
  -0.82000000E+00           0.00000000E+00
  -0.81000000E+00           0.00000000E+00
  -0.80000000E+00           0.00000000E+00
  -0.79000000E+00           0.00000000E+00
  -0.78000000E+00           0.00000000E+00
  -0.77000000E+00           0.00000000E+00
  -0.76000000E+00           0.00000000E+00
  -0.75000000E+00           0.00000000E+00
  -0.74000000E+00           0.00000000E+00
  -0.73000000E+00           0.00000000E+00
  -0.72000000E+00           0.00000000E+00
  -0.71000000E+00           0.00000000E+00
  -0.70000000E+00           0.00000000E+00
  -0.69000000E+00           0.00000000E+00
  -0.68000000E+00           0.00000000E+00
  -0.67000000E+00           0.00000000E+00
  -0.66000000E+00           0.00000000E+00
  -0.65000000E+00           0.00000000E+00
  -0.64000000E+00           0.00000000E+00
  -0.63000000E+00           0.00000000E+00
  -0.62000000E+00           0.00000000E+00
  -0.61000000E+00           0.00000000E+00
  -0.60000000E+00           0.00000000E+00
  -0.59000000E+00           0.00000000E+00
  -0.58000000E+00           0.00000000E+00
  -0.57000000E+00           0.00000000E+00
  -0.56000000E+00           0.00000000E+00
  -0.55000000E+00           0.00000000E+00
  -0.54000000E+00           0.00000000E+00
  -0.53000000E+00           0.00000000E+00
  -0.52000000E+00           0.00000000E+00
  -0.51000000E+00           0.00000000E+00
  -0.50000000E+00           0.00000000E+00
  -0.49000000E+00           0.00000000E+00
  -0.48000000E+00           0.00000000E+00
  -0.47000000E+00           0.00000000E+00
  -0.46000000E+00           0.00000000E+00
  -0.45000000E+00           0.00000000E+00
  -0.44000000E+00           0.00000000E+00
  -0.43000000E+00           0.00000000E+00
  -0.42000000E+00           0.00000000E+00
  -0.41000000E+00           0.00000000E+00
  -0.40000000E+00           0.00000000E+00
  -0.39000000E+00           0.00000000E+00
  -0.38000000E+00           0.00000000E+00
  -0.37000000E+00           0.00000000E+00
  -0.36000000E+00           0.00000000E+00
  -0.35000000E+00           0.00000000E+00
  -0.34000000E+00           0.00000000E+00
  -0.33000000E+00           0.00000000E+00
  -0.32000000E+00           0.00000000E+00
  -0.31000000E+00           0.00000000E+00
  -0.30000000E+00           0.00000000E+00
  -0.29000000E+00           0.00000000E+00
  -0.28000000E+00           0.00000000E+00
  -0.27000000E+00           0.00000000E+00
  -0.26000000E+00           0.00000000E+00
  -0.25000000E+00           0.00000000E+00
  -0.24000000E+00           0.00000000E+00
  -0.23000000E+00           0.00000000E+00
  -0.22000000E+00           0.00000000E+00
  -0.21000000E+00           0.00000000E+00
  -0.20000000E+00           0.00000000E+00
  -0.19000000E+00           0.00000000E+00
  -0.18000000E+00           0.00000000E+00
  -0.17000000E+00           0.00000000E+00
  -0.16000000E+00           0.00000000E+00
  -0.15000000E+00           0.00000000E+00
  -0.14000000E+00           0.00000000E+00
  -0.13000000E+00           0.00000000E+00
  -0.12000000E+00           0.00000000E+00
  -0.11000000E+00           0.00000000E+00
  -0.10000000E+00           0.00000000E+00
  -0.90000000E-01           0.00000000E+00
  -0.80000000E-01           0.00000000E+00
  -0.70000000E-01           0.00000000E+00
  -0.60000000E-01           0.00000000E+00
  -0.50000000E-01           0.00000000E+00
  -0.40000000E-01           0.00000000E+00
  -0.30000000E-01           0.00000000E+00
  -0.20000000E-01           0.00000000E+00
  -0.10000000E-01           0.00000000E+00
   0.00000000E+00           0.34088000E-02
   0.10000000E-01           0.27059200E-01
   0.20000000E-01           0.54175800E-01
   0.30000000E-01           0.80863900E-01
   0.40000000E-01           0.10804950E+00
   0.50000000E-01           0.13498420E+00
   0.60000000E-01           0.16194810E+00
   0.70000000E-01           0.18896180E+00
   0.80000000E-01           0.21490190E+00
   0.90000000E-01           0.24142720E+00
   0.10000000E+00           0.26769160E+00
   0.11000000E+00           0.29338180E+00
   0.12000000E+00           0.31929100E+00
   0.13000000E+00           0.34523850E+00
   0.14000000E+00           0.37026310E+00
   0.15000000E+00           0.39523090E+00
   0.16000000E+00           0.41971370E+00
   0.17000000E+00           0.44462150E+00
   0.18000000E+00           0.46828910E+00
   0.19000000E+00           0.49205580E+00
   0.20000000E+00           0.51537390E+00
   0.21000000E+00           0.53902080E+00
   0.22000000E+00           0.56169700E+00
   0.23000000E+00           0.58415100E+00
   0.24000000E+00           0.60569350E+00
   0.25000000E+00           0.62776600E+00
   0.26000000E+00           0.64811710E+00
   0.27000000E+00           0.66886520E+00
   0.28000000E+00           0.68954810E+00
   0.29000000E+00           0.70887430E+00
   0.30000000E+00           0.72815900E+00
   0.31000000E+00           0.74681090E+00
   0.32000000E+00           0.76544510E+00
   0.33000000E+00           0.78322950E+00
   0.34000000E+00           0.80066250E+00
   0.35000000E+00           0.81630790E+00
   0.36000000E+00           0.83268980E+00
   0.37000000E+00           0.84876980E+00
   0.38000000E+00           0.86333510E+00
   0.39000000E+00           0.87750950E+00
   0.40000000E+00           0.89144610E+00
   0.41000000E+00           0.90423820E+00
   0.42000000E+00           0.91755670E+00
   0.43000000E+00           0.92832100E+00
   0.44000000E+00           0.94044880E+00
   0.45000000E+00           0.95174060E+00
   0.46000000E+00           0.96128870E+00
   0.47000000E+00           0.97244420E+00
   0.48000000E+00           0.98043300E+00
   0.49000000E+00           0.98856750E+00
   0.50000000E+00           0.99681320E+00
   0.51000000E+00           0.10034352E+01
   0.52000000E+00           0.10110723E+01
   0.53000000E+00           0.10168794E+01
   0.54000000E+00           0.10225815E+01
   0.55000000E+00           0.10276066E+01
   0.56000000E+00           0.10309801E+01
   0.57000000E+00           0.10347660E+01
   0.58000000E+00           0.10371655E+01
   0.59000000E+00           0.10412032E+01
   0.60000000E+00           0.10421762E+01
   0.61000000E+00           0.10428803E+01
   0.62000000E+00           0.10434226E+01
   0.63000000E+00           0.10431016E+01
   0.64000000E+00           0.10434313E+01
   0.65000000E+00           0.10427163E+01
   0.66000000E+00           0.10410774E+01
   0.67000000E+00           0.10390518E+01
   0.68000000E+00           0.10364148E+01
   0.69000000E+00           0.10326810E+01
   0.70000000E+00           0.10291594E+01
   0.71000000E+00           0.10248742E+01
   0.72000000E+00           0.10212804E+01
   0.73000000E+00           0.10156313E+01
   0.74000000E+00           0.10095711E+01
   0.75000000E+00           0.10032081E+01
   0.76000000E+00           0.99666360E+00
   0.77000000E+00           0.99007200E+00
   0.78000000E+00           0.98277950E+00
   0.79000000E+00           0.97482000E+00
   0.80000000E+00           0.96675170E+00
   0.81000000E+00           0.95792490E+00
   0.82000000E+00           0.94890930E+00
   0.83000000E+00           0.93978960E+00
   0.84000000E+00           0.92979070E+00
   0.85000000E+00           0.91969270E+00
   0.86000000E+00           0.91009060E+00
   0.87000000E+00           0.89919120E+00
   0.88000000E+00           0.88743800E+00
   0.89000000E+00           0.87717040E+00
   0.90000000E+00           0.86511530E+00
   0.91000000E+00           0.85374900E+00
   0.92000000E+00           0.84176070E+00
   0.93000000E+00           0.82952730E+00
   0.94000000E+00           0.81706660E+00
   0.95000000E+00           0.80395010E+00
   0.96000000E+00           0.79093000E+00
   0.97000000E+00           0.77791630E+00
   0.98000000E+00           0.76502530E+00
   0.99000000E+00           0.75218140E+00
   0.10000000E+01           0.73860060E+00
   0.10100000E+01           0.72509560E+00
   0.10200000E+01           0.71192870E+00
   0.10300000E+01           0.69787250E+00
   0.10400000E+01           0.68443280E+00
   0.10500000E+01           0.67030460E+00
   0.10600000E+01           0.65651840E+00
   0.10700000E+01           0.64222610E+00
   0.10800000E+01           0.62856900E+00
   0.10900000E+01           0.61425970E+00
   0.11000000E+01           0.60061130E+00
   0.11100000E+01           0.58706820E+00
   0.11200000E+01           0.57298280E+00
   0.11300000E+01           0.55892330E+00
   0.11400000E+01           0.54517870E+00
   0.11500000E+01           0.53137680E+00
   0.11600000E+01           0.51767000E+00
   0.11700000E+01           0.50389410E+00
   0.11800000E+01           0.49116170E+00
   0.11900000E+01           0.47731600E+00
   0.12000000E+01           0.46420540E+00
   0.12100000E+01           0.45061130E+00
   0.12200000E+01           0.43779240E+00
   0.12300000E+01           0.42467640E+00
   0.12400000E+01           0.41159360E+00
   0.12500000E+01           0.39910670E+00
   0.12600000E+01           0.38702950E+00
   0.12700000E+01           0.37420060E+00
   0.12800000E+01           0.36230080E+00
   0.12900000E+01           0.35019510E+00
   0.13000000E+01           0.33829330E+00
   0.13100000E+01           0.32669070E+00
   0.13200000E+01           0.31558260E+00
   0.13300000E+01           0.30434440E+00
   0.13400000E+01           0.29358910E+00
   0.13500000E+01           0.28247820E+00
   0.13600000E+01           0.27241140E+00
   0.13700000E+01           0.26144100E+00
   0.13800000E+01           0.25141110E+00
   0.13900000E+01           0.24109860E+00
   0.14000000E+01           0.23180240E+00
   0.14100000E+01           0.22194480E+00
   0.14200000E+01           0.21299770E+00
   0.14300000E+01           0.20381790E+00
   0.14400000E+01           0.19493300E+00
   0.14500000E+01           0.18641110E+00
   0.14600000E+01           0.17820440E+00
   0.14700000E+01           0.17006060E+00
   0.14800000E+01           0.16222860E+00
   0.14900000E+01           0.15457520E+00
   0.15000000E+01           0.14722540E+00
   0.15100000E+01           0.13987200E+00
   0.15200000E+01           0.13279560E+00
   0.15300000E+01           0.12623700E+00
   0.15400000E+01           0.11940380E+00
   0.15500000E+01           0.11322140E+00
   0.15600000E+01           0.10696660E+00
   0.15700000E+01           0.10122330E+00
   0.15800000E+01           0.95940000E-01
   0.15900000E+01           0.90287500E-01
   0.16000000E+01           0.85025800E-01
   0.16100000E+01           0.80138700E-01
   0.16200000E+01           0.75211100E-01
   0.16300000E+01           0.70684300E-01
   0.16400000E+01           0.66133100E-01
   0.16500000E+01           0.61892400E-01
   0.16600000E+01           0.57982900E-01
   0.16700000E+01           0.54198200E-01
   0.16800000E+01           0.50370500E-01
   0.16900000E+01           0.46791400E-01
   0.17000000E+01           0.43502300E-01
   0.17100000E+01           0.40277600E-01
   0.17200000E+01           0.37444800E-01
   0.17300000E+01           0.34475100E-01
   0.17400000E+01           0.31863500E-01
   0.17500000E+01           0.29323400E-01
   0.17600000E+01           0.26943500E-01
   0.17700000E+01           0.24582700E-01
   0.17800000E+01           0.22474600E-01
   0.17900000E+01           0.20580800E-01
   0.18000000E+01           0.18654500E-01
   0.18100000E+01           0.16922000E-01
   0.18200000E+01           0.15297400E-01
   0.18300000E+01           0.13785900E-01
   0.18400000E+01           0.12442800E-01
   0.18500000E+01           0.11092800E-01
   0.18600000E+01           0.99020000E-02
   0.18700000E+01           0.86959000E-02
   0.18800000E+01           0.77767000E-02
   0.18900000E+01           0.68189000E-02
   0.19000000E+01           0.59407000E-02
   0.19100000E+01           0.51476000E-02
   0.19200000E+01           0.43990000E-02
   0.19300000E+01           0.37361000E-02
   0.19400000E+01           0.31945000E-02
   0.19500000E+01           0.26708000E-02
   0.19600000E+01           0.21716000E-02
   0.19700000E+01           0.17745000E-02
   0.19800000E+01           0.14027000E-02
   0.19900000E+01           0.10960000E-02
   0.20000000E+01           0.43430000E-03
 #T=    44.0000
  -0.20000000E+01           0.00000000E+00
  -0.19900000E+01           0.00000000E+00
  -0.19800000E+01           0.00000000E+00
  -0.19700000E+01           0.00000000E+00
  -0.19600000E+01           0.00000000E+00
  -0.19500000E+01           0.00000000E+00
  -0.19400000E+01           0.00000000E+00
  -0.19300000E+01           0.00000000E+00
  -0.19200000E+01           0.00000000E+00
  -0.19100000E+01           0.00000000E+00
  -0.19000000E+01           0.00000000E+00
  -0.18900000E+01           0.00000000E+00
  -0.18800000E+01           0.00000000E+00
  -0.18700000E+01           0.00000000E+00
  -0.18600000E+01           0.00000000E+00
  -0.18500000E+01           0.00000000E+00
  -0.18400000E+01           0.00000000E+00
  -0.18300000E+01           0.00000000E+00
  -0.18200000E+01           0.00000000E+00
  -0.18100000E+01           0.00000000E+00
  -0.18000000E+01           0.00000000E+00
  -0.17900000E+01           0.00000000E+00
  -0.17800000E+01           0.00000000E+00
  -0.17700000E+01           0.00000000E+00
  -0.17600000E+01           0.00000000E+00
  -0.17500000E+01           0.00000000E+00
  -0.17400000E+01           0.00000000E+00
  -0.17300000E+01           0.00000000E+00
  -0.17200000E+01           0.00000000E+00
  -0.17100000E+01           0.00000000E+00
  -0.17000000E+01           0.00000000E+00
  -0.16900000E+01           0.00000000E+00
  -0.16800000E+01           0.00000000E+00
  -0.16700000E+01           0.00000000E+00
  -0.16600000E+01           0.00000000E+00
  -0.16500000E+01           0.00000000E+00
  -0.16400000E+01           0.00000000E+00
  -0.16300000E+01           0.00000000E+00
  -0.16200000E+01           0.00000000E+00
  -0.16100000E+01           0.00000000E+00
  -0.16000000E+01           0.00000000E+00
  -0.15900000E+01           0.00000000E+00
  -0.15800000E+01           0.00000000E+00
  -0.15700000E+01           0.00000000E+00
  -0.15600000E+01           0.00000000E+00
  -0.15500000E+01           0.00000000E+00
  -0.15400000E+01           0.00000000E+00
  -0.15300000E+01           0.00000000E+00
  -0.15200000E+01           0.00000000E+00
  -0.15100000E+01           0.00000000E+00
  -0.15000000E+01           0.00000000E+00
  -0.14900000E+01           0.00000000E+00
  -0.14800000E+01           0.00000000E+00
  -0.14700000E+01           0.00000000E+00
  -0.14600000E+01           0.00000000E+00
  -0.14500000E+01           0.00000000E+00
  -0.14400000E+01           0.00000000E+00
  -0.14300000E+01           0.00000000E+00
  -0.14200000E+01           0.00000000E+00
  -0.14100000E+01           0.00000000E+00
  -0.14000000E+01           0.00000000E+00
  -0.13900000E+01           0.00000000E+00
  -0.13800000E+01           0.00000000E+00
  -0.13700000E+01           0.00000000E+00
  -0.13600000E+01           0.00000000E+00
  -0.13500000E+01           0.00000000E+00
  -0.13400000E+01           0.00000000E+00
  -0.13300000E+01           0.00000000E+00
  -0.13200000E+01           0.00000000E+00
  -0.13100000E+01           0.00000000E+00
  -0.13000000E+01           0.00000000E+00
  -0.12900000E+01           0.00000000E+00
  -0.12800000E+01           0.00000000E+00
  -0.12700000E+01           0.00000000E+00
  -0.12600000E+01           0.00000000E+00
  -0.12500000E+01           0.00000000E+00
  -0.12400000E+01           0.00000000E+00
  -0.12300000E+01           0.00000000E+00
  -0.12200000E+01           0.00000000E+00
  -0.12100000E+01           0.00000000E+00
  -0.12000000E+01           0.00000000E+00
  -0.11900000E+01           0.00000000E+00
  -0.11800000E+01           0.00000000E+00
  -0.11700000E+01           0.00000000E+00
  -0.11600000E+01           0.00000000E+00
  -0.11500000E+01           0.00000000E+00
  -0.11400000E+01           0.00000000E+00
  -0.11300000E+01           0.00000000E+00
  -0.11200000E+01           0.00000000E+00
  -0.11100000E+01           0.00000000E+00
  -0.11000000E+01           0.00000000E+00
  -0.10900000E+01           0.00000000E+00
  -0.10800000E+01           0.00000000E+00
  -0.10700000E+01           0.00000000E+00
  -0.10600000E+01           0.00000000E+00
  -0.10500000E+01           0.00000000E+00
  -0.10400000E+01           0.00000000E+00
  -0.10300000E+01           0.00000000E+00
  -0.10200000E+01           0.00000000E+00
  -0.10100000E+01           0.00000000E+00
  -0.10000000E+01           0.00000000E+00
  -0.99000000E+00           0.00000000E+00
  -0.98000000E+00           0.00000000E+00
  -0.97000000E+00           0.00000000E+00
  -0.96000000E+00           0.00000000E+00
  -0.95000000E+00           0.00000000E+00
  -0.94000000E+00           0.00000000E+00
  -0.93000000E+00           0.00000000E+00
  -0.92000000E+00           0.00000000E+00
  -0.91000000E+00           0.00000000E+00
  -0.90000000E+00           0.00000000E+00
  -0.89000000E+00           0.00000000E+00
  -0.88000000E+00           0.00000000E+00
  -0.87000000E+00           0.00000000E+00
  -0.86000000E+00           0.00000000E+00
  -0.85000000E+00           0.00000000E+00
  -0.84000000E+00           0.00000000E+00
  -0.83000000E+00           0.00000000E+00
  -0.82000000E+00           0.00000000E+00
  -0.81000000E+00           0.00000000E+00
  -0.80000000E+00           0.00000000E+00
  -0.79000000E+00           0.00000000E+00
  -0.78000000E+00           0.00000000E+00
  -0.77000000E+00           0.00000000E+00
  -0.76000000E+00           0.00000000E+00
  -0.75000000E+00           0.00000000E+00
  -0.74000000E+00           0.00000000E+00
  -0.73000000E+00           0.00000000E+00
  -0.72000000E+00           0.00000000E+00
  -0.71000000E+00           0.00000000E+00
  -0.70000000E+00           0.00000000E+00
  -0.69000000E+00           0.00000000E+00
  -0.68000000E+00           0.00000000E+00
  -0.67000000E+00           0.00000000E+00
  -0.66000000E+00           0.00000000E+00
  -0.65000000E+00           0.00000000E+00
  -0.64000000E+00           0.00000000E+00
  -0.63000000E+00           0.00000000E+00
  -0.62000000E+00           0.00000000E+00
  -0.61000000E+00           0.00000000E+00
  -0.60000000E+00           0.00000000E+00
  -0.59000000E+00           0.00000000E+00
  -0.58000000E+00           0.00000000E+00
  -0.57000000E+00           0.00000000E+00
  -0.56000000E+00           0.00000000E+00
  -0.55000000E+00           0.00000000E+00
  -0.54000000E+00           0.00000000E+00
  -0.53000000E+00           0.00000000E+00
  -0.52000000E+00           0.00000000E+00
  -0.51000000E+00           0.00000000E+00
  -0.50000000E+00           0.00000000E+00
  -0.49000000E+00           0.00000000E+00
  -0.48000000E+00           0.00000000E+00
  -0.47000000E+00           0.00000000E+00
  -0.46000000E+00           0.00000000E+00
  -0.45000000E+00           0.00000000E+00
  -0.44000000E+00           0.00000000E+00
  -0.43000000E+00           0.00000000E+00
  -0.42000000E+00           0.00000000E+00
  -0.41000000E+00           0.00000000E+00
  -0.40000000E+00           0.00000000E+00
  -0.39000000E+00           0.00000000E+00
  -0.38000000E+00           0.00000000E+00
  -0.37000000E+00           0.00000000E+00
  -0.36000000E+00           0.00000000E+00
  -0.35000000E+00           0.00000000E+00
  -0.34000000E+00           0.00000000E+00
  -0.33000000E+00           0.00000000E+00
  -0.32000000E+00           0.00000000E+00
  -0.31000000E+00           0.00000000E+00
  -0.30000000E+00           0.00000000E+00
  -0.29000000E+00           0.00000000E+00
  -0.28000000E+00           0.00000000E+00
  -0.27000000E+00           0.00000000E+00
  -0.26000000E+00           0.00000000E+00
  -0.25000000E+00           0.00000000E+00
  -0.24000000E+00           0.00000000E+00
  -0.23000000E+00           0.00000000E+00
  -0.22000000E+00           0.00000000E+00
  -0.21000000E+00           0.00000000E+00
  -0.20000000E+00           0.00000000E+00
  -0.19000000E+00           0.00000000E+00
  -0.18000000E+00           0.00000000E+00
  -0.17000000E+00           0.00000000E+00
  -0.16000000E+00           0.00000000E+00
  -0.15000000E+00           0.00000000E+00
  -0.14000000E+00           0.00000000E+00
  -0.13000000E+00           0.00000000E+00
  -0.12000000E+00           0.00000000E+00
  -0.11000000E+00           0.00000000E+00
  -0.10000000E+00           0.00000000E+00
  -0.90000000E-01           0.00000000E+00
  -0.80000000E-01           0.00000000E+00
  -0.70000000E-01           0.00000000E+00
  -0.60000000E-01           0.00000000E+00
  -0.50000000E-01           0.00000000E+00
  -0.40000000E-01           0.00000000E+00
  -0.30000000E-01           0.00000000E+00
  -0.20000000E-01           0.00000000E+00
  -0.10000000E-01           0.00000000E+00
   0.00000000E+00           0.32811000E-02
   0.10000000E-01           0.26360100E-01
   0.20000000E-01           0.52694000E-01
   0.30000000E-01           0.78553400E-01
   0.40000000E-01           0.10489410E+00
   0.50000000E-01           0.13109020E+00
   0.60000000E-01           0.15719640E+00
   0.70000000E-01           0.18316680E+00
   0.80000000E-01           0.20884900E+00
   0.90000000E-01           0.23454550E+00
   0.10000000E+00           0.26047380E+00
   0.11000000E+00           0.28528720E+00
   0.12000000E+00           0.31054850E+00
   0.13000000E+00           0.33544650E+00
   0.14000000E+00           0.35988460E+00
   0.15000000E+00           0.38396000E+00
   0.16000000E+00           0.40867260E+00
   0.17000000E+00           0.43222540E+00
   0.18000000E+00           0.45599000E+00
   0.19000000E+00           0.47910620E+00
   0.20000000E+00           0.50204790E+00
   0.21000000E+00           0.52511920E+00
   0.22000000E+00           0.54656180E+00
   0.23000000E+00           0.56886250E+00
   0.24000000E+00           0.58980200E+00
   0.25000000E+00           0.61202500E+00
   0.26000000E+00           0.63146430E+00
   0.27000000E+00           0.65229110E+00
   0.28000000E+00           0.67204690E+00
   0.29000000E+00           0.69102730E+00
   0.30000000E+00           0.71086960E+00
   0.31000000E+00           0.72881770E+00
   0.32000000E+00           0.74644470E+00
   0.33000000E+00           0.76459680E+00
   0.34000000E+00           0.78105630E+00
   0.35000000E+00           0.79793260E+00
   0.36000000E+00           0.81354240E+00
   0.37000000E+00           0.82894200E+00
   0.38000000E+00           0.84342310E+00
   0.39000000E+00           0.85764270E+00
   0.40000000E+00           0.87193350E+00
   0.41000000E+00           0.88499010E+00
   0.42000000E+00           0.89743020E+00
   0.43000000E+00           0.90989720E+00
   0.44000000E+00           0.92091010E+00
   0.45000000E+00           0.93263890E+00
   0.46000000E+00           0.94199420E+00
   0.47000000E+00           0.95231360E+00
   0.48000000E+00           0.96185530E+00
   0.49000000E+00           0.97016880E+00
   0.50000000E+00           0.97861790E+00
   0.51000000E+00           0.98563310E+00
   0.52000000E+00           0.99219400E+00
   0.53000000E+00           0.99804210E+00
   0.54000000E+00           0.10040474E+01
   0.55000000E+00           0.10100338E+01
   0.56000000E+00           0.10137228E+01
   0.57000000E+00           0.10184892E+01
   0.58000000E+00           0.10224276E+01
   0.59000000E+00           0.10247485E+01
   0.60000000E+00           0.10265498E+01
   0.61000000E+00           0.10292562E+01
   0.62000000E+00           0.10289736E+01
   0.63000000E+00           0.10296740E+01
   0.64000000E+00           0.10301218E+01
   0.65000000E+00           0.10290712E+01
   0.66000000E+00           0.10284551E+01
   0.67000000E+00           0.10273059E+01
   0.68000000E+00           0.10258095E+01
   0.69000000E+00           0.10227399E+01
   0.70000000E+00           0.10196517E+01
   0.71000000E+00           0.10159577E+01
   0.72000000E+00           0.10117656E+01
   0.73000000E+00           0.10068408E+01
   0.74000000E+00           0.10033942E+01
   0.75000000E+00           0.99687920E+00
   0.76000000E+00           0.99071010E+00
   0.77000000E+00           0.98484980E+00
   0.78000000E+00           0.97840540E+00
   0.79000000E+00           0.97168350E+00
   0.80000000E+00           0.96418280E+00
   0.81000000E+00           0.95583320E+00
   0.82000000E+00           0.94714480E+00
   0.83000000E+00           0.93864360E+00
   0.84000000E+00           0.92981060E+00
   0.85000000E+00           0.92006170E+00
   0.86000000E+00           0.91088330E+00
   0.87000000E+00           0.90134530E+00
   0.88000000E+00           0.89082390E+00
   0.89000000E+00           0.87997470E+00
   0.90000000E+00           0.86870440E+00
   0.91000000E+00           0.85733040E+00
   0.92000000E+00           0.84616750E+00
   0.93000000E+00           0.83433080E+00
   0.94000000E+00           0.82332010E+00
   0.95000000E+00           0.81106740E+00
   0.96000000E+00           0.79932290E+00
   0.97000000E+00           0.78637790E+00
   0.98000000E+00           0.77373220E+00
   0.99000000E+00           0.76122690E+00
   0.10000000E+01           0.74825410E+00
   0.10100000E+01           0.73530500E+00
   0.10200000E+01           0.72177480E+00
   0.10300000E+01           0.70884530E+00
   0.10400000E+01           0.69608180E+00
   0.10500000E+01           0.68158370E+00
   0.10600000E+01           0.66900710E+00
   0.10700000E+01           0.65501960E+00
   0.10800000E+01           0.64174780E+00
   0.10900000E+01           0.62803130E+00
   0.11000000E+01           0.61486220E+00
   0.11100000E+01           0.60086670E+00
   0.11200000E+01           0.58742220E+00
   0.11300000E+01           0.57341900E+00
   0.11400000E+01           0.56060730E+00
   0.11500000E+01           0.54715010E+00
   0.11600000E+01           0.53330030E+00
   0.11700000E+01           0.51982660E+00
   0.11800000E+01           0.50651790E+00
   0.11900000E+01           0.49296310E+00
   0.12000000E+01           0.47975800E+00
   0.12100000E+01           0.46686620E+00
   0.12200000E+01           0.45419480E+00
   0.12300000E+01           0.44115430E+00
   0.12400000E+01           0.42837570E+00
   0.12500000E+01           0.41566660E+00
   0.12600000E+01           0.40304570E+00
   0.12700000E+01           0.39133500E+00
   0.12800000E+01           0.37871870E+00
   0.12900000E+01           0.36620930E+00
   0.13000000E+01           0.35491770E+00
   0.13100000E+01           0.34321400E+00
   0.13200000E+01           0.33115970E+00
   0.13300000E+01           0.32032120E+00
   0.13400000E+01           0.30930410E+00
   0.13500000E+01           0.29809620E+00
   0.13600000E+01           0.28778440E+00
   0.13700000E+01           0.27684840E+00
   0.13800000E+01           0.26671100E+00
   0.13900000E+01           0.25649150E+00
   0.14000000E+01           0.24644210E+00
   0.14100000E+01           0.23636090E+00
   0.14200000E+01           0.22725730E+00
   0.14300000E+01           0.21834510E+00
   0.14400000E+01           0.20884340E+00
   0.14500000E+01           0.19990170E+00
   0.14600000E+01           0.19137900E+00
   0.14700000E+01           0.18282520E+00
   0.14800000E+01           0.17475240E+00
   0.14900000E+01           0.16714800E+00
   0.15000000E+01           0.15918480E+00
   0.15100000E+01           0.15182750E+00
   0.15200000E+01           0.14450480E+00
   0.15300000E+01           0.13734550E+00
   0.15400000E+01           0.13025830E+00
   0.15500000E+01           0.12410400E+00
   0.15600000E+01           0.11749810E+00
   0.15700000E+01           0.11138500E+00
   0.15800000E+01           0.10560620E+00
   0.15900000E+01           0.99658100E-01
   0.16000000E+01           0.93910900E-01
   0.16100000E+01           0.88527400E-01
   0.16200000E+01           0.83656000E-01
   0.16300000E+01           0.78529700E-01
   0.16400000E+01           0.73863000E-01
   0.16500000E+01           0.69354000E-01
   0.16600000E+01           0.64762700E-01
   0.16700000E+01           0.60920500E-01
   0.16800000E+01           0.56767600E-01
   0.16900000E+01           0.52963600E-01
   0.17000000E+01           0.49335800E-01
   0.17100000E+01           0.46037300E-01
   0.17200000E+01           0.42649300E-01
   0.17300000E+01           0.39454800E-01
   0.17400000E+01           0.36663100E-01
   0.17500000E+01           0.33896200E-01
   0.17600000E+01           0.31014500E-01
   0.17700000E+01           0.28445800E-01
   0.17800000E+01           0.26222500E-01
   0.17900000E+01           0.23964200E-01
   0.18000000E+01           0.21845800E-01
   0.18100000E+01           0.19927300E-01
   0.18200000E+01           0.18059900E-01
   0.18300000E+01           0.16314500E-01
   0.18400000E+01           0.14731100E-01
   0.18500000E+01           0.13289300E-01
   0.18600000E+01           0.11814000E-01
   0.18700000E+01           0.10616100E-01
   0.18800000E+01           0.93528000E-02
   0.18900000E+01           0.82667000E-02
   0.19000000E+01           0.72763000E-02
   0.19100000E+01           0.63257000E-02
   0.19200000E+01           0.54882000E-02
   0.19300000E+01           0.47205000E-02
   0.19400000E+01           0.40147000E-02
   0.19500000E+01           0.33899000E-02
   0.19600000E+01           0.28313000E-02
   0.19700000E+01           0.22842000E-02
   0.19800000E+01           0.18518000E-02
   0.19900000E+01           0.14676000E-02
   0.20000000E+01           0.59860000E-03
 #T=    45.0000
  -0.20000000E+01           0.00000000E+00
  -0.19900000E+01           0.00000000E+00
  -0.19800000E+01           0.00000000E+00
  -0.19700000E+01           0.00000000E+00
  -0.19600000E+01           0.00000000E+00
  -0.19500000E+01           0.00000000E+00
  -0.19400000E+01           0.00000000E+00
  -0.19300000E+01           0.00000000E+00
  -0.19200000E+01           0.00000000E+00
  -0.19100000E+01           0.00000000E+00
  -0.19000000E+01           0.00000000E+00
  -0.18900000E+01           0.00000000E+00
  -0.18800000E+01           0.00000000E+00
  -0.18700000E+01           0.00000000E+00
  -0.18600000E+01           0.00000000E+00
  -0.18500000E+01           0.00000000E+00
  -0.18400000E+01           0.00000000E+00
  -0.18300000E+01           0.00000000E+00
  -0.18200000E+01           0.00000000E+00
  -0.18100000E+01           0.00000000E+00
  -0.18000000E+01           0.00000000E+00
  -0.17900000E+01           0.00000000E+00
  -0.17800000E+01           0.00000000E+00
  -0.17700000E+01           0.00000000E+00
  -0.17600000E+01           0.00000000E+00
  -0.17500000E+01           0.00000000E+00
  -0.17400000E+01           0.00000000E+00
  -0.17300000E+01           0.00000000E+00
  -0.17200000E+01           0.00000000E+00
  -0.17100000E+01           0.00000000E+00
  -0.17000000E+01           0.00000000E+00
  -0.16900000E+01           0.00000000E+00
  -0.16800000E+01           0.00000000E+00
  -0.16700000E+01           0.00000000E+00
  -0.16600000E+01           0.00000000E+00
  -0.16500000E+01           0.00000000E+00
  -0.16400000E+01           0.00000000E+00
  -0.16300000E+01           0.00000000E+00
  -0.16200000E+01           0.00000000E+00
  -0.16100000E+01           0.00000000E+00
  -0.16000000E+01           0.00000000E+00
  -0.15900000E+01           0.00000000E+00
  -0.15800000E+01           0.00000000E+00
  -0.15700000E+01           0.00000000E+00
  -0.15600000E+01           0.00000000E+00
  -0.15500000E+01           0.00000000E+00
  -0.15400000E+01           0.00000000E+00
  -0.15300000E+01           0.00000000E+00
  -0.15200000E+01           0.00000000E+00
  -0.15100000E+01           0.00000000E+00
  -0.15000000E+01           0.00000000E+00
  -0.14900000E+01           0.00000000E+00
  -0.14800000E+01           0.00000000E+00
  -0.14700000E+01           0.00000000E+00
  -0.14600000E+01           0.00000000E+00
  -0.14500000E+01           0.00000000E+00
  -0.14400000E+01           0.00000000E+00
  -0.14300000E+01           0.00000000E+00
  -0.14200000E+01           0.00000000E+00
  -0.14100000E+01           0.00000000E+00
  -0.14000000E+01           0.00000000E+00
  -0.13900000E+01           0.00000000E+00
  -0.13800000E+01           0.00000000E+00
  -0.13700000E+01           0.00000000E+00
  -0.13600000E+01           0.00000000E+00
  -0.13500000E+01           0.00000000E+00
  -0.13400000E+01           0.00000000E+00
  -0.13300000E+01           0.00000000E+00
  -0.13200000E+01           0.00000000E+00
  -0.13100000E+01           0.00000000E+00
  -0.13000000E+01           0.00000000E+00
  -0.12900000E+01           0.00000000E+00
  -0.12800000E+01           0.00000000E+00
  -0.12700000E+01           0.00000000E+00
  -0.12600000E+01           0.00000000E+00
  -0.12500000E+01           0.00000000E+00
  -0.12400000E+01           0.00000000E+00
  -0.12300000E+01           0.00000000E+00
  -0.12200000E+01           0.00000000E+00
  -0.12100000E+01           0.00000000E+00
  -0.12000000E+01           0.00000000E+00
  -0.11900000E+01           0.00000000E+00
  -0.11800000E+01           0.00000000E+00
  -0.11700000E+01           0.00000000E+00
  -0.11600000E+01           0.00000000E+00
  -0.11500000E+01           0.00000000E+00
  -0.11400000E+01           0.00000000E+00
  -0.11300000E+01           0.00000000E+00
  -0.11200000E+01           0.00000000E+00
  -0.11100000E+01           0.00000000E+00
  -0.11000000E+01           0.00000000E+00
  -0.10900000E+01           0.00000000E+00
  -0.10800000E+01           0.00000000E+00
  -0.10700000E+01           0.00000000E+00
  -0.10600000E+01           0.00000000E+00
  -0.10500000E+01           0.00000000E+00
  -0.10400000E+01           0.00000000E+00
  -0.10300000E+01           0.00000000E+00
  -0.10200000E+01           0.00000000E+00
  -0.10100000E+01           0.00000000E+00
  -0.10000000E+01           0.00000000E+00
  -0.99000000E+00           0.00000000E+00
  -0.98000000E+00           0.00000000E+00
  -0.97000000E+00           0.00000000E+00
  -0.96000000E+00           0.00000000E+00
  -0.95000000E+00           0.00000000E+00
  -0.94000000E+00           0.00000000E+00
  -0.93000000E+00           0.00000000E+00
  -0.92000000E+00           0.00000000E+00
  -0.91000000E+00           0.00000000E+00
  -0.90000000E+00           0.00000000E+00
  -0.89000000E+00           0.00000000E+00
  -0.88000000E+00           0.00000000E+00
  -0.87000000E+00           0.00000000E+00
  -0.86000000E+00           0.00000000E+00
  -0.85000000E+00           0.00000000E+00
  -0.84000000E+00           0.00000000E+00
  -0.83000000E+00           0.00000000E+00
  -0.82000000E+00           0.00000000E+00
  -0.81000000E+00           0.00000000E+00
  -0.80000000E+00           0.00000000E+00
  -0.79000000E+00           0.00000000E+00
  -0.78000000E+00           0.00000000E+00
  -0.77000000E+00           0.00000000E+00
  -0.76000000E+00           0.00000000E+00
  -0.75000000E+00           0.00000000E+00
  -0.74000000E+00           0.00000000E+00
  -0.73000000E+00           0.00000000E+00
  -0.72000000E+00           0.00000000E+00
  -0.71000000E+00           0.00000000E+00
  -0.70000000E+00           0.00000000E+00
  -0.69000000E+00           0.00000000E+00
  -0.68000000E+00           0.00000000E+00
  -0.67000000E+00           0.00000000E+00
  -0.66000000E+00           0.00000000E+00
  -0.65000000E+00           0.00000000E+00
  -0.64000000E+00           0.00000000E+00
  -0.63000000E+00           0.00000000E+00
  -0.62000000E+00           0.00000000E+00
  -0.61000000E+00           0.00000000E+00
  -0.60000000E+00           0.00000000E+00
  -0.59000000E+00           0.00000000E+00
  -0.58000000E+00           0.00000000E+00
  -0.57000000E+00           0.00000000E+00
  -0.56000000E+00           0.00000000E+00
  -0.55000000E+00           0.00000000E+00
  -0.54000000E+00           0.00000000E+00
  -0.53000000E+00           0.00000000E+00
  -0.52000000E+00           0.00000000E+00
  -0.51000000E+00           0.00000000E+00
  -0.50000000E+00           0.00000000E+00
  -0.49000000E+00           0.00000000E+00
  -0.48000000E+00           0.00000000E+00
  -0.47000000E+00           0.00000000E+00
  -0.46000000E+00           0.00000000E+00
  -0.45000000E+00           0.00000000E+00
  -0.44000000E+00           0.00000000E+00
  -0.43000000E+00           0.00000000E+00
  -0.42000000E+00           0.00000000E+00
  -0.41000000E+00           0.00000000E+00
  -0.40000000E+00           0.00000000E+00
  -0.39000000E+00           0.00000000E+00
  -0.38000000E+00           0.00000000E+00
  -0.37000000E+00           0.00000000E+00
  -0.36000000E+00           0.00000000E+00
  -0.35000000E+00           0.00000000E+00
  -0.34000000E+00           0.00000000E+00
  -0.33000000E+00           0.00000000E+00
  -0.32000000E+00           0.00000000E+00
  -0.31000000E+00           0.00000000E+00
  -0.30000000E+00           0.00000000E+00
  -0.29000000E+00           0.00000000E+00
  -0.28000000E+00           0.00000000E+00
  -0.27000000E+00           0.00000000E+00
  -0.26000000E+00           0.00000000E+00
  -0.25000000E+00           0.00000000E+00
  -0.24000000E+00           0.00000000E+00
  -0.23000000E+00           0.00000000E+00
  -0.22000000E+00           0.00000000E+00
  -0.21000000E+00           0.00000000E+00
  -0.20000000E+00           0.00000000E+00
  -0.19000000E+00           0.00000000E+00
  -0.18000000E+00           0.00000000E+00
  -0.17000000E+00           0.00000000E+00
  -0.16000000E+00           0.00000000E+00
  -0.15000000E+00           0.00000000E+00
  -0.14000000E+00           0.00000000E+00
  -0.13000000E+00           0.00000000E+00
  -0.12000000E+00           0.00000000E+00
  -0.11000000E+00           0.00000000E+00
  -0.10000000E+00           0.00000000E+00
  -0.90000000E-01           0.00000000E+00
  -0.80000000E-01           0.00000000E+00
  -0.70000000E-01           0.00000000E+00
  -0.60000000E-01           0.00000000E+00
  -0.50000000E-01           0.00000000E+00
  -0.40000000E-01           0.00000000E+00
  -0.30000000E-01           0.00000000E+00
  -0.20000000E-01           0.00000000E+00
  -0.10000000E-01           0.00000000E+00
   0.00000000E+00           0.32394000E-02
   0.10000000E-01           0.25608200E-01
   0.20000000E-01           0.51096100E-01
   0.30000000E-01           0.76500700E-01
   0.40000000E-01           0.10247050E+00
   0.50000000E-01           0.12725090E+00
   0.60000000E-01           0.15294640E+00
   0.70000000E-01           0.17827310E+00
   0.80000000E-01           0.20318710E+00
   0.90000000E-01           0.22785850E+00
   0.10000000E+00           0.25300280E+00
   0.11000000E+00           0.27732050E+00
   0.12000000E+00           0.30217770E+00
   0.13000000E+00           0.32633150E+00
   0.14000000E+00           0.34993230E+00
   0.15000000E+00           0.37438190E+00
   0.16000000E+00           0.39733660E+00
   0.17000000E+00           0.42070780E+00
   0.18000000E+00           0.44401440E+00
   0.19000000E+00           0.46658690E+00
   0.20000000E+00           0.48957230E+00
   0.21000000E+00           0.51134970E+00
   0.22000000E+00           0.53311810E+00
   0.23000000E+00           0.55383480E+00
   0.24000000E+00           0.57474470E+00
   0.25000000E+00           0.59558120E+00
   0.26000000E+00           0.61625250E+00
   0.27000000E+00           0.63617620E+00
   0.28000000E+00           0.65551420E+00
   0.29000000E+00           0.67424310E+00
   0.30000000E+00           0.69220950E+00
   0.31000000E+00           0.71075210E+00
   0.32000000E+00           0.72859750E+00
   0.33000000E+00           0.74578900E+00
   0.34000000E+00           0.76255170E+00
   0.35000000E+00           0.77953060E+00
   0.36000000E+00           0.79429020E+00
   0.37000000E+00           0.80984620E+00
   0.38000000E+00           0.82417450E+00
   0.39000000E+00           0.83892680E+00
   0.40000000E+00           0.85230970E+00
   0.41000000E+00           0.86587950E+00
   0.42000000E+00           0.87828780E+00
   0.43000000E+00           0.89038990E+00
   0.44000000E+00           0.90079150E+00
   0.45000000E+00           0.91308770E+00
   0.46000000E+00           0.92343420E+00
   0.47000000E+00           0.93315570E+00
   0.48000000E+00           0.94246860E+00
   0.49000000E+00           0.95155860E+00
[...]
   0.13800000E+01           0.69280700E+00
   0.13900000E+01           0.69648340E+00
   0.14000000E+01           0.70067520E+00
   0.14100000E+01           0.70430870E+00
   0.14200000E+01           0.70863440E+00
   0.14300000E+01           0.71249530E+00
   0.14400000E+01           0.71661930E+00
   0.14500000E+01           0.71993090E+00
   0.14600000E+01           0.72420160E+00
   0.14700000E+01           0.72765480E+00
   0.14800000E+01           0.73140500E+00
   0.14900000E+01           0.73534540E+00
   0.15000000E+01           0.73928550E+00
   0.15100000E+01           0.74302880E+00
   0.15200000E+01           0.74695810E+00
   0.15300000E+01           0.75094940E+00
   0.15400000E+01           0.75439530E+00
   0.15500000E+01           0.75791090E+00
   0.15600000E+01           0.76162600E+00
   0.15700000E+01           0.76531760E+00
   0.15800000E+01           0.76870240E+00
   0.15900000E+01           0.77243270E+00
   0.16000000E+01           0.77554900E+00
   0.16100000E+01           0.78020680E+00
   0.16200000E+01           0.78322960E+00
   0.16300000E+01           0.78668840E+00
   0.16400000E+01           0.79017430E+00
   0.16500000E+01           0.79384040E+00
   0.16600000E+01           0.79692960E+00
   0.16700000E+01           0.80084640E+00
   0.16800000E+01           0.80413110E+00
   0.16900000E+01           0.80706950E+00
   0.17000000E+01           0.81093130E+00
   0.17100000E+01           0.81353010E+00
   0.17200000E+01           0.81689290E+00
   0.17300000E+01           0.82099750E+00
   0.17400000E+01           0.82361390E+00
   0.17500000E+01           0.82704240E+00
   0.17600000E+01           0.82994880E+00
   0.17700000E+01           0.83380390E+00
   0.17800000E+01           0.83689960E+00
   0.17900000E+01           0.83959810E+00
   0.18000000E+01           0.84320710E+00
   0.18100000E+01           0.84630110E+00
   0.18200000E+01           0.84944430E+00
   0.18300000E+01           0.85203140E+00
   0.18400000E+01           0.85534140E+00
   0.18500000E+01           0.85829050E+00
   0.18600000E+01           0.86118980E+00
   0.18700000E+01           0.86455250E+00
   0.18800000E+01           0.86716740E+00
   0.18900000E+01           0.86993000E+00
   0.19000000E+01           0.87265890E+00
   0.19100000E+01           0.87570780E+00
   0.19200000E+01           0.87785250E+00
   0.19300000E+01           0.88174290E+00
   0.19400000E+01           0.88415710E+00
   0.19500000E+01           0.88725720E+00
   0.19600000E+01           0.88918240E+00
   0.19700000E+01           0.89262570E+00
   0.19800000E+01           0.89510610E+00
   0.19900000E+01           0.89793780E+00
   0.20000000E+01           0.44990250E+00
 #T=   120.0000
  -0.20000000E+01           0.00000000E+00
  -0.19900000E+01           0.00000000E+00
  -0.19800000E+01           0.00000000E+00
  -0.19700000E+01           0.00000000E+00
  -0.19600000E+01           0.00000000E+00
  -0.19500000E+01           0.00000000E+00
  -0.19400000E+01           0.00000000E+00
  -0.19300000E+01           0.00000000E+00
  -0.19200000E+01           0.00000000E+00
  -0.19100000E+01           0.00000000E+00
  -0.19000000E+01           0.00000000E+00
  -0.18900000E+01           0.00000000E+00
  -0.18800000E+01           0.00000000E+00
  -0.18700000E+01           0.00000000E+00
  -0.18600000E+01           0.00000000E+00
  -0.18500000E+01           0.00000000E+00
  -0.18400000E+01           0.00000000E+00
  -0.18300000E+01           0.00000000E+00
  -0.18200000E+01           0.00000000E+00
  -0.18100000E+01           0.00000000E+00
  -0.18000000E+01           0.00000000E+00
  -0.17900000E+01           0.00000000E+00
  -0.17800000E+01           0.00000000E+00
  -0.17700000E+01           0.00000000E+00
  -0.17600000E+01           0.00000000E+00
  -0.17500000E+01           0.00000000E+00
  -0.17400000E+01           0.00000000E+00
  -0.17300000E+01           0.00000000E+00
  -0.17200000E+01           0.00000000E+00
  -0.17100000E+01           0.00000000E+00
  -0.17000000E+01           0.00000000E+00
  -0.16900000E+01           0.00000000E+00
  -0.16800000E+01           0.00000000E+00
  -0.16700000E+01           0.00000000E+00
  -0.16600000E+01           0.00000000E+00
  -0.16500000E+01           0.00000000E+00
  -0.16400000E+01           0.00000000E+00
  -0.16300000E+01           0.00000000E+00
  -0.16200000E+01           0.00000000E+00
  -0.16100000E+01           0.00000000E+00
  -0.16000000E+01           0.00000000E+00
  -0.15900000E+01           0.00000000E+00
  -0.15800000E+01           0.00000000E+00
  -0.15700000E+01           0.00000000E+00
  -0.15600000E+01           0.00000000E+00
  -0.15500000E+01           0.00000000E+00
  -0.15400000E+01           0.00000000E+00
  -0.15300000E+01           0.00000000E+00
  -0.15200000E+01           0.00000000E+00
  -0.15100000E+01           0.00000000E+00
  -0.15000000E+01           0.00000000E+00
  -0.14900000E+01           0.00000000E+00
  -0.14800000E+01           0.00000000E+00
  -0.14700000E+01           0.00000000E+00
  -0.14600000E+01           0.00000000E+00
  -0.14500000E+01           0.00000000E+00
  -0.14400000E+01           0.00000000E+00
  -0.14300000E+01           0.00000000E+00
  -0.14200000E+01           0.00000000E+00
  -0.14100000E+01           0.00000000E+00
  -0.14000000E+01           0.00000000E+00
  -0.13900000E+01           0.00000000E+00
  -0.13800000E+01           0.00000000E+00
  -0.13700000E+01           0.00000000E+00
  -0.13600000E+01           0.00000000E+00
  -0.13500000E+01           0.00000000E+00
  -0.13400000E+01           0.00000000E+00
  -0.13300000E+01           0.00000000E+00
  -0.13200000E+01           0.00000000E+00
  -0.13100000E+01           0.00000000E+00
  -0.13000000E+01           0.00000000E+00
  -0.12900000E+01           0.00000000E+00
  -0.12800000E+01           0.00000000E+00
  -0.12700000E+01           0.00000000E+00
  -0.12600000E+01           0.00000000E+00
  -0.12500000E+01           0.00000000E+00
  -0.12400000E+01           0.00000000E+00
  -0.12300000E+01           0.00000000E+00
  -0.12200000E+01           0.00000000E+00
  -0.12100000E+01           0.00000000E+00
  -0.12000000E+01           0.00000000E+00
  -0.11900000E+01           0.00000000E+00
  -0.11800000E+01           0.00000000E+00
  -0.11700000E+01           0.00000000E+00
  -0.11600000E+01           0.00000000E+00
  -0.11500000E+01           0.00000000E+00
  -0.11400000E+01           0.00000000E+00
  -0.11300000E+01           0.00000000E+00
  -0.11200000E+01           0.00000000E+00
  -0.11100000E+01           0.00000000E+00
  -0.11000000E+01           0.00000000E+00
  -0.10900000E+01           0.00000000E+00
  -0.10800000E+01           0.00000000E+00
  -0.10700000E+01           0.00000000E+00
  -0.10600000E+01           0.00000000E+00
  -0.10500000E+01           0.00000000E+00
  -0.10400000E+01           0.00000000E+00
  -0.10300000E+01           0.00000000E+00
  -0.10200000E+01           0.00000000E+00
  -0.10100000E+01           0.00000000E+00
  -0.10000000E+01           0.00000000E+00
  -0.99000000E+00           0.00000000E+00
  -0.98000000E+00           0.00000000E+00
  -0.97000000E+00           0.00000000E+00
  -0.96000000E+00           0.00000000E+00
  -0.95000000E+00           0.00000000E+00
  -0.94000000E+00           0.00000000E+00
  -0.93000000E+00           0.00000000E+00
  -0.92000000E+00           0.00000000E+00
  -0.91000000E+00           0.00000000E+00
  -0.90000000E+00           0.00000000E+00
  -0.89000000E+00           0.00000000E+00
  -0.88000000E+00           0.00000000E+00
  -0.87000000E+00           0.00000000E+00
  -0.86000000E+00           0.00000000E+00
  -0.85000000E+00           0.00000000E+00
  -0.84000000E+00           0.00000000E+00
  -0.83000000E+00           0.00000000E+00
  -0.82000000E+00           0.00000000E+00
  -0.81000000E+00           0.00000000E+00
  -0.80000000E+00           0.00000000E+00
  -0.79000000E+00           0.00000000E+00
  -0.78000000E+00           0.00000000E+00
  -0.77000000E+00           0.00000000E+00
  -0.76000000E+00           0.00000000E+00
  -0.75000000E+00           0.00000000E+00
  -0.74000000E+00           0.00000000E+00
  -0.73000000E+00           0.00000000E+00
  -0.72000000E+00           0.00000000E+00
  -0.71000000E+00           0.00000000E+00
  -0.70000000E+00           0.00000000E+00
  -0.69000000E+00           0.00000000E+00
  -0.68000000E+00           0.00000000E+00
  -0.67000000E+00           0.00000000E+00
  -0.66000000E+00           0.00000000E+00
  -0.65000000E+00           0.00000000E+00
  -0.64000000E+00           0.00000000E+00
  -0.63000000E+00           0.00000000E+00
  -0.62000000E+00           0.00000000E+00
  -0.61000000E+00           0.00000000E+00
  -0.60000000E+00           0.00000000E+00
  -0.59000000E+00           0.00000000E+00
  -0.58000000E+00           0.00000000E+00
  -0.57000000E+00           0.00000000E+00
  -0.56000000E+00           0.00000000E+00
  -0.55000000E+00           0.00000000E+00
  -0.54000000E+00           0.00000000E+00
  -0.53000000E+00           0.00000000E+00
  -0.52000000E+00           0.00000000E+00
  -0.51000000E+00           0.00000000E+00
  -0.50000000E+00           0.00000000E+00
  -0.49000000E+00           0.00000000E+00
  -0.48000000E+00           0.00000000E+00
  -0.47000000E+00           0.00000000E+00
  -0.46000000E+00           0.00000000E+00
  -0.45000000E+00           0.00000000E+00
  -0.44000000E+00           0.00000000E+00
  -0.43000000E+00           0.00000000E+00
  -0.42000000E+00           0.00000000E+00
  -0.41000000E+00           0.00000000E+00
  -0.40000000E+00           0.00000000E+00
  -0.39000000E+00           0.00000000E+00
  -0.38000000E+00           0.00000000E+00
  -0.37000000E+00           0.00000000E+00
  -0.36000000E+00           0.00000000E+00
  -0.35000000E+00           0.00000000E+00
  -0.34000000E+00           0.00000000E+00
  -0.33000000E+00           0.00000000E+00
  -0.32000000E+00           0.00000000E+00
  -0.31000000E+00           0.00000000E+00
  -0.30000000E+00           0.00000000E+00
  -0.29000000E+00           0.00000000E+00
  -0.28000000E+00           0.00000000E+00
  -0.27000000E+00           0.00000000E+00
  -0.26000000E+00           0.00000000E+00
  -0.25000000E+00           0.00000000E+00
  -0.24000000E+00           0.00000000E+00
  -0.23000000E+00           0.00000000E+00
  -0.22000000E+00           0.00000000E+00
  -0.21000000E+00           0.00000000E+00
  -0.20000000E+00           0.00000000E+00
  -0.19000000E+00           0.00000000E+00
  -0.18000000E+00           0.00000000E+00
  -0.17000000E+00           0.00000000E+00
  -0.16000000E+00           0.00000000E+00
  -0.15000000E+00           0.00000000E+00
  -0.14000000E+00           0.00000000E+00
  -0.13000000E+00           0.00000000E+00
  -0.12000000E+00           0.00000000E+00
  -0.11000000E+00           0.00000000E+00
  -0.10000000E+00           0.00000000E+00
  -0.90000000E-01           0.00000000E+00
  -0.80000000E-01           0.00000000E+00
  -0.70000000E-01           0.00000000E+00
  -0.60000000E-01           0.00000000E+00
  -0.50000000E-01           0.00000000E+00
  -0.40000000E-01           0.00000000E+00
  -0.30000000E-01           0.00000000E+00
  -0.20000000E-01           0.00000000E+00
  -0.10000000E-01           0.00000000E+00
   0.00000000E+00           0.69030000E-03
   0.10000000E-01           0.55135000E-02
   0.20000000E-01           0.11024900E-01
   0.30000000E-01           0.16471400E-01
   0.40000000E-01           0.22047100E-01
   0.50000000E-01           0.27581400E-01
   0.60000000E-01           0.33084100E-01
   0.70000000E-01           0.38484400E-01
   0.80000000E-01           0.44084400E-01
   0.90000000E-01           0.49691600E-01
   0.10000000E+00           0.55171700E-01
   0.11000000E+00           0.60747700E-01
   0.12000000E+00           0.66177400E-01
   0.13000000E+00           0.71548500E-01
   0.14000000E+00           0.77050000E-01
   0.15000000E+00           0.82794700E-01
   0.16000000E+00           0.88197600E-01
   0.17000000E+00           0.93631300E-01
   0.18000000E+00           0.99044800E-01
   0.19000000E+00           0.10456240E+00
   0.20000000E+00           0.11003620E+00
   0.21000000E+00           0.11546250E+00
   0.22000000E+00           0.12110970E+00
   0.23000000E+00           0.12644910E+00
   0.24000000E+00           0.13206010E+00
   0.25000000E+00           0.13739370E+00
   0.26000000E+00           0.14294650E+00
   0.27000000E+00           0.14852030E+00
   0.28000000E+00           0.15376420E+00
   0.29000000E+00           0.15910060E+00
   0.30000000E+00           0.16466350E+00
   0.31000000E+00           0.17016340E+00
   0.32000000E+00           0.17551600E+00
   0.33000000E+00           0.18103690E+00
   0.34000000E+00           0.18628730E+00
   0.35000000E+00           0.19200520E+00
   0.36000000E+00           0.19720840E+00
   0.37000000E+00           0.20254820E+00
   0.38000000E+00           0.20847490E+00
   0.39000000E+00           0.21322510E+00
   0.40000000E+00           0.21884070E+00
   0.41000000E+00           0.22428140E+00
   0.42000000E+00           0.22963470E+00
   0.43000000E+00           0.23498470E+00
   0.44000000E+00           0.24003040E+00
   0.45000000E+00           0.24560790E+00
   0.46000000E+00           0.25107020E+00
   0.47000000E+00           0.25663850E+00
   0.48000000E+00           0.26169850E+00
   0.49000000E+00           0.26715380E+00
   0.50000000E+00           0.27261500E+00
   0.51000000E+00           0.27795160E+00
   0.52000000E+00           0.28288800E+00
   0.53000000E+00           0.28828310E+00
   0.54000000E+00           0.29353350E+00
   0.55000000E+00           0.29867700E+00
   0.56000000E+00           0.30415300E+00
   0.57000000E+00           0.30935820E+00
   0.58000000E+00           0.31460440E+00
   0.59000000E+00           0.31970110E+00
   0.60000000E+00           0.32490590E+00
   0.61000000E+00           0.33019890E+00
   0.62000000E+00           0.33544590E+00
   0.63000000E+00           0.34098350E+00
   0.64000000E+00           0.34565120E+00
   0.65000000E+00           0.35100530E+00
   0.66000000E+00           0.35612170E+00
   0.67000000E+00           0.36126380E+00
   0.68000000E+00           0.36632810E+00
   0.69000000E+00           0.37162090E+00
   0.70000000E+00           0.37698270E+00
   0.71000000E+00           0.38153600E+00
   0.72000000E+00           0.38699210E+00
   0.73000000E+00           0.39207770E+00
   0.74000000E+00           0.39733750E+00
   0.75000000E+00           0.40236610E+00
   0.76000000E+00           0.40686810E+00
   0.77000000E+00           0.41230260E+00
   0.78000000E+00           0.41757040E+00
   0.79000000E+00           0.42240290E+00
   0.80000000E+00           0.42757920E+00
   0.81000000E+00           0.43224250E+00
   0.82000000E+00           0.43668640E+00
   0.83000000E+00           0.44245210E+00
   0.84000000E+00           0.44723740E+00
   0.85000000E+00           0.45215420E+00
   0.86000000E+00           0.45750590E+00
   0.87000000E+00           0.46180980E+00
   0.88000000E+00           0.46722550E+00
   0.89000000E+00           0.47219060E+00
   0.90000000E+00           0.47684660E+00
   0.91000000E+00           0.48169440E+00
   0.92000000E+00           0.48660140E+00
   0.93000000E+00           0.49140270E+00
   0.94000000E+00           0.49613590E+00
   0.95000000E+00           0.50117690E+00
   0.96000000E+00           0.50576210E+00
   0.97000000E+00           0.51070640E+00
   0.98000000E+00           0.51549720E+00
   0.99000000E+00           0.51989800E+00
   0.10000000E+01           0.52501600E+00
   0.10100000E+01           0.52963730E+00
   0.10200000E+01           0.53438610E+00
   0.10300000E+01           0.53857360E+00
   0.10400000E+01           0.54356620E+00
   0.10500000E+01           0.54782560E+00
   0.10600000E+01           0.55329150E+00
   0.10700000E+01           0.55740980E+00
   0.10800000E+01           0.56226440E+00
   0.10900000E+01           0.56665840E+00
   0.11000000E+01           0.57119410E+00
   0.11100000E+01           0.57564810E+00
   0.11200000E+01           0.58084570E+00
   0.11300000E+01           0.58475340E+00
   0.11400000E+01           0.58958720E+00
   0.11500000E+01           0.59388120E+00
   0.11600000E+01           0.59852850E+00
   0.11700000E+01           0.60304090E+00
   0.11800000E+01           0.60698390E+00
   0.11900000E+01           0.61172560E+00
   0.12000000E+01           0.61613590E+00
   0.12100000E+01           0.62062200E+00
   0.12200000E+01           0.62458500E+00
   0.12300000E+01           0.62891720E+00
   0.12400000E+01           0.63339460E+00
   0.12500000E+01           0.63818350E+00
   0.12600000E+01           0.64210820E+00
   0.12700000E+01           0.64660090E+00
   0.12800000E+01           0.65070390E+00
   0.12900000E+01           0.65491900E+00
   0.13000000E+01           0.65961200E+00
   0.13100000E+01           0.66369080E+00
   0.13200000E+01           0.66772390E+00
   0.13300000E+01           0.67184150E+00
   0.13400000E+01           0.67621240E+00
   0.13500000E+01           0.67976050E+00
   0.13600000E+01           0.68444720E+00
   0.13700000E+01           0.68808220E+00
   0.13800000E+01           0.69195550E+00
   0.13900000E+01           0.69668750E+00
   0.14000000E+01           0.70031450E+00
   0.14100000E+01           0.70399650E+00
   0.14200000E+01           0.70788910E+00
   0.14300000E+01           0.71255800E+00
   0.14400000E+01           0.71620550E+00
   0.14500000E+01           0.72006220E+00
   0.14600000E+01           0.72412520E+00
   0.14700000E+01           0.72789630E+00
   0.14800000E+01           0.73153780E+00
   0.14900000E+01           0.73676660E+00
   0.15000000E+01           0.73963870E+00
   0.15100000E+01           0.74373590E+00
   0.15200000E+01           0.74694080E+00
   0.15300000E+01           0.75129470E+00
   0.15400000E+01           0.75472820E+00
   0.15500000E+01           0.75795620E+00
   0.15600000E+01           0.76219580E+00
   0.15700000E+01           0.76568710E+00
   0.15800000E+01           0.76961670E+00
   0.15900000E+01           0.77344430E+00
   0.16000000E+01           0.77644660E+00
   0.16100000E+01           0.78046220E+00
   0.16200000E+01           0.78399720E+00
   0.16300000E+01           0.78702060E+00
   0.16400000E+01           0.79085270E+00
   0.16500000E+01           0.79457980E+00
   0.16600000E+01           0.79770770E+00
   0.16700000E+01           0.80165340E+00
   0.16800000E+01           0.80489250E+00
   0.16900000E+01           0.80853980E+00
   0.17000000E+01           0.81245010E+00
   0.17100000E+01           0.81454840E+00
   0.17200000E+01           0.81834640E+00
   0.17300000E+01           0.82163390E+00
   0.17400000E+01           0.82514660E+00
   0.17500000E+01           0.82824370E+00
   0.17600000E+01           0.83131270E+00
   0.17700000E+01           0.83463570E+00
   0.17800000E+01           0.83784650E+00
   0.17900000E+01           0.84128950E+00
   0.18000000E+01           0.84406920E+00
   0.18100000E+01           0.84737200E+00
   0.18200000E+01           0.85083890E+00
   0.18300000E+01           0.85360340E+00
   0.18400000E+01           0.85700910E+00
   0.18500000E+01           0.86001220E+00
   0.18600000E+01           0.86325810E+00
   0.18700000E+01           0.86608980E+00
   0.18800000E+01           0.86885850E+00
   0.18900000E+01           0.87175220E+00
   0.19000000E+01           0.87437620E+00
   0.19100000E+01           0.87769690E+00
   0.19200000E+01           0.88068530E+00
   0.19300000E+01           0.88344730E+00
   0.19400000E+01           0.88613880E+00
   0.19500000E+01           0.88907550E+00
   0.19600000E+01           0.89228150E+00
   0.19700000E+01           0.89478710E+00
   0.19800000E+01           0.89811300E+00
   0.19900000E+01           0.90002620E+00
   0.20000000E+01           0.45126830E+00
