 #written on 20Dec2024 at 17:45:30 
 #----------------- MONTECARLO -------------------#
 #        M                      P(M)             #
 #------------------------------------------------#
 #T=     5.0000
  -0.20000000E+01           0.00000000E+00
  -0.19900000E+01           0.00000000E+00
  -0.19800000E+01           0.00000000E+00
  -0.19700000E+01           0.00000000E+00
  -0.19600000E+01           0.00000000E+00
  -0.19500000E+01           0.00000000E+00
  -0.19400000E+01           0.00000000E+00
  -0.19300000E+01           0.00000000E+00
  -0.19200000E+01           0.00000000E+00
  -0.19100000E+01           0.00000000E+00
  -0.19000000E+01           0.00000000E+00
  -0.18900000E+01           0.00000000E+00
  -0.18800000E+01           0.00000000E+00
  -0.18700000E+01           0.00000000E+00
  -0.18600000E+01           0.00000000E+00
  -0.18500000E+01           0.00000000E+00
  -0.18400000E+01           0.00000000E+00
  -0.18300000E+01           0.00000000E+00
  -0.18200000E+01           0.00000000E+00
  -0.18100000E+01           0.00000000E+00
  -0.18000000E+01           0.00000000E+00
  -0.17900000E+01           0.00000000E+00
  -0.17800000E+01           0.00000000E+00
  -0.17700000E+01           0.00000000E+00
  -0.17600000E+01           0.00000000E+00
  -0.17500000E+01           0.00000000E+00
  -0.17400000E+01           0.00000000E+00
  -0.17300000E+01           0.00000000E+00
  -0.17200000E+01           0.00000000E+00
  -0.17100000E+01           0.00000000E+00
  -0.17000000E+01           0.00000000E+00
  -0.16900000E+01           0.00000000E+00
  -0.16800000E+01           0.00000000E+00
  -0.16700000E+01           0.00000000E+00
  -0.16600000E+01           0.00000000E+00
  -0.16500000E+01           0.00000000E+00
  -0.16400000E+01           0.00000000E+00
  -0.16300000E+01           0.00000000E+00
  -0.16200000E+01           0.00000000E+00
  -0.16100000E+01           0.00000000E+00
  -0.16000000E+01           0.00000000E+00
  -0.15900000E+01           0.00000000E+00
  -0.15800000E+01           0.00000000E+00
  -0.15700000E+01           0.00000000E+00
  -0.15600000E+01           0.00000000E+00
  -0.15500000E+01           0.00000000E+00
  -0.15400000E+01           0.00000000E+00
  -0.15300000E+01           0.00000000E+00
  -0.15200000E+01           0.00000000E+00
  -0.15100000E+01           0.00000000E+00
  -0.15000000E+01           0.00000000E+00
  -0.14900000E+01           0.00000000E+00
  -0.14800000E+01           0.00000000E+00
  -0.14700000E+01           0.00000000E+00
  -0.14600000E+01           0.00000000E+00
  -0.14500000E+01           0.00000000E+00
  -0.14400000E+01           0.00000000E+00
  -0.14300000E+01           0.00000000E+00
  -0.14200000E+01           0.00000000E+00
  -0.14100000E+01           0.00000000E+00
  -0.14000000E+01           0.00000000E+00
  -0.13900000E+01           0.00000000E+00
  -0.13800000E+01           0.00000000E+00
  -0.13700000E+01           0.00000000E+00
  -0.13600000E+01           0.00000000E+00
  -0.13500000E+01           0.00000000E+00
  -0.13400000E+01           0.00000000E+00
  -0.13300000E+01           0.00000000E+00
  -0.13200000E+01           0.00000000E+00
  -0.13100000E+01           0.00000000E+00
  -0.13000000E+01           0.00000000E+00
  -0.12900000E+01           0.00000000E+00
  -0.12800000E+01           0.00000000E+00
  -0.12700000E+01           0.00000000E+00
  -0.12600000E+01           0.00000000E+00
  -0.12500000E+01           0.00000000E+00
  -0.12400000E+01           0.00000000E+00
  -0.12300000E+01           0.00000000E+00
  -0.12200000E+01           0.00000000E+00
  -0.12100000E+01           0.00000000E+00
  -0.12000000E+01           0.00000000E+00
  -0.11900000E+01           0.00000000E+00
  -0.11800000E+01           0.00000000E+00
  -0.11700000E+01           0.00000000E+00
  -0.11600000E+01           0.00000000E+00
  -0.11500000E+01           0.00000000E+00
  -0.11400000E+01           0.00000000E+00
  -0.11300000E+01           0.00000000E+00
  -0.11200000E+01           0.00000000E+00
  -0.11100000E+01           0.00000000E+00
  -0.11000000E+01           0.00000000E+00
  -0.10900000E+01           0.00000000E+00
  -0.10800000E+01           0.00000000E+00
  -0.10700000E+01           0.00000000E+00
  -0.10600000E+01           0.00000000E+00
  -0.10500000E+01           0.00000000E+00
  -0.10400000E+01           0.00000000E+00
  -0.10300000E+01           0.00000000E+00
  -0.10200000E+01           0.00000000E+00
  -0.10100000E+01           0.00000000E+00
  -0.10000000E+01           0.00000000E+00
  -0.99000000E+00           0.00000000E+00
  -0.98000000E+00           0.00000000E+00
  -0.97000000E+00           0.00000000E+00
  -0.96000000E+00           0.00000000E+00
  -0.95000000E+00           0.00000000E+00
  -0.94000000E+00           0.00000000E+00
  -0.93000000E+00           0.00000000E+00
  -0.92000000E+00           0.00000000E+00
  -0.91000000E+00           0.00000000E+00
  -0.90000000E+00           0.00000000E+00
  -0.89000000E+00           0.00000000E+00
  -0.88000000E+00           0.00000000E+00
  -0.87000000E+00           0.00000000E+00
  -0.86000000E+00           0.00000000E+00
  -0.85000000E+00           0.00000000E+00
  -0.84000000E+00           0.00000000E+00
  -0.83000000E+00           0.00000000E+00
  -0.82000000E+00           0.00000000E+00
  -0.81000000E+00           0.00000000E+00
  -0.80000000E+00           0.00000000E+00
  -0.79000000E+00           0.00000000E+00
  -0.78000000E+00           0.00000000E+00
  -0.77000000E+00           0.00000000E+00
  -0.76000000E+00           0.00000000E+00
  -0.75000000E+00           0.00000000E+00
  -0.74000000E+00           0.00000000E+00
  -0.73000000E+00           0.00000000E+00
  -0.72000000E+00           0.00000000E+00
  -0.71000000E+00           0.00000000E+00
  -0.70000000E+00           0.00000000E+00
  -0.69000000E+00           0.00000000E+00
  -0.68000000E+00           0.00000000E+00
  -0.67000000E+00           0.00000000E+00
  -0.66000000E+00           0.00000000E+00
  -0.65000000E+00           0.00000000E+00
  -0.64000000E+00           0.00000000E+00
  -0.63000000E+00           0.00000000E+00
  -0.62000000E+00           0.00000000E+00
  -0.61000000E+00           0.00000000E+00
  -0.60000000E+00           0.00000000E+00
  -0.59000000E+00           0.00000000E+00
  -0.58000000E+00           0.00000000E+00
  -0.57000000E+00           0.00000000E+00
  -0.56000000E+00           0.00000000E+00
  -0.55000000E+00           0.00000000E+00
  -0.54000000E+00           0.00000000E+00
  -0.53000000E+00           0.00000000E+00
  -0.52000000E+00           0.00000000E+00
  -0.51000000E+00           0.00000000E+00
  -0.50000000E+00           0.00000000E+00
  -0.49000000E+00           0.00000000E+00
  -0.48000000E+00           0.00000000E+00
  -0.47000000E+00           0.00000000E+00
  -0.46000000E+00           0.00000000E+00
  -0.45000000E+00           0.00000000E+00
  -0.44000000E+00           0.00000000E+00
  -0.43000000E+00           0.00000000E+00
  -0.42000000E+00           0.00000000E+00
  -0.41000000E+00           0.00000000E+00
  -0.40000000E+00           0.00000000E+00
  -0.39000000E+00           0.00000000E+00
  -0.38000000E+00           0.00000000E+00
  -0.37000000E+00           0.00000000E+00
  -0.36000000E+00           0.00000000E+00
  -0.35000000E+00           0.00000000E+00
  -0.34000000E+00           0.00000000E+00
  -0.33000000E+00           0.00000000E+00
  -0.32000000E+00           0.00000000E+00
  -0.31000000E+00           0.00000000E+00
  -0.30000000E+00           0.00000000E+00
  -0.29000000E+00           0.00000000E+00
  -0.28000000E+00           0.00000000E+00
  -0.27000000E+00           0.00000000E+00
  -0.26000000E+00           0.00000000E+00
  -0.25000000E+00           0.00000000E+00
  -0.24000000E+00           0.00000000E+00
  -0.23000000E+00           0.00000000E+00
  -0.22000000E+00           0.00000000E+00
  -0.21000000E+00           0.00000000E+00
  -0.20000000E+00           0.00000000E+00
  -0.19000000E+00           0.00000000E+00
  -0.18000000E+00           0.00000000E+00
  -0.17000000E+00           0.00000000E+00
  -0.16000000E+00           0.00000000E+00
  -0.15000000E+00           0.00000000E+00
  -0.14000000E+00           0.00000000E+00
  -0.13000000E+00           0.00000000E+00
  -0.12000000E+00           0.00000000E+00
  -0.11000000E+00           0.00000000E+00
  -0.10000000E+00           0.00000000E+00
  -0.90000000E-01           0.00000000E+00
  -0.80000000E-01           0.00000000E+00
  -0.70000000E-01           0.00000000E+00
  -0.60000000E-01           0.00000000E+00
  -0.50000000E-01           0.00000000E+00
  -0.40000000E-01           0.00000000E+00
  -0.30000000E-01           0.00000000E+00
  -0.20000000E-01           0.00000000E+00
  -0.10000000E-01           0.00000000E+00
   0.00000000E+00           0.24223192E-01
   0.10000000E-01           0.19630996E+00
   0.20000000E-01           0.38935388E+00
   0.30000000E-01           0.57980750E+00
   0.40000000E-01           0.76952822E+00
   0.50000000E-01           0.95510776E+00
   0.60000000E-01           0.11325181E+01
   0.70000000E-01           0.13062108E+01
   0.80000000E-01           0.14703674E+01
   0.90000000E-01           0.16286667E+01
   0.10000000E+00           0.17740511E+01
   0.11000000E+00           0.19146979E+01
   0.12000000E+00           0.20403709E+01
   0.13000000E+00           0.21557794E+01
   0.14000000E+00           0.22628076E+01
   0.15000000E+00           0.23611712E+01
   0.16000000E+00           0.24378486E+01
   0.17000000E+00           0.25114036E+01
   0.18000000E+00           0.25709496E+01
   0.19000000E+00           0.26140192E+01
   0.20000000E+00           0.26543978E+01
   0.21000000E+00           0.26770251E+01
   0.22000000E+00           0.26900178E+01
   0.23000000E+00           0.26908546E+01
   0.24000000E+00           0.26834804E+01
   0.25000000E+00           0.26639494E+01
   0.26000000E+00           0.26383621E+01
   0.27000000E+00           0.26011200E+01
   0.28000000E+00           0.25557644E+01
   0.29000000E+00           0.25044104E+01
   0.30000000E+00           0.24447627E+01
   0.31000000E+00           0.23822593E+01
   0.32000000E+00           0.23119165E+01
   0.33000000E+00           0.22359763E+01
   0.34000000E+00           0.21584837E+01
   0.35000000E+00           0.20748288E+01
   0.36000000E+00           0.19906143E+01
   0.37000000E+00           0.19058476E+01
   0.38000000E+00           0.18195172E+01
   0.39000000E+00           0.17312331E+01
   0.40000000E+00           0.16410038E+01
   0.41000000E+00           0.15550087E+01
   0.42000000E+00           0.14658730E+01
   0.43000000E+00           0.13810631E+01
   0.44000000E+00           0.12982616E+01
   0.45000000E+00           0.12155444E+01
   0.46000000E+00           0.11365450E+01
   0.47000000E+00           0.10583981E+01
   0.48000000E+00           0.98337055E+00
   0.49000000E+00           0.91189753E+00
   0.50000000E+00           0.84286102E+00
   0.51000000E+00           0.77768236E+00
   0.52000000E+00           0.71623545E+00
   0.53000000E+00           0.65804074E+00
   0.54000000E+00           0.60307998E+00
   0.55000000E+00           0.55127240E+00
   0.56000000E+00           0.50181631E+00
   0.57000000E+00           0.45617504E+00
   0.58000000E+00           0.41463201E+00
   0.59000000E+00           0.37433474E+00
   0.60000000E+00           0.33777690E+00
   0.61000000E+00           0.30380802E+00
   0.62000000E+00           0.27362284E+00
   0.63000000E+00           0.24458598E+00
   0.64000000E+00           0.21894480E+00
   0.65000000E+00           0.19526279E+00
   0.66000000E+00           0.17326861E+00
   0.67000000E+00           0.15391058E+00
   0.68000000E+00           0.13602778E+00
   0.69000000E+00           0.12029541E+00
   0.70000000E+00           0.10585635E+00
   0.71000000E+00           0.92858201E-01
   0.72000000E+00           0.81630952E-01
   0.73000000E+00           0.71172310E-01
   0.74000000E+00           0.62057584E-01
   0.75000000E+00           0.54160053E-01
   0.76000000E+00           0.46973369E-01
   0.77000000E+00           0.40766226E-01
   0.78000000E+00           0.35225132E-01
   0.79000000E+00           0.30459877E-01
   0.80000000E+00           0.26045238E-01
   0.81000000E+00           0.22180423E-01
   0.82000000E+00           0.19071340E-01
   0.83000000E+00           0.16022222E-01
   0.84000000E+00           0.13796208E-01
   0.85000000E+00           0.11775220E-01
   0.86000000E+00           0.99814815E-02
   0.87000000E+00           0.83023810E-02
   0.88000000E+00           0.69818342E-02
   0.89000000E+00           0.59126102E-02
   0.90000000E+00           0.49054674E-02
   0.91000000E+00           0.41392416E-02
   0.92000000E+00           0.34177249E-02
   0.93000000E+00           0.28822751E-02
   0.94000000E+00           0.22924162E-02
   0.95000000E+00           0.19690476E-02
   0.96000000E+00           0.15997354E-02
   0.97000000E+00           0.13009700E-02
   0.98000000E+00           0.10783951E-02
   0.99000000E+00           0.88324515E-03
   0.10000000E+01           0.72389771E-03
   0.10100000E+01           0.57962963E-03
   0.10200000E+01           0.47610229E-03
   0.10300000E+01           0.39365079E-03
   0.10400000E+01           0.32037037E-03
   0.10500000E+01           0.25890653E-03
   0.10600000E+01           0.19620811E-03
   0.10700000E+01           0.16287478E-03
   0.10800000E+01           0.12142857E-03
   0.10900000E+01           0.99470899E-04
   0.11000000E+01           0.85008818E-04
   0.11100000E+01           0.65961199E-04
   0.11200000E+01           0.46208113E-04
   0.11300000E+01           0.34126984E-04
   0.11400000E+01           0.28218695E-04
   0.11500000E+01           0.25749559E-04
   0.11600000E+01           0.16843034E-04
   0.11700000E+01           0.11640212E-04
   0.11800000E+01           0.91710758E-05
   0.11900000E+01           0.93474427E-05
   0.12000000E+01           0.62610229E-05
   0.12100000E+01           0.45855379E-05
   0.12200000E+01           0.27336861E-05
   0.12300000E+01           0.22045855E-05
   0.12400000E+01           0.20282187E-05
   0.12500000E+01           0.12345679E-05
   0.12600000E+01           0.14991182E-05
   0.12700000E+01           0.15873016E-05
   0.12800000E+01           0.70546737E-06
   0.12900000E+01           0.26455026E-06
   0.13000000E+01           0.52910053E-06
   0.13100000E+01           0.88183422E-07
   0.13200000E+01           0.88183422E-07
   0.13300000E+01           0.88183422E-07
   0.13400000E+01           0.00000000E+00
   0.13500000E+01           0.17636684E-06
   0.13600000E+01           0.00000000E+00
   0.13700000E+01           0.00000000E+00
   0.13800000E+01           0.00000000E+00
   0.13900000E+01           0.00000000E+00
   0.14000000E+01           0.00000000E+00
   0.14100000E+01           0.00000000E+00
   0.14200000E+01           0.00000000E+00
   0.14300000E+01           0.00000000E+00
   0.14400000E+01           0.00000000E+00
   0.14500000E+01           0.88183422E-07
   0.14600000E+01           0.00000000E+00
   0.14700000E+01           0.00000000E+00
   0.14800000E+01           0.00000000E+00
   0.14900000E+01           0.00000000E+00
   0.15000000E+01           0.00000000E+00
   0.15100000E+01           0.00000000E+00
   0.15200000E+01           0.00000000E+00
   0.15300000E+01           0.00000000E+00
   0.15400000E+01           0.00000000E+00
   0.15500000E+01           0.00000000E+00
   0.15600000E+01           0.00000000E+00
   0.15700000E+01           0.00000000E+00
   0.15800000E+01           0.00000000E+00
   0.15900000E+01           0.00000000E+00
   0.16000000E+01           0.00000000E+00
   0.16100000E+01           0.00000000E+00
   0.16200000E+01           0.00000000E+00
   0.16300000E+01           0.00000000E+00
   0.16400000E+01           0.00000000E+00
   0.16500000E+01           0.00000000E+00
   0.16600000E+01           0.00000000E+00
   0.16700000E+01           0.00000000E+00
   0.16800000E+01           0.00000000E+00
   0.16900000E+01           0.00000000E+00
   0.17000000E+01           0.00000000E+00
   0.17100000E+01           0.00000000E+00
   0.17200000E+01           0.00000000E+00
   0.17300000E+01           0.00000000E+00
   0.17400000E+01           0.00000000E+00
   0.17500000E+01           0.00000000E+00
   0.17600000E+01           0.00000000E+00
   0.17700000E+01           0.00000000E+00
   0.17800000E+01           0.00000000E+00
   0.17900000E+01           0.00000000E+00
   0.18000000E+01           0.00000000E+00
   0.18100000E+01           0.00000000E+00
   0.18200000E+01           0.00000000E+00
   0.18300000E+01           0.00000000E+00
   0.18400000E+01           0.00000000E+00
   0.18500000E+01           0.00000000E+00
   0.18600000E+01           0.00000000E+00
   0.18700000E+01           0.00000000E+00
   0.18800000E+01           0.00000000E+00
   0.18900000E+01           0.00000000E+00
   0.19000000E+01           0.00000000E+00
   0.19100000E+01           0.00000000E+00
   0.19200000E+01           0.00000000E+00
   0.19300000E+01           0.00000000E+00
   0.19400000E+01           0.00000000E+00
   0.19500000E+01           0.00000000E+00
   0.19600000E+01           0.00000000E+00
   0.19700000E+01           0.00000000E+00
   0.19800000E+01           0.00000000E+00
   0.19900000E+01           0.00000000E+00
   0.20000000E+01           0.00000000E+00
 #T=     6.0000
  -0.20000000E+01           0.00000000E+00
  -0.19900000E+01           0.00000000E+00
  -0.19800000E+01           0.00000000E+00
  -0.19700000E+01           0.00000000E+00
  -0.19600000E+01           0.00000000E+00
  -0.19500000E+01           0.00000000E+00
  -0.19400000E+01           0.00000000E+00
  -0.19300000E+01           0.00000000E+00
  -0.19200000E+01           0.00000000E+00
  -0.19100000E+01           0.00000000E+00
  -0.19000000E+01           0.00000000E+00
  -0.18900000E+01           0.00000000E+00
  -0.18800000E+01           0.00000000E+00
  -0.18700000E+01           0.00000000E+00
  -0.18600000E+01           0.00000000E+00
  -0.18500000E+01           0.00000000E+00
  -0.18400000E+01           0.00000000E+00
  -0.18300000E+01           0.00000000E+00
  -0.18200000E+01           0.00000000E+00
  -0.18100000E+01           0.00000000E+00
  -0.18000000E+01           0.00000000E+00
  -0.17900000E+01           0.00000000E+00
  -0.17800000E+01           0.00000000E+00
  -0.17700000E+01           0.00000000E+00
  -0.17600000E+01           0.00000000E+00
  -0.17500000E+01           0.00000000E+00
  -0.17400000E+01           0.00000000E+00
  -0.17300000E+01           0.00000000E+00
  -0.17200000E+01           0.00000000E+00
  -0.17100000E+01           0.00000000E+00
  -0.17000000E+01           0.00000000E+00
  -0.16900000E+01           0.00000000E+00
  -0.16800000E+01           0.00000000E+00
  -0.16700000E+01           0.00000000E+00
  -0.16600000E+01           0.00000000E+00
  -0.16500000E+01           0.00000000E+00
  -0.16400000E+01           0.00000000E+00
  -0.16300000E+01           0.00000000E+00
  -0.16200000E+01           0.00000000E+00
  -0.16100000E+01           0.00000000E+00
  -0.16000000E+01           0.00000000E+00
  -0.15900000E+01           0.00000000E+00
  -0.15800000E+01           0.00000000E+00
  -0.15700000E+01           0.00000000E+00
  -0.15600000E+01           0.00000000E+00
  -0.15500000E+01           0.00000000E+00
  -0.15400000E+01           0.00000000E+00
  -0.15300000E+01           0.00000000E+00
  -0.15200000E+01           0.00000000E+00
  -0.15100000E+01           0.00000000E+00
  -0.15000000E+01           0.00000000E+00
  -0.14900000E+01           0.00000000E+00
  -0.14800000E+01           0.00000000E+00
  -0.14700000E+01           0.00000000E+00
  -0.14600000E+01           0.00000000E+00
  -0.14500000E+01           0.00000000E+00
  -0.14400000E+01           0.00000000E+00
  -0.14300000E+01           0.00000000E+00
  -0.14200000E+01           0.00000000E+00
  -0.14100000E+01           0.00000000E+00
  -0.14000000E+01           0.00000000E+00
  -0.13900000E+01           0.00000000E+00
  -0.13800000E+01           0.00000000E+00
  -0.13700000E+01           0.00000000E+00
  -0.13600000E+01           0.00000000E+00
  -0.13500000E+01           0.00000000E+00
  -0.13400000E+01           0.00000000E+00
  -0.13300000E+01           0.00000000E+00
  -0.13200000E+01           0.00000000E+00
  -0.13100000E+01           0.00000000E+00
  -0.13000000E+01           0.00000000E+00
  -0.12900000E+01           0.00000000E+00
  -0.12800000E+01           0.00000000E+00
  -0.12700000E+01           0.00000000E+00
  -0.12600000E+01           0.00000000E+00
  -0.12500000E+01           0.00000000E+00
  -0.12400000E+01           0.00000000E+00
  -0.12300000E+01           0.00000000E+00
  -0.12200000E+01           0.00000000E+00
  -0.12100000E+01           0.00000000E+00
  -0.12000000E+01           0.00000000E+00
  -0.11900000E+01           0.00000000E+00
  -0.11800000E+01           0.00000000E+00
  -0.11700000E+01           0.00000000E+00
  -0.11600000E+01           0.00000000E+00
  -0.11500000E+01           0.00000000E+00
  -0.11400000E+01           0.00000000E+00
  -0.11300000E+01           0.00000000E+00
  -0.11200000E+01           0.00000000E+00
  -0.11100000E+01           0.00000000E+00
  -0.11000000E+01           0.00000000E+00
  -0.10900000E+01           0.00000000E+00
  -0.10800000E+01           0.00000000E+00
  -0.10700000E+01           0.00000000E+00
  -0.10600000E+01           0.00000000E+00
  -0.10500000E+01           0.00000000E+00
  -0.10400000E+01           0.00000000E+00
  -0.10300000E+01           0.00000000E+00
  -0.10200000E+01           0.00000000E+00
  -0.10100000E+01           0.00000000E+00
  -0.10000000E+01           0.00000000E+00
  -0.99000000E+00           0.00000000E+00
  -0.98000000E+00           0.00000000E+00
  -0.97000000E+00           0.00000000E+00
  -0.96000000E+00           0.00000000E+00
  -0.95000000E+00           0.00000000E+00
  -0.94000000E+00           0.00000000E+00
  -0.93000000E+00           0.00000000E+00
  -0.92000000E+00           0.00000000E+00
  -0.91000000E+00           0.00000000E+00
  -0.90000000E+00           0.00000000E+00
  -0.89000000E+00           0.00000000E+00
  -0.88000000E+00           0.00000000E+00
  -0.87000000E+00           0.00000000E+00
  -0.86000000E+00           0.00000000E+00
  -0.85000000E+00           0.00000000E+00
  -0.84000000E+00           0.00000000E+00
  -0.83000000E+00           0.00000000E+00
  -0.82000000E+00           0.00000000E+00
  -0.81000000E+00           0.00000000E+00
  -0.80000000E+00           0.00000000E+00
  -0.79000000E+00           0.00000000E+00
  -0.78000000E+00           0.00000000E+00
  -0.77000000E+00           0.00000000E+00
  -0.76000000E+00           0.00000000E+00
  -0.75000000E+00           0.00000000E+00
  -0.74000000E+00           0.00000000E+00
  -0.73000000E+00           0.00000000E+00
  -0.72000000E+00           0.00000000E+00
  -0.71000000E+00           0.00000000E+00
  -0.70000000E+00           0.00000000E+00
  -0.69000000E+00           0.00000000E+00
  -0.68000000E+00           0.00000000E+00
  -0.67000000E+00           0.00000000E+00
  -0.66000000E+00           0.00000000E+00
  -0.65000000E+00           0.00000000E+00
  -0.64000000E+00           0.00000000E+00
  -0.63000000E+00           0.00000000E+00
  -0.62000000E+00           0.00000000E+00
  -0.61000000E+00           0.00000000E+00
  -0.60000000E+00           0.00000000E+00
  -0.59000000E+00           0.00000000E+00
  -0.58000000E+00           0.00000000E+00
  -0.57000000E+00           0.00000000E+00
  -0.56000000E+00           0.00000000E+00
  -0.55000000E+00           0.00000000E+00
  -0.54000000E+00           0.00000000E+00
  -0.53000000E+00           0.00000000E+00
  -0.52000000E+00           0.00000000E+00
  -0.51000000E+00           0.00000000E+00
  -0.50000000E+00           0.00000000E+00
  -0.49000000E+00           0.00000000E+00
  -0.48000000E+00           0.00000000E+00
  -0.47000000E+00           0.00000000E+00
  -0.46000000E+00           0.00000000E+00
  -0.45000000E+00           0.00000000E+00
  -0.44000000E+00           0.00000000E+00
  -0.43000000E+00           0.00000000E+00
  -0.42000000E+00           0.00000000E+00
  -0.41000000E+00           0.00000000E+00
  -0.40000000E+00           0.00000000E+00
  -0.39000000E+00           0.00000000E+00
  -0.38000000E+00           0.00000000E+00
  -0.37000000E+00           0.00000000E+00
  -0.36000000E+00           0.00000000E+00
  -0.35000000E+00           0.00000000E+00
  -0.34000000E+00           0.00000000E+00
  -0.33000000E+00           0.00000000E+00
  -0.32000000E+00           0.00000000E+00
  -0.31000000E+00           0.00000000E+00
  -0.30000000E+00           0.00000000E+00
  -0.29000000E+00           0.00000000E+00
  -0.28000000E+00           0.00000000E+00
  -0.27000000E+00           0.00000000E+00
  -0.26000000E+00           0.00000000E+00
  -0.25000000E+00           0.00000000E+00
  -0.24000000E+00           0.00000000E+00
  -0.23000000E+00           0.00000000E+00
  -0.22000000E+00           0.00000000E+00
  -0.21000000E+00           0.00000000E+00
  -0.20000000E+00           0.00000000E+00
  -0.19000000E+00           0.00000000E+00
  -0.18000000E+00           0.00000000E+00
  -0.17000000E+00           0.00000000E+00
  -0.16000000E+00           0.00000000E+00
  -0.15000000E+00           0.00000000E+00
  -0.14000000E+00           0.00000000E+00
  -0.13000000E+00           0.00000000E+00
  -0.12000000E+00           0.00000000E+00
  -0.11000000E+00           0.00000000E+00
  -0.10000000E+00           0.00000000E+00
  -0.90000000E-01           0.00000000E+00
  -0.80000000E-01           0.00000000E+00
  -0.70000000E-01           0.00000000E+00
  -0.60000000E-01           0.00000000E+00
  -0.50000000E-01           0.00000000E+00
  -0.40000000E-01           0.00000000E+00
  -0.30000000E-01           0.00000000E+00
  -0.20000000E-01           0.00000000E+00
  -0.10000000E-01           0.00000000E+00
   0.00000000E+00           0.20245150E-01
   0.10000000E-01           0.16155935E+00
   0.20000000E-01           0.32274921E+00
   0.30000000E-01           0.48300291E+00
   0.40000000E-01           0.64011526E+00
   0.50000000E-01           0.79364118E+00
   0.60000000E-01           0.94543889E+00
   0.70000000E-01           0.10914257E+01
   0.80000000E-01           0.12310332E+01
   0.90000000E-01           0.13666716E+01
   0.10000000E+00           0.14962585E+01
   0.11000000E+00           0.16176745E+01
   0.12000000E+00           0.17340172E+01
   0.13000000E+00           0.18397338E+01
   0.14000000E+00           0.19405495E+01
   0.15000000E+00           0.20287205E+01
   0.16000000E+00           0.21119090E+01
   0.17000000E+00           0.21851248E+01
   0.18000000E+00           0.22492894E+01
   0.19000000E+00           0.23038258E+01
   0.20000000E+00           0.23505928E+01
   0.21000000E+00           0.23881764E+01
   0.22000000E+00           0.24171881E+01
   0.23000000E+00           0.24386788E+01
   0.24000000E+00           0.24474846E+01
   0.25000000E+00           0.24516671E+01
   0.26000000E+00           0.24500903E+01
   0.27000000E+00           0.24352295E+01
   0.28000000E+00           0.24165076E+01
   0.29000000E+00           0.23894055E+01
   0.30000000E+00           0.23577781E+01
   0.31000000E+00           0.23189394E+01
   0.32000000E+00           0.22744572E+01
   0.33000000E+00           0.22260557E+01
   0.34000000E+00           0.21725024E+01
   0.35000000E+00           0.21138626E+01
   0.36000000E+00           0.20536175E+01
   0.37000000E+00           0.19894660E+01
   0.38000000E+00           0.19220228E+01
   0.39000000E+00           0.18543639E+01
   0.40000000E+00           0.17827202E+01
   0.41000000E+00           0.17106168E+01
   0.42000000E+00           0.16369724E+01
   0.43000000E+00           0.15646651E+01
   0.44000000E+00           0.14926787E+01
   0.45000000E+00           0.14193200E+01
   0.46000000E+00           0.13449929E+01
   0.47000000E+00           0.12751005E+01
   0.48000000E+00           0.12043073E+01
   0.49000000E+00           0.11353981E+01
   0.50000000E+00           0.10687260E+01
   0.51000000E+00           0.10036840E+01
   0.52000000E+00           0.94070970E+00
   0.53000000E+00           0.87864215E+00
   0.54000000E+00           0.81930362E+00
   0.55000000E+00           0.76364030E+00
   0.56000000E+00           0.70787487E+00
   0.57000000E+00           0.65770882E+00
   0.58000000E+00           0.60838668E+00
   0.59000000E+00           0.56202989E+00
   0.60000000E+00           0.51661270E+00
   0.61000000E+00           0.47558686E+00
   0.62000000E+00           0.43667672E+00
   0.63000000E+00           0.39984083E+00
   0.64000000E+00           0.36529065E+00
   0.65000000E+00           0.33260079E+00
   0.66000000E+00           0.30316199E+00
   0.67000000E+00           0.27524603E+00
   0.68000000E+00           0.24921349E+00
   0.69000000E+00           0.22594947E+00
   0.70000000E+00           0.20346340E+00
   0.71000000E+00           0.18345750E+00
   0.72000000E+00           0.16483236E+00
   0.73000000E+00           0.14804506E+00
   0.74000000E+00           0.13295168E+00
   0.75000000E+00           0.11837751E+00
   0.76000000E+00           0.10535176E+00
   0.77000000E+00           0.94031834E-01
   0.78000000E+00           0.83382804E-01
   0.79000000E+00           0.73767637E-01
   0.80000000E+00           0.65341093E-01
   0.81000000E+00           0.57520459E-01
   0.82000000E+00           0.50370018E-01
   0.83000000E+00           0.44558554E-01
   0.84000000E+00           0.39018166E-01
   0.85000000E+00           0.34180600E-01
   0.86000000E+00           0.29790035E-01
   0.87000000E+00           0.25935273E-01
   0.88000000E+00           0.22529189E-01
   0.89000000E+00           0.19506614E-01
   0.90000000E+00           0.16802205E-01
   0.91000000E+00           0.14603880E-01
   0.92000000E+00           0.12697178E-01
   0.93000000E+00           0.10839683E-01
   0.94000000E+00           0.92294533E-02
   0.95000000E+00           0.80151675E-02
   0.96000000E+00           0.67304233E-02
   0.97000000E+00           0.57365079E-02
   0.98000000E+00           0.49089065E-02
   0.99000000E+00           0.41579365E-02
   0.10000000E+01           0.34927690E-02
   0.10100000E+01           0.29707231E-02
   0.10200000E+01           0.24791005E-02
   0.10300000E+01           0.20789242E-02
   0.10400000E+01           0.17869489E-02
   0.10500000E+01           0.14757496E-02
   0.10600000E+01           0.11957672E-02
   0.10700000E+01           0.10097002E-02
   0.10800000E+01           0.85229277E-03
   0.10900000E+01           0.69179894E-03
   0.11000000E+01           0.58483245E-03
   0.11100000E+01           0.48280423E-03
   0.11200000E+01           0.37477954E-03
   0.11300000E+01           0.32425044E-03
   0.11400000E+01           0.25211640E-03
   0.11500000E+01           0.20661376E-03
   0.11600000E+01           0.17989418E-03
   0.11700000E+01           0.13703704E-03
   0.11800000E+01           0.10493827E-03
   0.11900000E+01           0.88624339E-04
   0.12000000E+01           0.72839506E-04
   0.12100000E+01           0.65608466E-04
   0.12200000E+01           0.47530864E-04
   0.12300000E+01           0.37918871E-04
   0.12400000E+01           0.31834215E-04
   0.12500000E+01           0.25925926E-04
   0.12600000E+01           0.21516755E-04
   0.12700000E+01           0.13844797E-04
   0.12800000E+01           0.11816578E-04
   0.12900000E+01           0.10141093E-04
   0.13000000E+01           0.64373898E-05
   0.13100000E+01           0.54673721E-05
   0.13200000E+01           0.41446208E-05
   0.13300000E+01           0.28218695E-05
   0.13400000E+01           0.26455026E-05
   0.13500000E+01           0.11463845E-05
   0.13600000E+01           0.15873016E-05
   0.13700000E+01           0.14109347E-05
   0.13800000E+01           0.61728395E-06
   0.13900000E+01           0.97001764E-06
   0.14000000E+01           0.35273369E-06
   0.14100000E+01           0.26455026E-06
   0.14200000E+01           0.17636684E-06
   0.14300000E+01           0.26455026E-06
   0.14400000E+01           0.88183422E-07
   0.14500000E+01           0.88183422E-07
   0.14600000E+01           0.88183422E-07
   0.14700000E+01           0.00000000E+00
   0.14800000E+01           0.17636684E-06
   0.14900000E+01           0.00000000E+00
   0.15000000E+01           0.88183422E-07
   0.15100000E+01           0.88183422E-07
   0.15200000E+01           0.00000000E+00
   0.15300000E+01           0.00000000E+00
   0.15400000E+01           0.00000000E+00
   0.15500000E+01           0.00000000E+00
   0.15600000E+01           0.00000000E+00
   0.15700000E+01           0.00000000E+00
   0.15800000E+01           0.00000000E+00
   0.15900000E+01           0.00000000E+00
   0.16000000E+01           0.00000000E+00
   0.16100000E+01           0.00000000E+00
   0.16200000E+01           0.00000000E+00
   0.16300000E+01           0.00000000E+00
   0.16400000E+01           0.00000000E+00
   0.16500000E+01           0.00000000E+00
   0.16600000E+01           0.00000000E+00
   0.16700000E+01           0.00000000E+00
   0.16800000E+01           0.00000000E+00
   0.16900000E+01           0.00000000E+00
   0.17000000E+01           0.00000000E+00
   0.17100000E+01           0.00000000E+00
   0.17200000E+01           0.00000000E+00
   0.17300000E+01           0.00000000E+00
   0.17400000E+01           0.00000000E+00
   0.17500000E+01           0.00000000E+00
   0.17600000E+01           0.00000000E+00
   0.17700000E+01           0.00000000E+00
   0.17800000E+01           0.00000000E+00
   0.17900000E+01           0.00000000E+00
   0.18000000E+01           0.00000000E+00
   0.18100000E+01           0.00000000E+00
   0.18200000E+01           0.00000000E+00
   0.18300000E+01           0.00000000E+00
   0.18400000E+01           0.00000000E+00
   0.18500000E+01           0.00000000E+00
   0.18600000E+01           0.00000000E+00
   0.18700000E+01           0.00000000E+00
   0.18800000E+01           0.00000000E+00
   0.18900000E+01           0.00000000E+00
   0.19000000E+01           0.00000000E+00
   0.19100000E+01           0.00000000E+00
   0.19200000E+01           0.00000000E+00
   0.19300000E+01           0.00000000E+00
   0.19400000E+01           0.00000000E+00
   0.19500000E+01           0.00000000E+00
   0.19600000E+01           0.00000000E+00
   0.19700000E+01           0.00000000E+00
   0.19800000E+01           0.00000000E+00
   0.19900000E+01           0.00000000E+00
   0.20000000E+01           0.00000000E+00
 #T=     7.0000
  -0.20000000E+01           0.00000000E+00
  -0.19900000E+01           0.00000000E+00
  -0.19800000E+01           0.00000000E+00
  -0.19700000E+01           0.00000000E+00
  -0.19600000E+01           0.00000000E+00
  -0.19500000E+01           0.00000000E+00
  -0.19400000E+01           0.00000000E+00
  -0.19300000E+01           0.00000000E+00
  -0.19200000E+01           0.00000000E+00
  -0.19100000E+01           0.00000000E+00
  -0.19000000E+01           0.00000000E+00
  -0.18900000E+01           0.00000000E+00
  -0.18800000E+01           0.00000000E+00
  -0.18700000E+01           0.00000000E+00
  -0.18600000E+01           0.00000000E+00
  -0.18500000E+01           0.00000000E+00
  -0.18400000E+01           0.00000000E+00
  -0.18300000E+01           0.00000000E+00
  -0.18200000E+01           0.00000000E+00
  -0.18100000E+01           0.00000000E+00
  -0.18000000E+01           0.00000000E+00
  -0.17900000E+01           0.00000000E+00
  -0.17800000E+01           0.00000000E+00
  -0.17700000E+01           0.00000000E+00
  -0.17600000E+01           0.00000000E+00
  -0.17500000E+01           0.00000000E+00
  -0.17400000E+01           0.00000000E+00
  -0.17300000E+01           0.00000000E+00
  -0.17200000E+01           0.00000000E+00
  -0.17100000E+01           0.00000000E+00
  -0.17000000E+01           0.00000000E+00
  -0.16900000E+01           0.00000000E+00
  -0.16800000E+01           0.00000000E+00
  -0.16700000E+01           0.00000000E+00
  -0.16600000E+01           0.00000000E+00
  -0.16500000E+01           0.00000000E+00
  -0.16400000E+01           0.00000000E+00
  -0.16300000E+01           0.00000000E+00
  -0.16200000E+01           0.00000000E+00
  -0.16100000E+01           0.00000000E+00
  -0.16000000E+01           0.00000000E+00
  -0.15900000E+01           0.00000000E+00
  -0.15800000E+01           0.00000000E+00
  -0.15700000E+01           0.00000000E+00
  -0.15600000E+01           0.00000000E+00
  -0.15500000E+01           0.00000000E+00
  -0.15400000E+01           0.00000000E+00
  -0.15300000E+01           0.00000000E+00
  -0.15200000E+01           0.00000000E+00
  -0.15100000E+01           0.00000000E+00
  -0.15000000E+01           0.00000000E+00
  -0.14900000E+01           0.00000000E+00
  -0.14800000E+01           0.00000000E+00
  -0.14700000E+01           0.00000000E+00
  -0.14600000E+01           0.00000000E+00
  -0.14500000E+01           0.00000000E+00
  -0.14400000E+01           0.00000000E+00
  -0.14300000E+01           0.00000000E+00
  -0.14200000E+01           0.00000000E+00
  -0.14100000E+01           0.00000000E+00
  -0.14000000E+01           0.00000000E+00
  -0.13900000E+01           0.00000000E+00
  -0.13800000E+01           0.00000000E+00
  -0.13700000E+01           0.00000000E+00
  -0.13600000E+01           0.00000000E+00
  -0.13500000E+01           0.00000000E+00
  -0.13400000E+01           0.00000000E+00
  -0.13300000E+01           0.00000000E+00
  -0.13200000E+01           0.00000000E+00
  -0.13100000E+01           0.00000000E+00
  -0.13000000E+01           0.00000000E+00
  -0.12900000E+01           0.00000000E+00
  -0.12800000E+01           0.00000000E+00
  -0.12700000E+01           0.00000000E+00
  -0.12600000E+01           0.00000000E+00
  -0.12500000E+01           0.00000000E+00
  -0.12400000E+01           0.00000000E+00
  -0.12300000E+01           0.00000000E+00
  -0.12200000E+01           0.00000000E+00
  -0.12100000E+01           0.00000000E+00
  -0.12000000E+01           0.00000000E+00
  -0.11900000E+01           0.00000000E+00
  -0.11800000E+01           0.00000000E+00
  -0.11700000E+01           0.00000000E+00
  -0.11600000E+01           0.00000000E+00
  -0.11500000E+01           0.00000000E+00
  -0.11400000E+01           0.00000000E+00
  -0.11300000E+01           0.00000000E+00
  -0.11200000E+01           0.00000000E+00
  -0.11100000E+01           0.00000000E+00
  -0.11000000E+01           0.00000000E+00
  -0.10900000E+01           0.00000000E+00
  -0.10800000E+01           0.00000000E+00
  -0.10700000E+01           0.00000000E+00
  -0.10600000E+01           0.00000000E+00
  -0.10500000E+01           0.00000000E+00
  -0.10400000E+01           0.00000000E+00
  -0.10300000E+01           0.00000000E+00
  -0.10200000E+01           0.00000000E+00
  -0.10100000E+01           0.00000000E+00
  -0.10000000E+01           0.00000000E+00
  -0.99000000E+00           0.00000000E+00
  -0.98000000E+00           0.00000000E+00
  -0.97000000E+00           0.00000000E+00
  -0.96000000E+00           0.00000000E+00
  -0.95000000E+00           0.00000000E+00
  -0.94000000E+00           0.00000000E+00
  -0.93000000E+00           0.00000000E+00
  -0.92000000E+00           0.00000000E+00
  -0.91000000E+00           0.00000000E+00
  -0.90000000E+00           0.00000000E+00
  -0.89000000E+00           0.00000000E+00
  -0.88000000E+00           0.00000000E+00
  -0.87000000E+00           0.00000000E+00
  -0.86000000E+00           0.00000000E+00
  -0.85000000E+00           0.00000000E+00
  -0.84000000E+00           0.00000000E+00
  -0.83000000E+00           0.00000000E+00
  -0.82000000E+00           0.00000000E+00
  -0.81000000E+00           0.00000000E+00
  -0.80000000E+00           0.00000000E+00
  -0.79000000E+00           0.00000000E+00
  -0.78000000E+00           0.00000000E+00
  -0.77000000E+00           0.00000000E+00
  -0.76000000E+00           0.00000000E+00
  -0.75000000E+00           0.00000000E+00
  -0.74000000E+00           0.00000000E+00
  -0.73000000E+00           0.00000000E+00
  -0.72000000E+00           0.00000000E+00
  -0.71000000E+00           0.00000000E+00
  -0.70000000E+00           0.00000000E+00
  -0.69000000E+00           0.00000000E+00
  -0.68000000E+00           0.00000000E+00
  -0.67000000E+00           0.00000000E+00
  -0.66000000E+00           0.00000000E+00
  -0.65000000E+00           0.00000000E+00
  -0.64000000E+00           0.00000000E+00
  -0.63000000E+00           0.00000000E+00
  -0.62000000E+00           0.00000000E+00
  -0.61000000E+00           0.00000000E+00
  -0.60000000E+00           0.00000000E+00
  -0.59000000E+00           0.00000000E+00
  -0.58000000E+00           0.00000000E+00
  -0.57000000E+00           0.00000000E+00
  -0.56000000E+00           0.00000000E+00
  -0.55000000E+00           0.00000000E+00
  -0.54000000E+00           0.00000000E+00
  -0.53000000E+00           0.00000000E+00
  -0.52000000E+00           0.00000000E+00
  -0.51000000E+00           0.00000000E+00
  -0.50000000E+00           0.00000000E+00
  -0.49000000E+00           0.00000000E+00
  -0.48000000E+00           0.00000000E+00
  -0.47000000E+00           0.00000000E+00
  -0.46000000E+00           0.00000000E+00
  -0.45000000E+00           0.00000000E+00
  -0.44000000E+00           0.00000000E+00
  -0.43000000E+00           0.00000000E+00
  -0.42000000E+00           0.00000000E+00
  -0.41000000E+00           0.00000000E+00
  -0.40000000E+00           0.00000000E+00
  -0.39000000E+00           0.00000000E+00
  -0.38000000E+00           0.00000000E+00
  -0.37000000E+00           0.00000000E+00
  -0.36000000E+00           0.00000000E+00
  -0.35000000E+00           0.00000000E+00
  -0.34000000E+00           0.00000000E+00
  -0.33000000E+00           0.00000000E+00
  -0.32000000E+00           0.00000000E+00
  -0.31000000E+00           0.00000000E+00
  -0.30000000E+00           0.00000000E+00
  -0.29000000E+00           0.00000000E+00
  -0.28000000E+00           0.00000000E+00
  -0.27000000E+00           0.00000000E+00
  -0.26000000E+00           0.00000000E+00
  -0.25000000E+00           0.00000000E+00
  -0.24000000E+00           0.00000000E+00
  -0.23000000E+00           0.00000000E+00
  -0.22000000E+00           0.00000000E+00
  -0.21000000E+00           0.00000000E+00
  -0.20000000E+00           0.00000000E+00
  -0.19000000E+00           0.00000000E+00
  -0.18000000E+00           0.00000000E+00
  -0.17000000E+00           0.00000000E+00
  -0.16000000E+00           0.00000000E+00
  -0.15000000E+00           0.00000000E+00
  -0.14000000E+00           0.00000000E+00
  -0.13000000E+00           0.00000000E+00
  -0.12000000E+00           0.00000000E+00
  -0.11000000E+00           0.00000000E+00
  -0.10000000E+00           0.00000000E+00
  -0.90000000E-01           0.00000000E+00
  -0.80000000E-01           0.00000000E+00
  -0.70000000E-01           0.00000000E+00
  -0.60000000E-01           0.00000000E+00
  -0.50000000E-01           0.00000000E+00
  -0.40000000E-01           0.00000000E+00
  -0.30000000E-01           0.00000000E+00
  -0.20000000E-01           0.00000000E+00
  -0.10000000E-01           0.00000000E+00
   0.00000000E+00           0.17272575E-01
   0.10000000E-01           0.13798095E+00
   0.20000000E-01           0.27591208E+00
   0.30000000E-01           0.41144638E+00
   0.40000000E-01           0.54599400E+00
   0.50000000E-01           0.67807619E+00
   0.60000000E-01           0.80793395E+00
   0.70000000E-01           0.93591720E+00
   0.80000000E-01           0.10582690E+01
   0.90000000E-01           0.11765921E+01
   0.10000000E+00           0.12894457E+01
   0.11000000E+00           0.13984199E+01
   0.12000000E+00           0.15005028E+01
   0.13000000E+00           0.16026031E+01
   0.14000000E+00           0.16909280E+01
   0.15000000E+00           0.17763314E+01
   0.16000000E+00           0.18557306E+01
   0.17000000E+00           0.19284241E+01
   0.18000000E+00           0.19937610E+01
   0.19000000E+00           0.20513154E+01
   0.20000000E+00           0.21035927E+01
   0.21000000E+00           0.21484020E+01
   0.22000000E+00           0.21829774E+01
   0.23000000E+00           0.22137267E+01
   0.24000000E+00           0.22355666E+01
   0.25000000E+00           0.22535976E+01
   0.26000000E+00           0.22622461E+01
   0.27000000E+00           0.22672319E+01
   0.28000000E+00           0.22641387E+01
   0.29000000E+00           0.22529401E+01
   0.30000000E+00           0.22390969E+01
   0.31000000E+00           0.22200098E+01
   0.32000000E+00           0.21930369E+01
   0.33000000E+00           0.21632781E+01
   0.34000000E+00           0.21277951E+01
   0.35000000E+00           0.20891580E+01
   0.36000000E+00           0.20464323E+01
   0.37000000E+00           0.19991621E+01
   0.38000000E+00           0.19493403E+01
   0.39000000E+00           0.18966194E+01
   0.40000000E+00           0.18417388E+01
   0.41000000E+00           0.17871488E+01
   0.42000000E+00           0.17269818E+01
   0.43000000E+00           0.16667474E+01
   0.44000000E+00           0.16057799E+01
   0.45000000E+00           0.15445892E+01
   0.46000000E+00           0.14813302E+01
   0.47000000E+00           0.14198220E+01
   0.48000000E+00           0.13572605E+01
   0.49000000E+00           0.12954277E+01
   0.50000000E+00           0.12314414E+01
   0.51000000E+00           0.11722939E+01
   0.52000000E+00           0.11119295E+01
   0.53000000E+00           0.10524899E+01
   0.54000000E+00           0.99621631E+00
   0.55000000E+00           0.93898607E+00
   0.56000000E+00           0.88507328E+00
   0.57000000E+00           0.83169136E+00
   0.58000000E+00           0.78030847E+00
   0.59000000E+00           0.73128757E+00
   0.60000000E+00           0.68422257E+00
   0.61000000E+00           0.63772116E+00
   0.62000000E+00           0.59528519E+00
   0.63000000E+00           0.55400802E+00
   0.64000000E+00           0.51357566E+00
   0.65000000E+00           0.47602099E+00
   0.66000000E+00           0.44051693E+00
   0.67000000E+00           0.40623677E+00
   0.68000000E+00           0.37481543E+00
   0.69000000E+00           0.34465414E+00
   0.70000000E+00           0.31644162E+00
   0.71000000E+00           0.29030265E+00
   0.72000000E+00           0.26564735E+00
   0.73000000E+00           0.24297152E+00
   0.74000000E+00           0.22136675E+00
   0.75000000E+00           0.20197231E+00
   0.76000000E+00           0.18330079E+00
   0.77000000E+00           0.16592575E+00
   0.78000000E+00           0.14996164E+00
   0.79000000E+00           0.13618810E+00
   0.80000000E+00           0.12254339E+00
   0.81000000E+00           0.11054762E+00
   0.82000000E+00           0.99361023E-01
   0.83000000E+00           0.89023633E-01
   0.84000000E+00           0.79557407E-01
   0.85000000E+00           0.71230511E-01
   0.86000000E+00           0.63509083E-01
   0.87000000E+00           0.56508289E-01
   0.88000000E+00           0.50417813E-01
   0.89000000E+00           0.44550529E-01
   0.90000000E+00           0.39573369E-01
   0.91000000E+00           0.34962169E-01
   0.92000000E+00           0.31026455E-01
   0.93000000E+00           0.27277513E-01
   0.94000000E+00           0.23923986E-01
   0.95000000E+00           0.20951323E-01
   0.96000000E+00           0.18365079E-01
   0.97000000E+00           0.15970723E-01
   0.98000000E+00           0.13976455E-01
   0.99000000E+00           0.12150176E-01
   0.10000000E+01           0.10581217E-01
   0.10100000E+01           0.91920635E-02
   0.10200000E+01           0.78442681E-02
   0.10300000E+01           0.68209877E-02
   0.10400000E+01           0.58562610E-02
   0.10500000E+01           0.50564374E-02
   0.10600000E+01           0.43679894E-02
   0.10700000E+01           0.37118166E-02
   0.10800000E+01           0.31942681E-02
   0.10900000E+01           0.26955026E-02
   0.11000000E+01           0.23089947E-02
   0.11100000E+01           0.19487654E-02
   0.11200000E+01           0.16780423E-02
   0.11300000E+01           0.14123457E-02
   0.11400000E+01           0.11978836E-02
   0.11500000E+01           0.99038801E-03
   0.11600000E+01           0.82354497E-03
   0.11700000E+01           0.68615520E-03
   0.11800000E+01           0.58059965E-03
   0.11900000E+01           0.49091711E-03
   0.12000000E+01           0.39735450E-03
   0.12100000E+01           0.34753086E-03
   0.12200000E+01           0.27760141E-03
   0.12300000E+01           0.22945326E-03
   0.12400000E+01           0.18342152E-03
   0.12500000E+01           0.14964727E-03
   0.12600000E+01           0.12469136E-03
   0.12700000E+01           0.10828924E-03
   0.12800000E+01           0.88359788E-04
   0.12900000E+01           0.66137566E-04
   0.13000000E+01           0.55026455E-04
   0.13100000E+01           0.50352734E-04
   0.13200000E+01           0.33421517E-04
   0.13300000E+01           0.29012346E-04
   0.13400000E+01           0.23015873E-04
   0.13500000E+01           0.17195767E-04
   0.13600000E+01           0.14550265E-04
   0.13700000E+01           0.12081129E-04
   0.13800000E+01           0.95238095E-05
   0.13900000E+01           0.73192240E-05
   0.14000000E+01           0.51146384E-05
   0.14100000E+01           0.46737213E-05
   0.14200000E+01           0.36155203E-05
   0.14300000E+01           0.32627866E-05
   0.14400000E+01           0.33509700E-05
   0.14500000E+01           0.14109347E-05
   0.14600000E+01           0.17636684E-05
   0.14700000E+01           0.11463845E-05
   0.14800000E+01           0.44091711E-06
   0.14900000E+01           0.61728395E-06
   0.15000000E+01           0.35273369E-06
   0.15100000E+01           0.88183422E-07
   0.15200000E+01           0.35273369E-06
   0.15300000E+01           0.00000000E+00
   0.15400000E+01           0.88183422E-07
   0.15500000E+01           0.00000000E+00
   0.15600000E+01           0.00000000E+00
   0.15700000E+01           0.88183422E-07
   0.15800000E+01           0.00000000E+00
   0.15900000E+01           0.88183422E-07
   0.16000000E+01           0.00000000E+00
   0.16100000E+01           0.00000000E+00
   0.16200000E+01           0.00000000E+00
   0.16300000E+01           0.00000000E+00
   0.16400000E+01           0.00000000E+00
   0.16500000E+01           0.00000000E+00
   0.16600000E+01           0.00000000E+00
   0.16700000E+01           0.00000000E+00
   0.16800000E+01           0.00000000E+00
   0.16900000E+01           0.00000000E+00
   0.17000000E+01           0.00000000E+00
   0.17100000E+01           0.00000000E+00
   0.17200000E+01           0.00000000E+00
   0.17300000E+01           0.00000000E+00
   0.17400000E+01           0.00000000E+00
   0.17500000E+01           0.00000000E+00
   0.17600000E+01           0.00000000E+00
   0.17700000E+01           0.00000000E+00
   0.17800000E+01           0.00000000E+00
   0.17900000E+01           0.00000000E+00
   0.18000000E+01           0.00000000E+00
   0.18100000E+01           0.00000000E+00
   0.18200000E+01           0.00000000E+00
   0.18300000E+01           0.00000000E+00
   0.18400000E+01           0.00000000E+00
   0.18500000E+01           0.00000000E+00
   0.18600000E+01           0.00000000E+00
   0.18700000E+01           0.00000000E+00
   0.18800000E+01           0.00000000E+00
   0.18900000E+01           0.00000000E+00
   0.19000000E+01           0.00000000E+00
   0.19100000E+01           0.00000000E+00
   0.19200000E+01           0.00000000E+00
   0.19300000E+01           0.00000000E+00
   0.19400000E+01           0.00000000E+00
   0.19500000E+01           0.00000000E+00
   0.19600000E+01           0.00000000E+00
   0.19700000E+01           0.00000000E+00
   0.19800000E+01           0.00000000E+00
   0.19900000E+01           0.00000000E+00
   0.20000000E+01           0.00000000E+00
 #T=     8.0000
  -0.20000000E+01           0.00000000E+00
  -0.19900000E+01           0.00000000E+00
  -0.19800000E+01           0.00000000E+00
  -0.19700000E+01           0.00000000E+00
  -0.19600000E+01           0.00000000E+00
  -0.19500000E+01           0.00000000E+00
  -0.19400000E+01           0.00000000E+00
  -0.19300000E+01           0.00000000E+00
  -0.19200000E+01           0.00000000E+00
  -0.19100000E+01           0.00000000E+00
  -0.19000000E+01           0.00000000E+00
  -0.18900000E+01           0.00000000E+00
  -0.18800000E+01           0.00000000E+00
  -0.18700000E+01           0.00000000E+00
  -0.18600000E+01           0.00000000E+00
  -0.18500000E+01           0.00000000E+00
  -0.18400000E+01           0.00000000E+00
  -0.18300000E+01           0.00000000E+00
  -0.18200000E+01           0.00000000E+00
  -0.18100000E+01           0.00000000E+00
  -0.18000000E+01           0.00000000E+00
  -0.17900000E+01           0.00000000E+00
  -0.17800000E+01           0.00000000E+00
  -0.17700000E+01           0.00000000E+00
  -0.17600000E+01           0.00000000E+00
  -0.17500000E+01           0.00000000E+00
  -0.17400000E+01           0.00000000E+00
  -0.17300000E+01           0.00000000E+00
  -0.17200000E+01           0.00000000E+00
  -0.17100000E+01           0.00000000E+00
  -0.17000000E+01           0.00000000E+00
  -0.16900000E+01           0.00000000E+00
  -0.16800000E+01           0.00000000E+00
  -0.16700000E+01           0.00000000E+00
  -0.16600000E+01           0.00000000E+00
  -0.16500000E+01           0.00000000E+00
  -0.16400000E+01           0.00000000E+00
  -0.16300000E+01           0.00000000E+00
  -0.16200000E+01           0.00000000E+00
  -0.16100000E+01           0.00000000E+00
  -0.16000000E+01           0.00000000E+00
  -0.15900000E+01           0.00000000E+00
  -0.15800000E+01           0.00000000E+00
  -0.15700000E+01           0.00000000E+00
  -0.15600000E+01           0.00000000E+00
  -0.15500000E+01           0.00000000E+00
  -0.15400000E+01           0.00000000E+00
  -0.15300000E+01           0.00000000E+00
  -0.15200000E+01           0.00000000E+00
  -0.15100000E+01           0.00000000E+00
  -0.15000000E+01           0.00000000E+00
  -0.14900000E+01           0.00000000E+00
  -0.14800000E+01           0.00000000E+00
  -0.14700000E+01           0.00000000E+00
  -0.14600000E+01           0.00000000E+00
  -0.14500000E+01           0.00000000E+00
  -0.14400000E+01           0.00000000E+00
  -0.14300000E+01           0.00000000E+00
  -0.14200000E+01           0.00000000E+00
  -0.14100000E+01           0.00000000E+00
  -0.14000000E+01           0.00000000E+00
  -0.13900000E+01           0.00000000E+00
  -0.13800000E+01           0.00000000E+00
  -0.13700000E+01           0.00000000E+00
  -0.13600000E+01           0.00000000E+00
  -0.13500000E+01           0.00000000E+00
  -0.13400000E+01           0.00000000E+00
  -0.13300000E+01           0.00000000E+00
  -0.13200000E+01           0.00000000E+00
  -0.13100000E+01           0.00000000E+00
  -0.13000000E+01           0.00000000E+00
  -0.12900000E+01           0.00000000E+00
  -0.12800000E+01           0.00000000E+00
  -0.12700000E+01           0.00000000E+00
  -0.12600000E+01           0.00000000E+00
  -0.12500000E+01           0.00000000E+00
  -0.12400000E+01           0.00000000E+00
  -0.12300000E+01           0.00000000E+00
  -0.12200000E+01           0.00000000E+00
  -0.12100000E+01           0.00000000E+00
  -0.12000000E+01           0.00000000E+00
  -0.11900000E+01           0.00000000E+00
  -0.11800000E+01           0.00000000E+00
  -0.11700000E+01           0.00000000E+00
  -0.11600000E+01           0.00000000E+00
  -0.11500000E+01           0.00000000E+00
  -0.11400000E+01           0.00000000E+00
  -0.11300000E+01           0.00000000E+00
  -0.11200000E+01           0.00000000E+00
  -0.11100000E+01           0.00000000E+00
  -0.11000000E+01           0.00000000E+00
  -0.10900000E+01           0.00000000E+00
  -0.10800000E+01           0.00000000E+00
  -0.10700000E+01           0.00000000E+00
  -0.10600000E+01           0.00000000E+00
  -0.10500000E+01           0.00000000E+00
  -0.10400000E+01           0.00000000E+00
  -0.10300000E+01           0.00000000E+00
  -0.10200000E+01           0.00000000E+00
  -0.10100000E+01           0.00000000E+00
  -0.10000000E+01           0.00000000E+00
  -0.99000000E+00           0.00000000E+00
  -0.98000000E+00           0.00000000E+00
  -0.97000000E+00           0.00000000E+00
  -0.96000000E+00           0.00000000E+00
  -0.95000000E+00           0.00000000E+00
  -0.94000000E+00           0.00000000E+00
  -0.93000000E+00           0.00000000E+00
  -0.92000000E+00           0.00000000E+00
  -0.91000000E+00           0.00000000E+00
  -0.90000000E+00           0.00000000E+00
  -0.89000000E+00           0.00000000E+00
  -0.88000000E+00           0.00000000E+00
  -0.87000000E+00           0.00000000E+00
  -0.86000000E+00           0.00000000E+00
  -0.85000000E+00           0.00000000E+00
  -0.84000000E+00           0.00000000E+00
  -0.83000000E+00           0.00000000E+00
  -0.82000000E+00           0.00000000E+00
  -0.81000000E+00           0.00000000E+00
  -0.80000000E+00           0.00000000E+00
  -0.79000000E+00           0.00000000E+00
  -0.78000000E+00           0.00000000E+00
  -0.77000000E+00           0.00000000E+00
  -0.76000000E+00           0.00000000E+00
  -0.75000000E+00           0.00000000E+00
  -0.74000000E+00           0.00000000E+00
  -0.73000000E+00           0.00000000E+00
  -0.72000000E+00           0.00000000E+00
  -0.71000000E+00           0.00000000E+00
  -0.70000000E+00           0.00000000E+00
  -0.69000000E+00           0.00000000E+00
  -0.68000000E+00           0.00000000E+00
  -0.67000000E+00           0.00000000E+00
  -0.66000000E+00           0.00000000E+00
  -0.65000000E+00           0.00000000E+00
  -0.64000000E+00           0.00000000E+00
  -0.63000000E+00           0.00000000E+00
  -0.62000000E+00           0.00000000E+00
  -0.61000000E+00           0.00000000E+00
  -0.60000000E+00           0.00000000E+00
  -0.59000000E+00           0.00000000E+00
  -0.58000000E+00           0.00000000E+00
  -0.57000000E+00           0.00000000E+00
  -0.56000000E+00           0.00000000E+00
  -0.55000000E+00           0.00000000E+00
  -0.54000000E+00           0.00000000E+00
  -0.53000000E+00           0.00000000E+00
  -0.52000000E+00           0.00000000E+00
  -0.51000000E+00           0.00000000E+00
  -0.50000000E+00           0.00000000E+00
  -0.49000000E+00           0.00000000E+00
  -0.48000000E+00           0.00000000E+00
  -0.47000000E+00           0.00000000E+00
  -0.46000000E+00           0.00000000E+00
  -0.45000000E+00           0.00000000E+00
  -0.44000000E+00           0.00000000E+00
  -0.43000000E+00           0.00000000E+00
  -0.42000000E+00           0.00000000E+00
  -0.41000000E+00           0.00000000E+00
  -0.40000000E+00           0.00000000E+00
  -0.39000000E+00           0.00000000E+00
  -0.38000000E+00           0.00000000E+00
  -0.37000000E+00           0.00000000E+00
  -0.36000000E+00           0.00000000E+00
  -0.35000000E+00           0.00000000E+00
  -0.34000000E+00           0.00000000E+00
  -0.33000000E+00           0.00000000E+00
  -0.32000000E+00           0.00000000E+00
  -0.31000000E+00           0.00000000E+00
  -0.30000000E+00           0.00000000E+00
  -0.29000000E+00           0.00000000E+00
  -0.28000000E+00           0.00000000E+00
  -0.27000000E+00           0.00000000E+00
  -0.26000000E+00           0.00000000E+00
  -0.25000000E+00           0.00000000E+00
  -0.24000000E+00           0.00000000E+00
  -0.23000000E+00           0.00000000E+00
  -0.22000000E+00           0.00000000E+00
  -0.21000000E+00           0.00000000E+00
  -0.20000000E+00           0.00000000E+00
  -0.19000000E+00           0.00000000E+00
  -0.18000000E+00           0.00000000E+00
  -0.17000000E+00           0.00000000E+00
  -0.16000000E+00           0.00000000E+00
  -0.15000000E+00           0.00000000E+00
  -0.14000000E+00           0.00000000E+00
  -0.13000000E+00           0.00000000E+00
  -0.12000000E+00           0.00000000E+00
  -0.11000000E+00           0.00000000E+00
  -0.10000000E+00           0.00000000E+00
  -0.90000000E-01           0.00000000E+00
  -0.80000000E-01           0.00000000E+00
  -0.70000000E-01           0.00000000E+00
  -0.60000000E-01           0.00000000E+00
  -0.50000000E-01           0.00000000E+00
  -0.40000000E-01           0.00000000E+00
  -0.30000000E-01           0.00000000E+00
  -0.20000000E-01           0.00000000E+00
  -0.10000000E-01           0.00000000E+00
   0.00000000E+00           0.14883598E-01
   0.10000000E-01           0.12030009E+00
   0.20000000E-01           0.23967981E+00
   0.30000000E-01           0.35905388E+00
   0.40000000E-01           0.47536914E+00
   0.50000000E-01           0.59236711E+00
   0.60000000E-01           0.70601922E+00
   0.70000000E-01           0.81627998E+00
   0.80000000E-01           0.92625697E+00
   0.90000000E-01           0.10313234E+01
   0.10000000E+00           0.11316570E+01
   0.11000000E+00           0.12302038E+01
   0.12000000E+00           0.13249437E+01
   0.13000000E+00           0.14131966E+01
   0.14000000E+00           0.14976162E+01
   0.15000000E+00           0.15771274E+01
   0.16000000E+00           0.16525404E+01
   0.17000000E+00           0.17214241E+01
   0.18000000E+00           0.17854132E+01
   0.19000000E+00           0.18444505E+01
   0.20000000E+00           0.18977832E+01
   0.21000000E+00           0.19434362E+01
   0.22000000E+00           0.19832874E+01
   0.23000000E+00           0.20185014E+01
   0.24000000E+00           0.20495088E+01
   0.25000000E+00           0.20751532E+01
   0.26000000E+00           0.20910222E+01
   0.27000000E+00           0.21043144E+01
   0.28000000E+00           0.21110345E+01
   0.29000000E+00           0.21141549E+01
   0.30000000E+00           0.21130516E+01
   0.31000000E+00           0.21041106E+01
   0.32000000E+00           0.20913625E+01
   0.33000000E+00           0.20768935E+01
   0.34000000E+00           0.20548669E+01
   0.35000000E+00           0.20310855E+01
   0.36000000E+00           0.19998139E+01
   0.37000000E+00           0.19683780E+01
   0.38000000E+00           0.19326084E+01
   0.39000000E+00           0.18946108E+01
   0.40000000E+00           0.18543613E+01
   0.41000000E+00           0.18104288E+01
   0.42000000E+00           0.17629892E+01
   0.43000000E+00           0.17161607E+01
   0.44000000E+00           0.16660402E+01
   0.45000000E+00           0.16150063E+01
   0.46000000E+00           0.15627444E+01
   0.47000000E+00           0.15089687E+01
   0.48000000E+00           0.14551185E+01
   0.49000000E+00           0.14012169E+01
   0.50000000E+00           0.13469141E+01
   0.51000000E+00           0.12920076E+01
   0.52000000E+00           0.12374598E+01
   0.53000000E+00           0.11828157E+01
   0.54000000E+00           0.11296568E+01
   0.55000000E+00           0.10765818E+01
   0.56000000E+00           0.10252575E+01
   0.57000000E+00           0.97268148E+00
   0.58000000E+00           0.92201067E+00
   0.59000000E+00           0.87410176E+00
   0.60000000E+00           0.82697302E+00
   0.61000000E+00           0.78051940E+00
   0.62000000E+00           0.73544277E+00
   0.63000000E+00           0.69164947E+00
   0.64000000E+00           0.65038536E+00
   0.65000000E+00           0.60970608E+00
   0.66000000E+00           0.57146552E+00
   0.67000000E+00           0.53416455E+00
   0.68000000E+00           0.49866464E+00
   0.69000000E+00           0.46438219E+00
   0.70000000E+00           0.43273422E+00
   0.71000000E+00           0.40190335E+00
   0.72000000E+00           0.37314947E+00
   0.73000000E+00           0.34490141E+00
   0.74000000E+00           0.31944744E+00
   0.75000000E+00           0.29524277E+00
   0.76000000E+00           0.27215635E+00
   0.77000000E+00           0.25025926E+00
   0.78000000E+00           0.23022637E+00
   0.79000000E+00           0.21100758E+00
   0.80000000E+00           0.19327637E+00
   0.81000000E+00           0.17663704E+00
   0.82000000E+00           0.16160467E+00
   0.83000000E+00           0.14709118E+00
   0.84000000E+00           0.13403827E+00
   0.85000000E+00           0.12159744E+00
   0.86000000E+00           0.11044929E+00
   0.87000000E+00           0.10010115E+00
   0.88000000E+00           0.90598765E-01
   0.89000000E+00           0.81474780E-01
   0.90000000E+00           0.73575044E-01
   0.91000000E+00           0.66346737E-01
   0.92000000E+00           0.59312169E-01
   0.93000000E+00           0.53478131E-01
   0.94000000E+00           0.47808377E-01
   0.95000000E+00           0.42848677E-01
   0.96000000E+00           0.37997002E-01
   0.97000000E+00           0.33887478E-01
   0.98000000E+00           0.30093122E-01
   0.99000000E+00           0.26831041E-01
   0.10000000E+01           0.23916402E-01
   0.10100000E+01           0.20965168E-01
   0.10200000E+01           0.18548501E-01
   0.10300000E+01           0.16469136E-01
   0.10400000E+01           0.14415961E-01
   0.10500000E+01           0.12609877E-01
   0.10600000E+01           0.11119665E-01
   0.10700000E+01           0.96662257E-02
   0.10800000E+01           0.84988536E-02
   0.10900000E+01           0.73310406E-02
   0.11000000E+01           0.64064374E-02
   0.11100000E+01           0.55492945E-02
   0.11200000E+01           0.48775132E-02
   0.11300000E+01           0.41771605E-02
   0.11400000E+01           0.36140212E-02
   0.11500000E+01           0.30918871E-02
   0.11600000E+01           0.26712522E-02
   0.11700000E+01           0.22905644E-02
   0.11800000E+01           0.19577601E-02
   0.11900000E+01           0.16925044E-02
   0.12000000E+01           0.14529101E-02
   0.12100000E+01           0.12298942E-02
   0.12200000E+01           0.10588183E-02
   0.12300000E+01           0.88059965E-03
   0.12400000E+01           0.75564374E-03
   0.12500000E+01           0.62848325E-03
   0.12600000E+01           0.52539683E-03
   0.12700000E+01           0.43412698E-03
   0.12800000E+01           0.37072310E-03
   0.12900000E+01           0.31472663E-03
   0.13000000E+01           0.25687831E-03
   0.13100000E+01           0.21402116E-03
   0.13200000E+01           0.17460317E-03
   0.13300000E+01           0.14488536E-03
   0.13400000E+01           0.12654321E-03
   0.13500000E+01           0.10052910E-03
   0.13600000E+01           0.85537919E-04
   0.13700000E+01           0.65432099E-04
   0.13800000E+01           0.56701940E-04
   0.13900000E+01           0.41798942E-04
   0.14000000E+01           0.36155203E-04
   0.14100000E+01           0.29541446E-04
   0.14200000E+01           0.23897707E-04
   0.14300000E+01           0.16049383E-04
   0.14400000E+01           0.14726631E-04
   0.14500000E+01           0.13315697E-04
   0.14600000E+01           0.90828924E-05
   0.14700000E+01           0.74955908E-05
   0.14800000E+01           0.63492063E-05
   0.14900000E+01           0.47619048E-05
   0.15000000E+01           0.37918871E-05
   0.15100000E+01           0.24691358E-05
   0.15200000E+01           0.22927690E-05
   0.15300000E+01           0.16754850E-05
   0.15400000E+01           0.20282187E-05
   0.15500000E+01           0.97001764E-06
   0.15600000E+01           0.70546737E-06
   0.15700000E+01           0.52910053E-06
   0.15800000E+01           0.17636684E-06
   0.15900000E+01           0.79365079E-06
   0.16000000E+01           0.70546737E-06
   0.16100000E+01           0.26455026E-06
   0.16200000E+01           0.17636684E-06
   0.16300000E+01           0.00000000E+00
   0.16400000E+01           0.88183422E-07
   0.16500000E+01           0.88183422E-07
   0.16600000E+01           0.00000000E+00
   0.16700000E+01           0.00000000E+00
   0.16800000E+01           0.00000000E+00
   0.16900000E+01           0.00000000E+00
   0.17000000E+01           0.00000000E+00
   0.17100000E+01           0.00000000E+00
   0.17200000E+01           0.00000000E+00
   0.17300000E+01           0.00000000E+00
   0.17400000E+01           0.00000000E+00
   0.17500000E+01           0.00000000E+00
   0.17600000E+01           0.00000000E+00
   0.17700000E+01           0.00000000E+00
   0.17800000E+01           0.00000000E+00
   0.17900000E+01           0.00000000E+00
   0.18000000E+01           0.00000000E+00
   0.18100000E+01           0.00000000E+00
   0.18200000E+01           0.00000000E+00
   0.18300000E+01           0.00000000E+00
   0.18400000E+01           0.00000000E+00
   0.18500000E+01           0.00000000E+00
   0.18600000E+01           0.00000000E+00
   0.18700000E+01           0.00000000E+00
   0.18800000E+01           0.00000000E+00
   0.18900000E+01           0.00000000E+00
   0.19000000E+01           0.00000000E+00
   0.19100000E+01           0.00000000E+00
   0.19200000E+01           0.00000000E+00
   0.19300000E+01           0.00000000E+00
   0.19400000E+01           0.00000000E+00
   0.19500000E+01           0.00000000E+00
   0.19600000E+01           0.00000000E+00
   0.19700000E+01           0.00000000E+00
   0.19800000E+01           0.00000000E+00
   0.19900000E+01           0.00000000E+00
   0.20000000E+01           0.00000000E+00
 #T=     9.0000
  -0.20000000E+01           0.00000000E+00
  -0.19900000E+01           0.00000000E+00
  -0.19800000E+01           0.00000000E+00
  -0.19700000E+01           0.00000000E+00
  -0.19600000E+01           0.00000000E+00
  -0.19500000E+01           0.00000000E+00
  -0.19400000E+01           0.00000000E+00
  -0.19300000E+01           0.00000000E+00
  -0.19200000E+01           0.00000000E+00
  -0.19100000E+01           0.00000000E+00
  -0.19000000E+01           0.00000000E+00
  -0.18900000E+01           0.00000000E+00
  -0.18800000E+01           0.00000000E+00
  -0.18700000E+01           0.00000000E+00
  -0.18600000E+01           0.00000000E+00
  -0.18500000E+01           0.00000000E+00
  -0.18400000E+01           0.00000000E+00
  -0.18300000E+01           0.00000000E+00
  -0.18200000E+01           0.00000000E+00
  -0.18100000E+01           0.00000000E+00
  -0.18000000E+01           0.00000000E+00
  -0.17900000E+01           0.00000000E+00
  -0.17800000E+01           0.00000000E+00
  -0.17700000E+01           0.00000000E+00
  -0.17600000E+01           0.00000000E+00
  -0.17500000E+01           0.00000000E+00
  -0.17400000E+01           0.00000000E+00
  -0.17300000E+01           0.00000000E+00
  -0.17200000E+01           0.00000000E+00
  -0.17100000E+01           0.00000000E+00
  -0.17000000E+01           0.00000000E+00
  -0.16900000E+01           0.00000000E+00
  -0.16800000E+01           0.00000000E+00
  -0.16700000E+01           0.00000000E+00
  -0.16600000E+01           0.00000000E+00
  -0.16500000E+01           0.00000000E+00
  -0.16400000E+01           0.00000000E+00
  -0.16300000E+01           0.00000000E+00
  -0.16200000E+01           0.00000000E+00
  -0.16100000E+01           0.00000000E+00
  -0.16000000E+01           0.00000000E+00
  -0.15900000E+01           0.00000000E+00
  -0.15800000E+01           0.00000000E+00
  -0.15700000E+01           0.00000000E+00
  -0.15600000E+01           0.00000000E+00
  -0.15500000E+01           0.00000000E+00
  -0.15400000E+01           0.00000000E+00
  -0.15300000E+01           0.00000000E+00
  -0.15200000E+01           0.00000000E+00
  -0.15100000E+01           0.00000000E+00
  -0.15000000E+01           0.00000000E+00
  -0.14900000E+01           0.00000000E+00
  -0.14800000E+01           0.00000000E+00
  -0.14700000E+01           0.00000000E+00
  -0.14600000E+01           0.00000000E+00
  -0.14500000E+01           0.00000000E+00
  -0.14400000E+01           0.00000000E+00
  -0.14300000E+01           0.00000000E+00
  -0.14200000E+01           0.00000000E+00
  -0.14100000E+01           0.00000000E+00
  -0.14000000E+01           0.00000000E+00
  -0.13900000E+01           0.00000000E+00
  -0.13800000E+01           0.00000000E+00
  -0.13700000E+01           0.00000000E+00
  -0.13600000E+01           0.00000000E+00
  -0.13500000E+01           0.00000000E+00
  -0.13400000E+01           0.00000000E+00
  -0.13300000E+01           0.00000000E+00
  -0.13200000E+01           0.00000000E+00
  -0.13100000E+01           0.00000000E+00
  -0.13000000E+01           0.00000000E+00
  -0.12900000E+01           0.00000000E+00
  -0.12800000E+01           0.00000000E+00
  -0.12700000E+01           0.00000000E+00
  -0.12600000E+01           0.00000000E+00
  -0.12500000E+01           0.00000000E+00
  -0.12400000E+01           0.00000000E+00
  -0.12300000E+01           0.00000000E+00
  -0.12200000E+01           0.00000000E+00
  -0.12100000E+01           0.00000000E+00
  -0.12000000E+01           0.00000000E+00
  -0.11900000E+01           0.00000000E+00
  -0.11800000E+01           0.00000000E+00
  -0.11700000E+01           0.00000000E+00
  -0.11600000E+01           0.00000000E+00
  -0.11500000E+01           0.00000000E+00
  -0.11400000E+01           0.00000000E+00
  -0.11300000E+01           0.00000000E+00
  -0.11200000E+01           0.00000000E+00
  -0.11100000E+01           0.00000000E+00
  -0.11000000E+01           0.00000000E+00
  -0.10900000E+01           0.00000000E+00
  -0.10800000E+01           0.00000000E+00
  -0.10700000E+01           0.00000000E+00
  -0.10600000E+01           0.00000000E+00
  -0.10500000E+01           0.00000000E+00
  -0.10400000E+01           0.00000000E+00
  -0.10300000E+01           0.00000000E+00
  -0.10200000E+01           0.00000000E+00
  -0.10100000E+01           0.00000000E+00
  -0.10000000E+01           0.00000000E+00
  -0.99000000E+00           0.00000000E+00
  -0.98000000E+00           0.00000000E+00
  -0.97000000E+00           0.00000000E+00
  -0.96000000E+00           0.00000000E+00
  -0.95000000E+00           0.00000000E+00
  -0.94000000E+00           0.00000000E+00
  -0.93000000E+00           0.00000000E+00
  -0.92000000E+00           0.00000000E+00
  -0.91000000E+00           0.00000000E+00
  -0.90000000E+00           0.00000000E+00
  -0.89000000E+00           0.00000000E+00
  -0.88000000E+00           0.00000000E+00
  -0.87000000E+00           0.00000000E+00
  -0.86000000E+00           0.00000000E+00
  -0.85000000E+00           0.00000000E+00
  -0.84000000E+00           0.00000000E+00
  -0.83000000E+00           0.00000000E+00
  -0.82000000E+00           0.00000000E+00
  -0.81000000E+00           0.00000000E+00
  -0.80000000E+00           0.00000000E+00
  -0.79000000E+00           0.00000000E+00
  -0.78000000E+00           0.00000000E+00
  -0.77000000E+00           0.00000000E+00
  -0.76000000E+00           0.00000000E+00
  -0.75000000E+00           0.00000000E+00
  -0.74000000E+00           0.00000000E+00
  -0.73000000E+00           0.00000000E+00
  -0.72000000E+00           0.00000000E+00
  -0.71000000E+00           0.00000000E+00
  -0.70000000E+00           0.00000000E+00
  -0.69000000E+00           0.00000000E+00
  -0.68000000E+00           0.00000000E+00
  -0.67000000E+00           0.00000000E+00
  -0.66000000E+00           0.00000000E+00
  -0.65000000E+00           0.00000000E+00
  -0.64000000E+00           0.00000000E+00
  -0.63000000E+00           0.00000000E+00
  -0.62000000E+00           0.00000000E+00
  -0.61000000E+00           0.00000000E+00
  -0.60000000E+00           0.00000000E+00
  -0.59000000E+00           0.00000000E+00
  -0.58000000E+00           0.00000000E+00
  -0.57000000E+00           0.00000000E+00
  -0.56000000E+00           0.00000000E+00
  -0.55000000E+00           0.00000000E+00
  -0.54000000E+00           0.00000000E+00
  -0.53000000E+00           0.00000000E+00
  -0.52000000E+00           0.00000000E+00
  -0.51000000E+00           0.00000000E+00
  -0.50000000E+00           0.00000000E+00
  -0.49000000E+00           0.00000000E+00
  -0.48000000E+00           0.00000000E+00
  -0.47000000E+00           0.00000000E+00
  -0.46000000E+00           0.00000000E+00
  -0.45000000E+00           0.00000000E+00
  -0.44000000E+00           0.00000000E+00
  -0.43000000E+00           0.00000000E+00
  -0.42000000E+00           0.00000000E+00
  -0.41000000E+00           0.00000000E+00
  -0.40000000E+00           0.00000000E+00
  -0.39000000E+00           0.00000000E+00
  -0.38000000E+00           0.00000000E+00
  -0.37000000E+00           0.00000000E+00
  -0.36000000E+00           0.00000000E+00
  -0.35000000E+00           0.00000000E+00
  -0.34000000E+00           0.00000000E+00
  -0.33000000E+00           0.00000000E+00
  -0.32000000E+00           0.00000000E+00
  -0.31000000E+00           0.00000000E+00
  -0.30000000E+00           0.00000000E+00
  -0.29000000E+00           0.00000000E+00
  -0.28000000E+00           0.00000000E+00
  -0.27000000E+00           0.00000000E+00
  -0.26000000E+00           0.00000000E+00
  -0.25000000E+00           0.00000000E+00
  -0.24000000E+00           0.00000000E+00
  -0.23000000E+00           0.00000000E+00
  -0.22000000E+00           0.00000000E+00
  -0.21000000E+00           0.00000000E+00
  -0.20000000E+00           0.00000000E+00
  -0.19000000E+00           0.00000000E+00
  -0.18000000E+00           0.00000000E+00
  -0.17000000E+00           0.00000000E+00
  -0.16000000E+00           0.00000000E+00
  -0.15000000E+00           0.00000000E+00
  -0.14000000E+00           0.00000000E+00
  -0.13000000E+00           0.00000000E+00
  -0.12000000E+00           0.00000000E+00
  -0.11000000E+00           0.00000000E+00
  -0.10000000E+00           0.00000000E+00
  -0.90000000E-01           0.00000000E+00
  -0.80000000E-01           0.00000000E+00
  -0.70000000E-01           0.00000000E+00
  -0.60000000E-01           0.00000000E+00
  -0.50000000E-01           0.00000000E+00
  -0.40000000E-01           0.00000000E+00
  -0.30000000E-01           0.00000000E+00
  -0.20000000E-01           0.00000000E+00
  -0.10000000E-01           0.00000000E+00
   0.00000000E+00           0.13224868E-01
   0.10000000E-01           0.10613422E+00
   0.20000000E-01           0.21166146E+00
   0.30000000E-01           0.31684700E+00
   0.40000000E-01           0.42111076E+00
   0.50000000E-01           0.52417072E+00
   0.60000000E-01           0.62476896E+00
   0.70000000E-01           0.72547619E+00
   0.80000000E-01           0.82084392E+00
   0.90000000E-01           0.91533183E+00
   0.10000000E+00           0.10076334E+01
   0.11000000E+00           0.10971435E+01
   0.12000000E+00           0.11830651E+01
   0.13000000E+00           0.12626760E+01
   0.14000000E+00           0.13435351E+01
   0.15000000E+00           0.14177983E+01
   0.16000000E+00           0.14868561E+01
   0.17000000E+00           0.15509612E+01
   0.18000000E+00           0.16137076E+01
   0.19000000E+00           0.16703164E+01
   0.20000000E+00           0.17248467E+01
   0.21000000E+00           0.17709976E+01
   0.22000000E+00           0.18129345E+01
   0.23000000E+00           0.18531657E+01
   0.24000000E+00           0.18866197E+01
   0.25000000E+00           0.19152589E+01
   0.26000000E+00           0.19386565E+01
   0.27000000E+00           0.19584778E+01
   0.28000000E+00           0.19741327E+01
   0.29000000E+00           0.19816229E+01
   0.30000000E+00           0.19901791E+01
   0.31000000E+00           0.19900615E+01
   0.32000000E+00           0.19876780E+01
   0.33000000E+00           0.19789822E+01
   0.34000000E+00           0.19681360E+01
   0.35000000E+00           0.19547207E+01
   0.36000000E+00           0.19385490E+01
   0.37000000E+00           0.19154676E+01
   0.38000000E+00           0.18913310E+01
   0.39000000E+00           0.18625223E+01
   0.40000000E+00           0.18322783E+01
   0.41000000E+00           0.18003211E+01
   0.42000000E+00           0.17635044E+01
   0.43000000E+00           0.17261950E+01
   0.44000000E+00           0.16868712E+01
   0.45000000E+00           0.16456583E+01
   0.46000000E+00           0.16025236E+01
   0.47000000E+00           0.15588679E+01
   0.48000000E+00           0.15149035E+01
   0.49000000E+00           0.14669104E+01
[...]
   0.13800000E+01           0.68932249E+00
   0.13900000E+01           0.69142628E+00
   0.14000000E+01           0.69326808E+00
   0.14100000E+01           0.69523342E+00
   0.14200000E+01           0.69679021E+00
   0.14300000E+01           0.69915688E+00
   0.14400000E+01           0.70097831E+00
   0.14500000E+01           0.70275159E+00
   0.14600000E+01           0.70464295E+00
   0.14700000E+01           0.70610661E+00
   0.14800000E+01           0.70771914E+00
   0.14900000E+01           0.70944215E+00
   0.15000000E+01           0.71099471E+00
   0.15100000E+01           0.71178563E+00
   0.15200000E+01           0.71395688E+00
   0.15300000E+01           0.71485247E+00
   0.15400000E+01           0.71605370E+00
   0.15500000E+01           0.71725556E+00
   0.15600000E+01           0.71854427E+00
   0.15700000E+01           0.71994709E+00
   0.15800000E+01           0.72092646E+00
   0.15900000E+01           0.72202549E+00
   0.16000000E+01           0.72338607E+00
   0.16100000E+01           0.72392381E+00
   0.16200000E+01           0.72511041E+00
   0.16300000E+01           0.72634691E+00
   0.16400000E+01           0.72658915E+00
   0.16500000E+01           0.72693951E+00
   0.16600000E+01           0.72843739E+00
   0.16700000E+01           0.72861243E+00
   0.16800000E+01           0.72945353E+00
   0.16900000E+01           0.72992443E+00
   0.17000000E+01           0.73065547E+00
   0.17100000E+01           0.73086446E+00
   0.17200000E+01           0.73152593E+00
   0.17300000E+01           0.73188977E+00
   0.17400000E+01           0.73241587E+00
   0.17500000E+01           0.73264850E+00
   0.17600000E+01           0.73312363E+00
   0.17700000E+01           0.73283228E+00
   0.17800000E+01           0.73351287E+00
   0.17900000E+01           0.73334577E+00
   0.18000000E+01           0.73286658E+00
   0.18100000E+01           0.73373571E+00
   0.18200000E+01           0.73353148E+00
   0.18300000E+01           0.73375944E+00
   0.18400000E+01           0.73371261E+00
   0.18500000E+01           0.73315467E+00
   0.18600000E+01           0.73307840E+00
   0.18700000E+01           0.73318774E+00
   0.18800000E+01           0.73285123E+00
   0.18900000E+01           0.73231623E+00
   0.19000000E+01           0.73192443E+00
   0.19100000E+01           0.73161411E+00
   0.19200000E+01           0.73110388E+00
   0.19300000E+01           0.73059065E+00
   0.19400000E+01           0.73042099E+00
   0.19500000E+01           0.72956869E+00
   0.19600000E+01           0.72902831E+00
   0.19700000E+01           0.72819312E+00
   0.19800000E+01           0.72834718E+00
   0.19900000E+01           0.72702072E+00
   0.20000000E+01           0.36291437E+00
 #T=    84.0000
  -0.20000000E+01           0.00000000E+00
  -0.19900000E+01           0.00000000E+00
  -0.19800000E+01           0.00000000E+00
  -0.19700000E+01           0.00000000E+00
  -0.19600000E+01           0.00000000E+00
  -0.19500000E+01           0.00000000E+00
  -0.19400000E+01           0.00000000E+00
  -0.19300000E+01           0.00000000E+00
  -0.19200000E+01           0.00000000E+00
  -0.19100000E+01           0.00000000E+00
  -0.19000000E+01           0.00000000E+00
  -0.18900000E+01           0.00000000E+00
  -0.18800000E+01           0.00000000E+00
  -0.18700000E+01           0.00000000E+00
  -0.18600000E+01           0.00000000E+00
  -0.18500000E+01           0.00000000E+00
  -0.18400000E+01           0.00000000E+00
  -0.18300000E+01           0.00000000E+00
  -0.18200000E+01           0.00000000E+00
  -0.18100000E+01           0.00000000E+00
  -0.18000000E+01           0.00000000E+00
  -0.17900000E+01           0.00000000E+00
  -0.17800000E+01           0.00000000E+00
  -0.17700000E+01           0.00000000E+00
  -0.17600000E+01           0.00000000E+00
  -0.17500000E+01           0.00000000E+00
  -0.17400000E+01           0.00000000E+00
  -0.17300000E+01           0.00000000E+00
  -0.17200000E+01           0.00000000E+00
  -0.17100000E+01           0.00000000E+00
  -0.17000000E+01           0.00000000E+00
  -0.16900000E+01           0.00000000E+00
  -0.16800000E+01           0.00000000E+00
  -0.16700000E+01           0.00000000E+00
  -0.16600000E+01           0.00000000E+00
  -0.16500000E+01           0.00000000E+00
  -0.16400000E+01           0.00000000E+00
  -0.16300000E+01           0.00000000E+00
  -0.16200000E+01           0.00000000E+00
  -0.16100000E+01           0.00000000E+00
  -0.16000000E+01           0.00000000E+00
  -0.15900000E+01           0.00000000E+00
  -0.15800000E+01           0.00000000E+00
  -0.15700000E+01           0.00000000E+00
  -0.15600000E+01           0.00000000E+00
  -0.15500000E+01           0.00000000E+00
  -0.15400000E+01           0.00000000E+00
  -0.15300000E+01           0.00000000E+00
  -0.15200000E+01           0.00000000E+00
  -0.15100000E+01           0.00000000E+00
  -0.15000000E+01           0.00000000E+00
  -0.14900000E+01           0.00000000E+00
  -0.14800000E+01           0.00000000E+00
  -0.14700000E+01           0.00000000E+00
  -0.14600000E+01           0.00000000E+00
  -0.14500000E+01           0.00000000E+00
  -0.14400000E+01           0.00000000E+00
  -0.14300000E+01           0.00000000E+00
  -0.14200000E+01           0.00000000E+00
  -0.14100000E+01           0.00000000E+00
  -0.14000000E+01           0.00000000E+00
  -0.13900000E+01           0.00000000E+00
  -0.13800000E+01           0.00000000E+00
  -0.13700000E+01           0.00000000E+00
  -0.13600000E+01           0.00000000E+00
  -0.13500000E+01           0.00000000E+00
  -0.13400000E+01           0.00000000E+00
  -0.13300000E+01           0.00000000E+00
  -0.13200000E+01           0.00000000E+00
  -0.13100000E+01           0.00000000E+00
  -0.13000000E+01           0.00000000E+00
  -0.12900000E+01           0.00000000E+00
  -0.12800000E+01           0.00000000E+00
  -0.12700000E+01           0.00000000E+00
  -0.12600000E+01           0.00000000E+00
  -0.12500000E+01           0.00000000E+00
  -0.12400000E+01           0.00000000E+00
  -0.12300000E+01           0.00000000E+00
  -0.12200000E+01           0.00000000E+00
  -0.12100000E+01           0.00000000E+00
  -0.12000000E+01           0.00000000E+00
  -0.11900000E+01           0.00000000E+00
  -0.11800000E+01           0.00000000E+00
  -0.11700000E+01           0.00000000E+00
  -0.11600000E+01           0.00000000E+00
  -0.11500000E+01           0.00000000E+00
  -0.11400000E+01           0.00000000E+00
  -0.11300000E+01           0.00000000E+00
  -0.11200000E+01           0.00000000E+00
  -0.11100000E+01           0.00000000E+00
  -0.11000000E+01           0.00000000E+00
  -0.10900000E+01           0.00000000E+00
  -0.10800000E+01           0.00000000E+00
  -0.10700000E+01           0.00000000E+00
  -0.10600000E+01           0.00000000E+00
  -0.10500000E+01           0.00000000E+00
  -0.10400000E+01           0.00000000E+00
  -0.10300000E+01           0.00000000E+00
  -0.10200000E+01           0.00000000E+00
  -0.10100000E+01           0.00000000E+00
  -0.10000000E+01           0.00000000E+00
  -0.99000000E+00           0.00000000E+00
  -0.98000000E+00           0.00000000E+00
  -0.97000000E+00           0.00000000E+00
  -0.96000000E+00           0.00000000E+00
  -0.95000000E+00           0.00000000E+00
  -0.94000000E+00           0.00000000E+00
  -0.93000000E+00           0.00000000E+00
  -0.92000000E+00           0.00000000E+00
  -0.91000000E+00           0.00000000E+00
  -0.90000000E+00           0.00000000E+00
  -0.89000000E+00           0.00000000E+00
  -0.88000000E+00           0.00000000E+00
  -0.87000000E+00           0.00000000E+00
  -0.86000000E+00           0.00000000E+00
  -0.85000000E+00           0.00000000E+00
  -0.84000000E+00           0.00000000E+00
  -0.83000000E+00           0.00000000E+00
  -0.82000000E+00           0.00000000E+00
  -0.81000000E+00           0.00000000E+00
  -0.80000000E+00           0.00000000E+00
  -0.79000000E+00           0.00000000E+00
  -0.78000000E+00           0.00000000E+00
  -0.77000000E+00           0.00000000E+00
  -0.76000000E+00           0.00000000E+00
  -0.75000000E+00           0.00000000E+00
  -0.74000000E+00           0.00000000E+00
  -0.73000000E+00           0.00000000E+00
  -0.72000000E+00           0.00000000E+00
  -0.71000000E+00           0.00000000E+00
  -0.70000000E+00           0.00000000E+00
  -0.69000000E+00           0.00000000E+00
  -0.68000000E+00           0.00000000E+00
  -0.67000000E+00           0.00000000E+00
  -0.66000000E+00           0.00000000E+00
  -0.65000000E+00           0.00000000E+00
  -0.64000000E+00           0.00000000E+00
  -0.63000000E+00           0.00000000E+00
  -0.62000000E+00           0.00000000E+00
  -0.61000000E+00           0.00000000E+00
  -0.60000000E+00           0.00000000E+00
  -0.59000000E+00           0.00000000E+00
  -0.58000000E+00           0.00000000E+00
  -0.57000000E+00           0.00000000E+00
  -0.56000000E+00           0.00000000E+00
  -0.55000000E+00           0.00000000E+00
  -0.54000000E+00           0.00000000E+00
  -0.53000000E+00           0.00000000E+00
  -0.52000000E+00           0.00000000E+00
  -0.51000000E+00           0.00000000E+00
  -0.50000000E+00           0.00000000E+00
  -0.49000000E+00           0.00000000E+00
  -0.48000000E+00           0.00000000E+00
  -0.47000000E+00           0.00000000E+00
  -0.46000000E+00           0.00000000E+00
  -0.45000000E+00           0.00000000E+00
  -0.44000000E+00           0.00000000E+00
  -0.43000000E+00           0.00000000E+00
  -0.42000000E+00           0.00000000E+00
  -0.41000000E+00           0.00000000E+00
  -0.40000000E+00           0.00000000E+00
  -0.39000000E+00           0.00000000E+00
  -0.38000000E+00           0.00000000E+00
  -0.37000000E+00           0.00000000E+00
  -0.36000000E+00           0.00000000E+00
  -0.35000000E+00           0.00000000E+00
  -0.34000000E+00           0.00000000E+00
  -0.33000000E+00           0.00000000E+00
  -0.32000000E+00           0.00000000E+00
  -0.31000000E+00           0.00000000E+00
  -0.30000000E+00           0.00000000E+00
  -0.29000000E+00           0.00000000E+00
  -0.28000000E+00           0.00000000E+00
  -0.27000000E+00           0.00000000E+00
  -0.26000000E+00           0.00000000E+00
  -0.25000000E+00           0.00000000E+00
  -0.24000000E+00           0.00000000E+00
  -0.23000000E+00           0.00000000E+00
  -0.22000000E+00           0.00000000E+00
  -0.21000000E+00           0.00000000E+00
  -0.20000000E+00           0.00000000E+00
  -0.19000000E+00           0.00000000E+00
  -0.18000000E+00           0.00000000E+00
  -0.17000000E+00           0.00000000E+00
  -0.16000000E+00           0.00000000E+00
  -0.15000000E+00           0.00000000E+00
  -0.14000000E+00           0.00000000E+00
  -0.13000000E+00           0.00000000E+00
  -0.12000000E+00           0.00000000E+00
  -0.11000000E+00           0.00000000E+00
  -0.10000000E+00           0.00000000E+00
  -0.90000000E-01           0.00000000E+00
  -0.80000000E-01           0.00000000E+00
  -0.70000000E-01           0.00000000E+00
  -0.60000000E-01           0.00000000E+00
  -0.50000000E-01           0.00000000E+00
  -0.40000000E-01           0.00000000E+00
  -0.30000000E-01           0.00000000E+00
  -0.20000000E-01           0.00000000E+00
  -0.10000000E-01           0.00000000E+00
   0.00000000E+00           0.82627866E-03
   0.10000000E-01           0.66833333E-02
   0.20000000E-01           0.13394885E-01
   0.30000000E-01           0.19987125E-01
   0.40000000E-01           0.26595150E-01
   0.50000000E-01           0.33152028E-01
   0.60000000E-01           0.39970106E-01
   0.70000000E-01           0.46576543E-01
   0.80000000E-01           0.53130071E-01
   0.90000000E-01           0.59978307E-01
   0.10000000E+00           0.66436861E-01
   0.11000000E+00           0.73041358E-01
   0.12000000E+00           0.79565079E-01
   0.13000000E+00           0.86232540E-01
   0.14000000E+00           0.92983598E-01
   0.15000000E+00           0.99417284E-01
   0.16000000E+00           0.10611984E+00
   0.17000000E+00           0.11269850E+00
   0.18000000E+00           0.11926384E+00
   0.19000000E+00           0.12578245E+00
   0.20000000E+00           0.13219092E+00
   0.21000000E+00           0.13889912E+00
   0.22000000E+00           0.14544938E+00
   0.23000000E+00           0.15180820E+00
   0.24000000E+00           0.15827681E+00
   0.25000000E+00           0.16477751E+00
   0.26000000E+00           0.17151437E+00
   0.27000000E+00           0.17777743E+00
   0.28000000E+00           0.18408898E+00
   0.29000000E+00           0.19056896E+00
   0.30000000E+00           0.19703448E+00
   0.31000000E+00           0.20356605E+00
   0.32000000E+00           0.20974480E+00
   0.33000000E+00           0.21599436E+00
   0.34000000E+00           0.22244127E+00
   0.35000000E+00           0.22829303E+00
   0.36000000E+00           0.23489674E+00
   0.37000000E+00           0.24135996E+00
   0.38000000E+00           0.24773254E+00
   0.39000000E+00           0.25380450E+00
   0.40000000E+00           0.25962002E+00
   0.41000000E+00           0.26589771E+00
   0.42000000E+00           0.27229303E+00
   0.43000000E+00           0.27818677E+00
   0.44000000E+00           0.28415459E+00
   0.45000000E+00           0.29054118E+00
   0.46000000E+00           0.29638810E+00
   0.47000000E+00           0.30269780E+00
   0.48000000E+00           0.30839347E+00
   0.49000000E+00           0.31441914E+00
   0.50000000E+00           0.32057099E+00
   0.51000000E+00           0.32629056E+00
   0.52000000E+00           0.33203889E+00
   0.53000000E+00           0.33801093E+00
   0.54000000E+00           0.34385529E+00
   0.55000000E+00           0.34934894E+00
   0.56000000E+00           0.35514947E+00
   0.57000000E+00           0.36099286E+00
   0.58000000E+00           0.36675582E+00
   0.59000000E+00           0.37255952E+00
   0.60000000E+00           0.37812787E+00
   0.61000000E+00           0.38383563E+00
   0.62000000E+00           0.38913333E+00
   0.63000000E+00           0.39509462E+00
   0.64000000E+00           0.40044797E+00
   0.65000000E+00           0.40613898E+00
   0.66000000E+00           0.41109691E+00
   0.67000000E+00           0.41658457E+00
   0.68000000E+00           0.42190494E+00
   0.69000000E+00           0.42734347E+00
   0.70000000E+00           0.43256861E+00
   0.71000000E+00           0.43758527E+00
   0.72000000E+00           0.44313342E+00
   0.73000000E+00           0.44829718E+00
   0.74000000E+00           0.45322346E+00
   0.75000000E+00           0.45858280E+00
   0.76000000E+00           0.46377646E+00
   0.77000000E+00           0.46854321E+00
   0.78000000E+00           0.47363677E+00
   0.79000000E+00           0.47851058E+00
   0.80000000E+00           0.48363783E+00
   0.81000000E+00           0.48839206E+00
   0.82000000E+00           0.49323942E+00
   0.83000000E+00           0.49742099E+00
   0.84000000E+00           0.50263810E+00
   0.85000000E+00           0.50725459E+00
   0.86000000E+00           0.51185494E+00
   0.87000000E+00           0.51676843E+00
   0.88000000E+00           0.52113730E+00
   0.89000000E+00           0.52592496E+00
   0.90000000E+00           0.52985988E+00
   0.91000000E+00           0.53463122E+00
   0.92000000E+00           0.53859947E+00
   0.93000000E+00           0.54341252E+00
   0.94000000E+00           0.54714647E+00
   0.95000000E+00           0.55174039E+00
   0.96000000E+00           0.55591402E+00
   0.97000000E+00           0.56028351E+00
   0.98000000E+00           0.56417407E+00
   0.99000000E+00           0.56835688E+00
   0.10000000E+01           0.57220714E+00
   0.10100000E+01           0.57632266E+00
   0.10200000E+01           0.58017257E+00
   0.10300000E+01           0.58398422E+00
   0.10400000E+01           0.58782522E+00
   0.10500000E+01           0.59151173E+00
   0.10600000E+01           0.59544436E+00
   0.10700000E+01           0.59894780E+00
   0.10800000E+01           0.60296446E+00
   0.10900000E+01           0.60654136E+00
   0.11000000E+01           0.61002363E+00
   0.11100000E+01           0.61323474E+00
   0.11200000E+01           0.61731376E+00
   0.11300000E+01           0.62034048E+00
   0.11400000E+01           0.62357778E+00
   0.11500000E+01           0.62686755E+00
   0.11600000E+01           0.63003360E+00
   0.11700000E+01           0.63329295E+00
   0.11800000E+01           0.63637601E+00
   0.11900000E+01           0.64019180E+00
   0.12000000E+01           0.64253413E+00
   0.12100000E+01           0.64594480E+00
   0.12200000E+01           0.64842531E+00
   0.12300000E+01           0.65196711E+00
   0.12400000E+01           0.65446120E+00
   0.12500000E+01           0.65759797E+00
   0.12600000E+01           0.65963060E+00
   0.12700000E+01           0.66288519E+00
   0.12800000E+01           0.66569903E+00
   0.12900000E+01           0.66838880E+00
   0.13000000E+01           0.67074947E+00
   0.13100000E+01           0.67336129E+00
   0.13200000E+01           0.67588360E+00
   0.13300000E+01           0.67792125E+00
   0.13400000E+01           0.68079268E+00
   0.13500000E+01           0.68242593E+00
   0.13600000E+01           0.68471287E+00
   0.13700000E+01           0.68801323E+00
   0.13800000E+01           0.68920661E+00
   0.13900000E+01           0.69177734E+00
   0.14000000E+01           0.69379127E+00
   0.14100000E+01           0.69586940E+00
   0.14200000E+01           0.69738801E+00
   0.14300000E+01           0.69925697E+00
   0.14400000E+01           0.70125432E+00
   0.14500000E+01           0.70292072E+00
   0.14600000E+01           0.70470309E+00
   0.14700000E+01           0.70687108E+00
   0.14800000E+01           0.70801173E+00
   0.14900000E+01           0.70984956E+00
   0.15000000E+01           0.71143510E+00
   0.15100000E+01           0.71330758E+00
   0.15200000E+01           0.71430529E+00
   0.15300000E+01           0.71565917E+00
   0.15400000E+01           0.71735441E+00
   0.15500000E+01           0.71847804E+00
   0.15600000E+01           0.72015335E+00
   0.15700000E+01           0.72085388E+00
   0.15800000E+01           0.72208457E+00
   0.15900000E+01           0.72406808E+00
   0.16000000E+01           0.72406764E+00
   0.16100000E+01           0.72566367E+00
   0.16200000E+01           0.72608721E+00
   0.16300000E+01           0.72758377E+00
   0.16400000E+01           0.72796014E+00
   0.16500000E+01           0.72916208E+00
   0.16600000E+01           0.73034162E+00
   0.16700000E+01           0.73078730E+00
   0.16800000E+01           0.73109250E+00
   0.16900000E+01           0.73163483E+00
   0.17000000E+01           0.73211799E+00
   0.17100000E+01           0.73291640E+00
   0.17200000E+01           0.73372884E+00
   0.17300000E+01           0.73365873E+00
   0.17400000E+01           0.73426146E+00
   0.17500000E+01           0.73498748E+00
   0.17600000E+01           0.73554612E+00
   0.17700000E+01           0.73549400E+00
   0.17800000E+01           0.73582866E+00
   0.17900000E+01           0.73614436E+00
   0.18000000E+01           0.73574048E+00
   0.18100000E+01           0.73586367E+00
   0.18200000E+01           0.73644215E+00
   0.18300000E+01           0.73612549E+00
   0.18400000E+01           0.73588774E+00
   0.18500000E+01           0.73571922E+00
   0.18600000E+01           0.73557619E+00
   0.18700000E+01           0.73591340E+00
   0.18800000E+01           0.73530838E+00
   0.18900000E+01           0.73529171E+00
   0.19000000E+01           0.73519559E+00
   0.19100000E+01           0.73460758E+00
   0.19200000E+01           0.73466005E+00
   0.19300000E+01           0.73368210E+00
   0.19400000E+01           0.73361605E+00
   0.19500000E+01           0.73308139E+00
   0.19600000E+01           0.73255141E+00
   0.19700000E+01           0.73175996E+00
   0.19800000E+01           0.73106728E+00
   0.19900000E+01           0.73051764E+00
   0.20000000E+01           0.36498713E+00
