 #written on 20Dec2024 at 17:45:30 
 #----------------------------------------------- MONTECARLO ---------------------------------------------------#
 # Temp      Magnetization     Energy_ave          C_M              Sus              U_E              U_M       #
 #--------------------------------------------------------------------------------------------------------------#
   5.0000   0.31481155E-02  -0.93551536E+02   0.10321089E+01   0.11202004E-02   0.66666493E+00   0.35148896E+00
   6.0000   0.34641037E-02  -0.92516413E+02   0.10390114E+01   0.11135661E-02   0.66666410E+00   0.35419288E+00
   7.0000   0.37574873E-02  -0.91476010E+02   0.10432190E+01   0.11049908E-02   0.66666308E+00   0.35755488E+00
   8.0000   0.40284816E-02  -0.90427392E+02   0.10450240E+01   0.10983327E-02   0.66666186E+00   0.36081311E+00
   9.0000   0.42955697E-02  -0.89372798E+02   0.10633700E+01   0.10939887E-02   0.66666033E+00   0.36545411E+00
  10.0000   0.45414118E-02  -0.88307781E+02   0.10703584E+01   0.10853851E-02   0.66665860E+00   0.36816516E+00
  11.0000   0.47806705E-02  -0.87235132E+02   0.10756416E+01   0.10782315E-02   0.66665661E+00   0.37149944E+00
  12.0000   0.50170219E-02  -0.86154868E+02   0.10825232E+01   0.10748444E-02   0.66665432E+00   0.37507910E+00
  13.0000   0.52411636E-02  -0.85064982E+02   0.10922257E+01   0.10704452E-02   0.66665167E+00   0.37771452E+00
  14.0000   0.54565369E-02  -0.83966912E+02   0.11085674E+01   0.10630413E-02   0.66664855E+00   0.38177354E+00
  15.0000   0.56730901E-02  -0.82856873E+02   0.11178269E+01   0.10637620E-02   0.66664513E+00   0.38357902E+00
  16.0000   0.58819737E-02  -0.81737302E+02   0.11279067E+01   0.10593473E-02   0.66664126E+00   0.38714582E+00
  17.0000   0.60812908E-02  -0.80604766E+02   0.11384848E+01   0.10518445E-02   0.66663690E+00   0.38998270E+00
  18.0000   0.62911813E-02  -0.79461108E+02   0.11419223E+01   0.10550382E-02   0.66663223E+00   0.39268277E+00
  19.0000   0.64877561E-02  -0.78304703E+02   0.11633488E+01   0.10505358E-02   0.66662641E+00   0.39584247E+00
  20.0000   0.66885247E-02  -0.77135991E+02   0.11805617E+01   0.10485889E-02   0.66662002E+00   0.39969016E+00
  21.0000   0.68782168E-02  -0.75950633E+02   0.11966393E+01   0.10463993E-02   0.66661290E+00   0.40172964E+00
  22.0000   0.70687987E-02  -0.74754014E+02   0.12077628E+01   0.10472749E-02   0.66660519E+00   0.40456747E+00
  23.0000   0.72566080E-02  -0.73538140E+02   0.12291785E+01   0.10457976E-02   0.66659601E+00   0.40686533E+00
  24.0000   0.74439741E-02  -0.72306061E+02   0.12414193E+01   0.10447580E-02   0.66658629E+00   0.40954295E+00
  25.0000   0.76220818E-02  -0.71053139E+02   0.12630010E+01   0.10450773E-02   0.66657479E+00   0.41155193E+00
  26.0000   0.78102279E-02  -0.69780113E+02   0.12834444E+01   0.10467572E-02   0.66656197E+00   0.41374025E+00
  27.0000   0.79956660E-02  -0.68486595E+02   0.13061496E+01   0.10502083E-02   0.66654739E+00   0.41525201E+00
  28.0000   0.81704214E-02  -0.67169513E+02   0.13299536E+01   0.10504901E-02   0.66653088E+00   0.41728705E+00
  29.0000   0.83588874E-02  -0.65823920E+02   0.13525724E+01   0.10514341E-02   0.66651243E+00   0.42073016E+00
  30.0000   0.85470728E-02  -0.64453733E+02   0.13866232E+01   0.10535763E-02   0.66649019E+00   0.42264074E+00
  31.0000   0.87259071E-02  -0.63054627E+02   0.14153618E+01   0.10582515E-02   0.66646571E+00   0.42381579E+00
  32.0000   0.89033399E-02  -0.61619651E+02   0.14488834E+01   0.10594829E-02   0.66643716E+00   0.42574194E+00
  33.0000   0.90967786E-02  -0.60150291E+02   0.14859031E+01   0.10666534E-02   0.66640401E+00   0.42803489E+00
  34.0000   0.92758862E-02  -0.58647403E+02   0.15222473E+01   0.10667999E-02   0.66636622E+00   0.43072798E+00
  35.0000   0.94542214E-02  -0.57105963E+02   0.15686567E+01   0.10709237E-02   0.66632066E+00   0.43207851E+00
  36.0000   0.96336023E-02  -0.55521197E+02   0.16080893E+01   0.10780726E-02   0.66626975E+00   0.43349986E+00
  37.0000   0.98152577E-02  -0.53891780E+02   0.16580808E+01   0.10828342E-02   0.66620785E+00   0.43459004E+00
  38.0000   0.99975696E-02  -0.52212030E+02   0.17029068E+01   0.10920321E-02   0.66613724E+00   0.43566354E+00
  39.0000   0.10178186E-01  -0.50479135E+02   0.17614311E+01   0.10974217E-02   0.66604966E+00   0.43714260E+00
  40.0000   0.10365273E-01  -0.48693072E+02   0.18183509E+01   0.11073173E-02   0.66594678E+00   0.43800998E+00
  41.0000   0.10545759E-01  -0.46840244E+02   0.18862760E+01   0.11120849E-02   0.66581895E+00   0.43951400E+00
  42.0000   0.10732724E-01  -0.44916886E+02   0.19631573E+01   0.11195364E-02   0.66566014E+00   0.44117554E+00
  43.0000   0.10906405E-01  -0.42926207E+02   0.20347541E+01   0.11311300E-02   0.66547001E+00   0.44064397E+00
  44.0000   0.11103180E-01  -0.40844409E+02   0.21302691E+01   0.11404349E-02   0.66521849E+00   0.44189433E+00
  45.0000   0.11296692E-01  -0.38671906E+02   0.22226792E+01   0.11545045E-02   0.66490461E+00   0.44219114E+00
  46.0000   0.11472558E-01  -0.36383742E+02   0.23472341E+01   0.11634979E-02   0.66447187E+00   0.44259743E+00
  47.0000   0.11671517E-01  -0.33973010E+02   0.24918842E+01   0.11732317E-02   0.66387989E+00   0.44368554E+00
  48.0000   0.11871450E-01  -0.31380000E+02   0.26928073E+01   0.11884293E-02   0.66299506E+00   0.44388817E+00
  49.0000   0.12082001E-01  -0.28523090E+02   0.30494776E+01   0.12028655E-02   0.66144301E+00   0.44485066E+00
  50.0000   0.12291521E-01  -0.25380010E+02   0.29883385E+01   0.12216048E-02   0.65981689E+00   0.44431813E+00
  51.0000   0.12475564E-01  -0.23039718E+02   0.17418901E+01   0.12345922E-02   0.66153869E+00   0.44423904E+00
  52.0000   0.12599374E-01  -0.21675536E+02   0.10873188E+01   0.12339625E-02   0.66294138E+00   0.44432842E+00
  53.0000   0.12712338E-01  -0.20728015E+02   0.83601966E+00   0.12323425E-02   0.66343427E+00   0.44427079E+00
  54.0000   0.12809798E-01  -0.19963112E+02   0.71070878E+00   0.12277703E-02   0.66359984E+00   0.44455402E+00
  55.0000   0.12905105E-01  -0.19296197E+02   0.62518942E+00   0.12233782E-02   0.66367482E+00   0.44396627E+00
  56.0000   0.13000589E-01  -0.18703774E+02   0.56500561E+00   0.12229509E-02   0.66368507E+00   0.44384616E+00
  57.0000   0.13081456E-01  -0.18162607E+02   0.51381428E+00   0.12121573E-02   0.66368936E+00   0.44394850E+00
  58.0000   0.13169923E-01  -0.17667875E+02   0.47428571E+00   0.12075482E-02   0.66366045E+00   0.44400229E+00
  59.0000   0.13240909E-01  -0.17212661E+02   0.43982071E+00   0.12026634E-02   0.66362711E+00   0.44392068E+00
  60.0000   0.13326124E-01  -0.16788612E+02   0.40903104E+00   0.11973246E-02   0.66359535E+00   0.44407322E+00
  61.0000   0.13397331E-01  -0.16394430E+02   0.38062608E+00   0.11881557E-02   0.66356946E+00   0.44458068E+00
  62.0000   0.13469244E-01  -0.16024131E+02   0.35774182E+00   0.11829050E-02   0.66351862E+00   0.44429407E+00
  63.0000   0.13543941E-01  -0.15677007E+02   0.33763586E+00   0.11757297E-02   0.66346209E+00   0.44469376E+00
  64.0000   0.13617006E-01  -0.15349897E+02   0.31781777E+00   0.11675380E-02   0.66342029E+00   0.44525935E+00
  65.0000   0.13670085E-01  -0.15041495E+02   0.30125541E+00   0.11605263E-02   0.66336196E+00   0.44474622E+00
  66.0000   0.13735118E-01  -0.14747666E+02   0.28490085E+00   0.11524484E-02   0.66331520E+00   0.44431591E+00
  67.0000   0.13800397E-01  -0.14469652E+02   0.27029994E+00   0.11483437E-02   0.66326325E+00   0.44446664E+00
  68.0000   0.13855703E-01  -0.14205393E+02   0.25730717E+00   0.11420920E-02   0.66320467E+00   0.44399915E+00
  69.0000   0.13918707E-01  -0.13955783E+02   0.24529040E+00   0.11333099E-02   0.66314599E+00   0.44474140E+00
  70.0000   0.13981892E-01  -0.13713309E+02   0.23369069E+00   0.11293165E-02   0.66309189E+00   0.44440311E+00
  71.0000   0.14034777E-01  -0.13486145E+02   0.22415641E+00   0.11197075E-02   0.66301929E+00   0.44446691E+00
  72.0000   0.14094742E-01  -0.13267946E+02   0.21355859E+00   0.11127782E-02   0.66297539E+00   0.44495315E+00
  73.0000   0.14147532E-01  -0.13057379E+02   0.20499735E+00   0.11068754E-02   0.66290603E+00   0.44452630E+00
  74.0000   0.14205737E-01  -0.12856629E+02   0.19620154E+00   0.11010498E-02   0.66285173E+00   0.44460251E+00
  75.0000   0.14246922E-01  -0.12665843E+02   0.18879869E+00   0.10927560E-02   0.66278121E+00   0.44451110E+00
  76.0000   0.14287863E-01  -0.12479622E+02   0.18066683E+00   0.10859197E-02   0.66273501E+00   0.44398331E+00
  77.0000   0.14345733E-01  -0.12300739E+02   0.17417149E+00   0.10783050E-02   0.66266157E+00   0.44452146E+00
  78.0000   0.14388985E-01  -0.12130280E+02   0.16813396E+00   0.10746288E-02   0.66258728E+00   0.44406143E+00
  79.0000   0.14445776E-01  -0.11965795E+02   0.16209977E+00   0.10688182E-02   0.66252084E+00   0.44392113E+00
  80.0000   0.14500339E-01  -0.11804534E+02   0.15610894E+00   0.10584657E-02   0.66246045E+00   0.44543398E+00
  81.0000   0.14518267E-01  -0.11653273E+02   0.15100790E+00   0.10514933E-02   0.66238760E+00   0.44417658E+00
  82.0000   0.14574527E-01  -0.11504583E+02   0.14598351E+00   0.10431142E-02   0.66231718E+00   0.44502299E+00
  83.0000   0.14614930E-01  -0.11360512E+02   0.14080578E+00   0.10384714E-02   0.66225908E+00   0.44439132E+00
  84.0000   0.14651579E-01  -0.11221536E+02   0.13661156E+00   0.10379237E-02   0.66217760E+00   0.44357460E+00
