 #written on  9Sep2024 at 03:26:22 
 #----------------------------------------------- MONTECARLO ---------------------------------------------------#
 # Temp      Magnetization     Energy_ave          C_M              Sus              U_E              U_M       #
 #--------------------------------------------------------------------------------------------------------------#
 410.0000   0.10057725E-01  -0.48045490E+03   0.18586106E+01   0.10070091E-03   0.66587269E+00   0.44117358E+00
 411.0000   0.10076039E-01  -0.47855727E+03   0.18691541E+01   0.10066719E-03   0.66585799E+00   0.44162705E+00
 412.0000   0.10090719E-01  -0.47672364E+03   0.18788844E+01   0.10096323E-03   0.66584355E+00   0.44069456E+00
 413.0000   0.10110228E-01  -0.47480658E+03   0.18798606E+01   0.10069448E-03   0.66583239E+00   0.44186679E+00
 414.0000   0.10135064E-01  -0.47294299E+03   0.18923912E+01   0.10121850E-03   0.66581627E+00   0.44110296E+00
 415.0000   0.10135658E-01  -0.47106507E+03   0.19037646E+01   0.10114407E-03   0.66580015E+00   0.44103830E+00
 416.0000   0.10162593E-01  -0.46910235E+03   0.19103104E+01   0.10116054E-03   0.66578556E+00   0.44173473E+00
 417.0000   0.10180889E-01  -0.46720697E+03   0.19169116E+01   0.10114044E-03   0.66577117E+00   0.44217494E+00
 418.0000   0.10190042E-01  -0.46531260E+03   0.19334826E+01   0.10117479E-03   0.66575178E+00   0.44127613E+00
 419.0000   0.10214073E-01  -0.46337900E+03   0.19348542E+01   0.10161481E-03   0.66573906E+00   0.44113179E+00
 420.0000   0.10229118E-01  -0.46142544E+03   0.19367338E+01   0.10131900E-03   0.66572580E+00   0.44201630E+00
 421.0000   0.10242242E-01  -0.45953884E+03   0.19478386E+01   0.10143103E-03   0.66570815E+00   0.44199588E+00
 422.0000   0.10255176E-01  -0.45756045E+03   0.19606914E+01   0.10137780E-03   0.66568878E+00   0.44235151E+00
 423.0000   0.10281532E-01  -0.45555548E+03   0.19677729E+01   0.10155292E-03   0.66567191E+00   0.44206629E+00
 424.0000   0.10298666E-01  -0.45360624E+03   0.19802742E+01   0.10163849E-03   0.66565230E+00   0.44192485E+00
 425.0000   0.10320400E-01  -0.45162700E+03   0.19734088E+01   0.10181603E-03   0.66564202E+00   0.44246725E+00
 426.0000   0.10321108E-01  -0.44959730E+03   0.20027643E+01   0.10180162E-03   0.66561274E+00   0.44224441E+00
 427.0000   0.10346871E-01  -0.44764908E+03   0.20013122E+01   0.10199626E-03   0.66559921E+00   0.44217063E+00
 428.0000   0.10378303E-01  -0.44564490E+03   0.20121687E+01   0.10229759E-03   0.66557883E+00   0.44222957E+00
 429.0000   0.10396558E-01  -0.44358404E+03   0.20210872E+01   0.10244465E-03   0.66555866E+00   0.44273098E+00
 430.0000   0.10405383E-01  -0.44156853E+03   0.20324743E+01   0.10215655E-03   0.66553697E+00   0.44304803E+00
 431.0000   0.10415529E-01  -0.43954245E+03   0.20437674E+01   0.10225671E-03   0.66551495E+00   0.44290630E+00
 432.0000   0.10436227E-01  -0.43742473E+03   0.20508196E+01   0.10265007E-03   0.66549442E+00   0.44231170E+00
 433.0000   0.10456571E-01  -0.43542426E+03   0.20609346E+01   0.10235239E-03   0.66547233E+00   0.44306468E+00
 434.0000   0.10477863E-01  -0.43335875E+03   0.20672530E+01   0.10274617E-03   0.66545148E+00   0.44285132E+00
 435.0000   0.10484606E-01  -0.43119404E+03   0.20807070E+01   0.10289622E-03   0.66542591E+00   0.44207427E+00
 436.0000   0.10499881E-01  -0.42915643E+03   0.20947984E+01   0.10264441E-03   0.66539962E+00   0.44289749E+00
 437.0000   0.10525851E-01  -0.42705698E+03   0.21019026E+01   0.10280941E-03   0.66537722E+00   0.44286696E+00
 438.0000   0.10545875E-01  -0.42494147E+03   0.21105417E+01   0.10295385E-03   0.66535292E+00   0.44300493E+00
 439.0000   0.10558246E-01  -0.42284465E+03   0.21292563E+01   0.10320248E-03   0.66532231E+00   0.44274103E+00
 440.0000   0.10579175E-01  -0.42072782E+03   0.21335905E+01   0.10301103E-03   0.66529953E+00   0.44378132E+00
 441.0000   0.10595621E-01  -0.41858601E+03   0.21457890E+01   0.10333115E-03   0.66527139E+00   0.44288033E+00
 442.0000   0.10619438E-01  -0.41639210E+03   0.21589994E+01   0.10354645E-03   0.66524148E+00   0.44260092E+00
 443.0000   0.10633178E-01  -0.41428081E+03   0.21731674E+01   0.10373897E-03   0.66521112E+00   0.44302377E+00
 444.0000   0.10638720E-01  -0.41212809E+03   0.21777266E+01   0.10339172E-03   0.66518608E+00   0.44294399E+00
 445.0000   0.10674853E-01  -0.40987097E+03   0.21957026E+01   0.10365793E-03   0.66515108E+00   0.44383544E+00
 446.0000   0.10683387E-01  -0.40772309E+03   0.22051870E+01   0.10368823E-03   0.66512144E+00   0.44308818E+00
 447.0000   0.10707825E-01  -0.40548846E+03   0.22231015E+01   0.10413619E-03   0.66508478E+00   0.44255174E+00
 448.0000   0.10724601E-01  -0.40323337E+03   0.22206965E+01   0.10384143E-03   0.66506172E+00   0.44395498E+00
 449.0000   0.10736832E-01  -0.40104042E+03   0.22338670E+01   0.10410766E-03   0.66502727E+00   0.44328285E+00
 450.0000   0.10762882E-01  -0.39877665E+03   0.22492485E+01   0.10443406E-03   0.66498946E+00   0.44336764E+00
 451.0000   0.10765261E-01  -0.39654087E+03   0.22659849E+01   0.10426892E-03   0.66495077E+00   0.44326744E+00
 452.0000   0.10791864E-01  -0.39422845E+03   0.22745548E+01   0.10413689E-03   0.66491623E+00   0.44411928E+00
 453.0000   0.10811188E-01  -0.39194803E+03   0.22880560E+01   0.10452831E-03   0.66487805E+00   0.44310179E+00
 454.0000   0.10829428E-01  -0.38966765E+03   0.23053683E+01   0.10466541E-03   0.66483511E+00   0.44345334E+00
 455.0000   0.10852181E-01  -0.38733342E+03   0.23088005E+01   0.10457909E-03   0.66480142E+00   0.44393080E+00
 456.0000   0.10860108E-01  -0.38502098E+03   0.23435432E+01   0.10477364E-03   0.66474292E+00   0.44357180E+00
 457.0000   0.10875057E-01  -0.38265482E+03   0.23348454E+01   0.10489491E-03   0.66471771E+00   0.44318501E+00
 458.0000   0.10906254E-01  -0.38032260E+03   0.23549272E+01   0.10511750E-03   0.66466840E+00   0.44388948E+00
 459.0000   0.10914133E-01  -0.37795987E+03   0.23747008E+01   0.10530843E-03   0.66461721E+00   0.44307447E+00
 460.0000   0.10942445E-01  -0.37558363E+03   0.23908209E+01   0.10543345E-03   0.66456847E+00   0.44340420E+00
 461.0000   0.10951240E-01  -0.37316055E+03   0.24014712E+01   0.10529032E-03   0.66452259E+00   0.44379015E+00
 462.0000   0.10976243E-01  -0.37078955E+03   0.24135358E+01   0.10560965E-03   0.66447443E+00   0.44353460E+00
 463.0000   0.10994482E-01  -0.36834819E+03   0.24131425E+01   0.10554005E-03   0.66443641E+00   0.44440726E+00
 464.0000   0.11004605E-01  -0.36598436E+03   0.24266666E+01   0.10573933E-03   0.66438479E+00   0.44341769E+00
 465.0000   0.11036405E-01  -0.36353369E+03   0.24455224E+01   0.10590830E-03   0.66432555E+00   0.44444850E+00
 466.0000   0.11051759E-01  -0.36109293E+03   0.24551861E+01   0.10581609E-03   0.66427440E+00   0.44440104E+00
 467.0000   0.11072619E-01  -0.35862553E+03   0.24694142E+01   0.10645198E-03   0.66421721E+00   0.44364948E+00
 468.0000   0.11088107E-01  -0.35612921E+03   0.24700865E+01   0.10627835E-03   0.66417016E+00   0.44395613E+00
 469.0000   0.11098050E-01  -0.35368529E+03   0.24830570E+01   0.10627668E-03   0.66411166E+00   0.44394102E+00
 470.0000   0.11122165E-01  -0.35115075E+03   0.24818418E+01   0.10639011E-03   0.66406462E+00   0.44394618E+00
 471.0000   0.11137782E-01  -0.34862262E+03   0.24857997E+01   0.10645898E-03   0.66401040E+00   0.44432255E+00
 472.0000   0.11161538E-01  -0.34608217E+03   0.24823518E+01   0.10687746E-03   0.66396303E+00   0.44413874E+00
 473.0000   0.11176145E-01  -0.34366783E+03   0.24797548E+01   0.10664156E-03   0.66391576E+00   0.44453218E+00
 474.0000   0.11187465E-01  -0.34127953E+03   0.24799081E+01   0.10691451E-03   0.66386339E+00   0.44349302E+00
 475.0000   0.11219150E-01  -0.33882040E+03   0.24663257E+01   0.10716043E-03   0.66382457E+00   0.44389190E+00
 476.0000   0.11241053E-01  -0.33634475E+03   0.24435218E+01   0.10704164E-03   0.66379643E+00   0.44503839E+00
 477.0000   0.11241552E-01  -0.33392040E+03   0.24289764E+01   0.10694413E-03   0.66375759E+00   0.44423693E+00
 478.0000   0.11272951E-01  -0.33146903E+03   0.23981561E+01   0.10718509E-03   0.66373708E+00   0.44529456E+00
 479.0000   0.11287753E-01  -0.32913458E+03   0.23717030E+01   0.10755752E-03   0.66371516E+00   0.44394008E+00
 480.0000   0.11295421E-01  -0.32670549E+03   0.23257666E+01   0.10770670E-03   0.66371443E+00   0.44375802E+00
 481.0000   0.11318648E-01  -0.32438365E+03   0.22985296E+01   0.10756732E-03   0.66369357E+00   0.44459588E+00
 482.0000   0.11335848E-01  -0.32214222E+03   0.22569639E+01   0.10787543E-03   0.66369169E+00   0.44392451E+00
 483.0000   0.11349483E-01  -0.31985665E+03   0.22025217E+01   0.10806878E-03   0.66370742E+00   0.44369011E+00
 484.0000   0.11378100E-01  -0.31765240E+03   0.21667525E+01   0.10816701E-03   0.66370191E+00   0.44407460E+00
 485.0000   0.11389407E-01  -0.31558508E+03   0.21152548E+01   0.10794037E-03   0.66372066E+00   0.44454759E+00
 486.0000   0.11404307E-01  -0.31347599E+03   0.20612562E+01   0.10812767E-03   0.66374357E+00   0.44438453E+00
 487.0000   0.11416017E-01  -0.31139063E+03   0.20074073E+01   0.10837295E-03   0.66376862E+00   0.44400142E+00
 488.0000   0.11434448E-01  -0.30945907E+03   0.19557032E+01   0.10862208E-03   0.66379469E+00   0.44333594E+00
 489.0000   0.11454587E-01  -0.30749734E+03   0.18971179E+01   0.10832986E-03   0.66383224E+00   0.44461387E+00
 490.0000   0.11466094E-01  -0.30562048E+03   0.18425817E+01   0.10811494E-03   0.66386797E+00   0.44490340E+00
 491.0000   0.11491395E-01  -0.30376980E+03   0.17933932E+01   0.10842203E-03   0.66389766E+00   0.44512170E+00
 492.0000   0.11501174E-01  -0.30203459E+03   0.17522670E+01   0.10846664E-03   0.66391822E+00   0.44465886E+00
 493.0000   0.11514289E-01  -0.30028446E+03   0.16981835E+01   0.10876069E-03   0.66396109E+00   0.44438703E+00
 494.0000   0.11521905E-01  -0.29863086E+03   0.16571104E+01   0.10859003E-03   0.66398525E+00   0.44480305E+00
 495.0000   0.11548292E-01  -0.29701827E+03   0.16071280E+01   0.10868881E-03   0.66402771E+00   0.44465595E+00
 496.0000   0.11549227E-01  -0.29539766E+03   0.15674156E+01   0.10892033E-03   0.66405495E+00   0.44360956E+00
 497.0000   0.11576820E-01  -0.29383333E+03   0.15216034E+01   0.10904336E-03   0.66409355E+00   0.44393084E+00
 498.0000   0.11581235E-01  -0.29231739E+03   0.14788102E+01   0.10871924E-03   0.66412994E+00   0.44427570E+00
 499.0000   0.11593021E-01  -0.29087139E+03   0.14463427E+01   0.10877724E-03   0.66415142E+00   0.44438693E+00
 500.0000   0.11602951E-01  -0.28949879E+03   0.14096014E+01   0.10879891E-03   0.66418197E+00   0.44429614E+00
 501.0000   0.11621017E-01  -0.28814556E+03   0.13813046E+01   0.10894950E-03   0.66419971E+00   0.44421907E+00
 502.0000   0.11638507E-01  -0.28674560E+03   0.13500301E+01   0.10891002E-03   0.66422241E+00   0.44444260E+00
 503.0000   0.11641183E-01  -0.28540649E+03   0.13099453E+01   0.10872607E-03   0.66426476E+00   0.44492738E+00
 504.0000   0.11662913E-01  -0.28409313E+03   0.12846728E+01   0.10928116E-03   0.66427933E+00   0.44385974E+00
 505.0000   0.11671890E-01  -0.28284333E+03   0.12602519E+01   0.10895900E-03   0.66429458E+00   0.44470930E+00
 506.0000   0.11683469E-01  -0.28157762E+03   0.12335540E+01   0.10899191E-03   0.66431536E+00   0.44474011E+00
 507.0000   0.11688284E-01  -0.28034163E+03   0.12112329E+01   0.10887819E-03   0.66432867E+00   0.44460989E+00
 508.0000   0.11704504E-01  -0.27917299E+03   0.11875785E+01   0.10912905E-03   0.66434631E+00   0.44406247E+00
 509.0000   0.11716647E-01  -0.27800041E+03   0.11611515E+01   0.10901900E-03   0.66437050E+00   0.44414223E+00
