 #written on  9Sep2024 at 03:26:22 
 #----------------- MONTECARLO -------------------#
 #        M                      P(M)             #
 #------------------------------------------------#
 #T=   410.0000
  -0.40000000E+01           0.00000000E+00
  -0.39900000E+01           0.00000000E+00
  -0.39800000E+01           0.00000000E+00
  -0.39700000E+01           0.00000000E+00
  -0.39600000E+01           0.00000000E+00
  -0.39500000E+01           0.00000000E+00
  -0.39400000E+01           0.00000000E+00
  -0.39300000E+01           0.00000000E+00
  -0.39200000E+01           0.00000000E+00
  -0.39100000E+01           0.00000000E+00
  -0.39000000E+01           0.00000000E+00
  -0.38900000E+01           0.00000000E+00
  -0.38800000E+01           0.00000000E+00
  -0.38700000E+01           0.00000000E+00
  -0.38600000E+01           0.00000000E+00
  -0.38500000E+01           0.00000000E+00
  -0.38400000E+01           0.00000000E+00
  -0.38300000E+01           0.00000000E+00
  -0.38200000E+01           0.00000000E+00
  -0.38100000E+01           0.00000000E+00
  -0.38000000E+01           0.00000000E+00
  -0.37900000E+01           0.00000000E+00
  -0.37800000E+01           0.00000000E+00
  -0.37700000E+01           0.00000000E+00
  -0.37600000E+01           0.00000000E+00
  -0.37500000E+01           0.00000000E+00
  -0.37400000E+01           0.00000000E+00
  -0.37300000E+01           0.00000000E+00
  -0.37200000E+01           0.00000000E+00
  -0.37100000E+01           0.00000000E+00
  -0.37000000E+01           0.00000000E+00
  -0.36900000E+01           0.00000000E+00
  -0.36800000E+01           0.00000000E+00
  -0.36700000E+01           0.00000000E+00
  -0.36600000E+01           0.00000000E+00
  -0.36500000E+01           0.00000000E+00
  -0.36400000E+01           0.00000000E+00
  -0.36300000E+01           0.00000000E+00
  -0.36200000E+01           0.00000000E+00
  -0.36100000E+01           0.00000000E+00
  -0.36000000E+01           0.00000000E+00
  -0.35900000E+01           0.00000000E+00
  -0.35800000E+01           0.00000000E+00
  -0.35700000E+01           0.00000000E+00
  -0.35600000E+01           0.00000000E+00
  -0.35500000E+01           0.00000000E+00
  -0.35400000E+01           0.00000000E+00
  -0.35300000E+01           0.00000000E+00
  -0.35200000E+01           0.00000000E+00
  -0.35100000E+01           0.00000000E+00
  -0.35000000E+01           0.00000000E+00
  -0.34900000E+01           0.00000000E+00
  -0.34800000E+01           0.00000000E+00
  -0.34700000E+01           0.00000000E+00
  -0.34600000E+01           0.00000000E+00
  -0.34500000E+01           0.00000000E+00
  -0.34400000E+01           0.00000000E+00
  -0.34300000E+01           0.00000000E+00
  -0.34200000E+01           0.00000000E+00
  -0.34100000E+01           0.00000000E+00
  -0.34000000E+01           0.00000000E+00
  -0.33900000E+01           0.00000000E+00
  -0.33800000E+01           0.00000000E+00
  -0.33700000E+01           0.00000000E+00
  -0.33600000E+01           0.00000000E+00
  -0.33500000E+01           0.00000000E+00
  -0.33400000E+01           0.00000000E+00
  -0.33300000E+01           0.00000000E+00
  -0.33200000E+01           0.00000000E+00
  -0.33100000E+01           0.00000000E+00
  -0.33000000E+01           0.00000000E+00
  -0.32900000E+01           0.00000000E+00
  -0.32800000E+01           0.00000000E+00
  -0.32700000E+01           0.00000000E+00
  -0.32600000E+01           0.00000000E+00
  -0.32500000E+01           0.00000000E+00
  -0.32400000E+01           0.00000000E+00
  -0.32300000E+01           0.00000000E+00
  -0.32200000E+01           0.00000000E+00
  -0.32100000E+01           0.00000000E+00
  -0.32000000E+01           0.00000000E+00
  -0.31900000E+01           0.00000000E+00
  -0.31800000E+01           0.00000000E+00
  -0.31700000E+01           0.00000000E+00
  -0.31600000E+01           0.00000000E+00
  -0.31500000E+01           0.00000000E+00
  -0.31400000E+01           0.00000000E+00
  -0.31300000E+01           0.00000000E+00
  -0.31200000E+01           0.00000000E+00
  -0.31100000E+01           0.00000000E+00
  -0.31000000E+01           0.00000000E+00
  -0.30900000E+01           0.00000000E+00
  -0.30800000E+01           0.00000000E+00
  -0.30700000E+01           0.00000000E+00
  -0.30600000E+01           0.00000000E+00
  -0.30500000E+01           0.00000000E+00
  -0.30400000E+01           0.00000000E+00
  -0.30300000E+01           0.00000000E+00
  -0.30200000E+01           0.00000000E+00
  -0.30100000E+01           0.00000000E+00
  -0.30000000E+01           0.00000000E+00
  -0.29900000E+01           0.00000000E+00
  -0.29800000E+01           0.00000000E+00
  -0.29700000E+01           0.00000000E+00
  -0.29600000E+01           0.00000000E+00
  -0.29500000E+01           0.00000000E+00
  -0.29400000E+01           0.00000000E+00
  -0.29300000E+01           0.00000000E+00
  -0.29200000E+01           0.00000000E+00
  -0.29100000E+01           0.00000000E+00
  -0.29000000E+01           0.00000000E+00
  -0.28900000E+01           0.00000000E+00
  -0.28800000E+01           0.00000000E+00
  -0.28700000E+01           0.00000000E+00
  -0.28600000E+01           0.00000000E+00
  -0.28500000E+01           0.00000000E+00
  -0.28400000E+01           0.00000000E+00
  -0.28300000E+01           0.00000000E+00
  -0.28200000E+01           0.00000000E+00
  -0.28100000E+01           0.00000000E+00
  -0.28000000E+01           0.00000000E+00
  -0.27900000E+01           0.00000000E+00
  -0.27800000E+01           0.00000000E+00
  -0.27700000E+01           0.00000000E+00
  -0.27600000E+01           0.00000000E+00
  -0.27500000E+01           0.00000000E+00
  -0.27400000E+01           0.00000000E+00
  -0.27300000E+01           0.00000000E+00
  -0.27200000E+01           0.00000000E+00
  -0.27100000E+01           0.00000000E+00
  -0.27000000E+01           0.00000000E+00
  -0.26900000E+01           0.00000000E+00
  -0.26800000E+01           0.00000000E+00
  -0.26700000E+01           0.00000000E+00
  -0.26600000E+01           0.00000000E+00
  -0.26500000E+01           0.00000000E+00
  -0.26400000E+01           0.00000000E+00
  -0.26300000E+01           0.00000000E+00
  -0.26200000E+01           0.00000000E+00
  -0.26100000E+01           0.00000000E+00
  -0.26000000E+01           0.00000000E+00
  -0.25900000E+01           0.00000000E+00
  -0.25800000E+01           0.00000000E+00
  -0.25700000E+01           0.00000000E+00
  -0.25600000E+01           0.00000000E+00
  -0.25500000E+01           0.00000000E+00
  -0.25400000E+01           0.00000000E+00
  -0.25300000E+01           0.00000000E+00
  -0.25200000E+01           0.00000000E+00
  -0.25100000E+01           0.00000000E+00
  -0.25000000E+01           0.00000000E+00
  -0.24900000E+01           0.00000000E+00
  -0.24800000E+01           0.00000000E+00
  -0.24700000E+01           0.00000000E+00
  -0.24600000E+01           0.00000000E+00
  -0.24500000E+01           0.00000000E+00
  -0.24400000E+01           0.00000000E+00
  -0.24300000E+01           0.00000000E+00
  -0.24200000E+01           0.00000000E+00
  -0.24100000E+01           0.00000000E+00
  -0.24000000E+01           0.00000000E+00
  -0.23900000E+01           0.00000000E+00
  -0.23800000E+01           0.00000000E+00
  -0.23700000E+01           0.00000000E+00
  -0.23600000E+01           0.00000000E+00
  -0.23500000E+01           0.00000000E+00
  -0.23400000E+01           0.00000000E+00
  -0.23300000E+01           0.00000000E+00
  -0.23200000E+01           0.00000000E+00
  -0.23100000E+01           0.00000000E+00
  -0.23000000E+01           0.00000000E+00
  -0.22900000E+01           0.00000000E+00
  -0.22800000E+01           0.00000000E+00
  -0.22700000E+01           0.00000000E+00
  -0.22600000E+01           0.00000000E+00
  -0.22500000E+01           0.00000000E+00
  -0.22400000E+01           0.00000000E+00
  -0.22300000E+01           0.00000000E+00
  -0.22200000E+01           0.00000000E+00
  -0.22100000E+01           0.00000000E+00
  -0.22000000E+01           0.00000000E+00
  -0.21900000E+01           0.00000000E+00
  -0.21800000E+01           0.00000000E+00
  -0.21700000E+01           0.00000000E+00
  -0.21600000E+01           0.00000000E+00
  -0.21500000E+01           0.00000000E+00
  -0.21400000E+01           0.00000000E+00
  -0.21300000E+01           0.00000000E+00
  -0.21200000E+01           0.00000000E+00
  -0.21100000E+01           0.00000000E+00
  -0.21000000E+01           0.00000000E+00
  -0.20900000E+01           0.00000000E+00
  -0.20800000E+01           0.00000000E+00
  -0.20700000E+01           0.00000000E+00
  -0.20600000E+01           0.00000000E+00
  -0.20500000E+01           0.00000000E+00
  -0.20400000E+01           0.00000000E+00
  -0.20300000E+01           0.00000000E+00
  -0.20200000E+01           0.00000000E+00
  -0.20100000E+01           0.00000000E+00
  -0.20000000E+01           0.00000000E+00
  -0.19900000E+01           0.00000000E+00
  -0.19800000E+01           0.00000000E+00
  -0.19700000E+01           0.00000000E+00
  -0.19600000E+01           0.00000000E+00
  -0.19500000E+01           0.00000000E+00
  -0.19400000E+01           0.00000000E+00
  -0.19300000E+01           0.00000000E+00
  -0.19200000E+01           0.00000000E+00
  -0.19100000E+01           0.00000000E+00
  -0.19000000E+01           0.00000000E+00
  -0.18900000E+01           0.00000000E+00
  -0.18800000E+01           0.00000000E+00
  -0.18700000E+01           0.00000000E+00
  -0.18600000E+01           0.00000000E+00
  -0.18500000E+01           0.00000000E+00
  -0.18400000E+01           0.00000000E+00
  -0.18300000E+01           0.00000000E+00
  -0.18200000E+01           0.00000000E+00
  -0.18100000E+01           0.00000000E+00
  -0.18000000E+01           0.00000000E+00
  -0.17900000E+01           0.00000000E+00
  -0.17800000E+01           0.00000000E+00
  -0.17700000E+01           0.00000000E+00
  -0.17600000E+01           0.00000000E+00
  -0.17500000E+01           0.00000000E+00
  -0.17400000E+01           0.00000000E+00
  -0.17300000E+01           0.00000000E+00
  -0.17200000E+01           0.00000000E+00
  -0.17100000E+01           0.00000000E+00
  -0.17000000E+01           0.00000000E+00
  -0.16900000E+01           0.00000000E+00
  -0.16800000E+01           0.00000000E+00
  -0.16700000E+01           0.00000000E+00
  -0.16600000E+01           0.00000000E+00
  -0.16500000E+01           0.00000000E+00
  -0.16400000E+01           0.00000000E+00
  -0.16300000E+01           0.00000000E+00
  -0.16200000E+01           0.00000000E+00
  -0.16100000E+01           0.00000000E+00
  -0.16000000E+01           0.00000000E+00
  -0.15900000E+01           0.00000000E+00
  -0.15800000E+01           0.00000000E+00
  -0.15700000E+01           0.00000000E+00
  -0.15600000E+01           0.00000000E+00
  -0.15500000E+01           0.00000000E+00
  -0.15400000E+01           0.00000000E+00
  -0.15300000E+01           0.00000000E+00
  -0.15200000E+01           0.00000000E+00
  -0.15100000E+01           0.00000000E+00
  -0.15000000E+01           0.00000000E+00
  -0.14900000E+01           0.00000000E+00
  -0.14800000E+01           0.00000000E+00
  -0.14700000E+01           0.00000000E+00
  -0.14600000E+01           0.00000000E+00
  -0.14500000E+01           0.00000000E+00
  -0.14400000E+01           0.00000000E+00
  -0.14300000E+01           0.00000000E+00
  -0.14200000E+01           0.00000000E+00
  -0.14100000E+01           0.00000000E+00
  -0.14000000E+01           0.00000000E+00
  -0.13900000E+01           0.00000000E+00
  -0.13800000E+01           0.00000000E+00
  -0.13700000E+01           0.00000000E+00
  -0.13600000E+01           0.00000000E+00
  -0.13500000E+01           0.00000000E+00
  -0.13400000E+01           0.00000000E+00
  -0.13300000E+01           0.00000000E+00
  -0.13200000E+01           0.00000000E+00
  -0.13100000E+01           0.00000000E+00
  -0.13000000E+01           0.00000000E+00
  -0.12900000E+01           0.00000000E+00
  -0.12800000E+01           0.00000000E+00
  -0.12700000E+01           0.00000000E+00
  -0.12600000E+01           0.00000000E+00
  -0.12500000E+01           0.00000000E+00
  -0.12400000E+01           0.00000000E+00
  -0.12300000E+01           0.00000000E+00
  -0.12200000E+01           0.00000000E+00
  -0.12100000E+01           0.00000000E+00
  -0.12000000E+01           0.00000000E+00
  -0.11900000E+01           0.00000000E+00
  -0.11800000E+01           0.00000000E+00
  -0.11700000E+01           0.00000000E+00
  -0.11600000E+01           0.00000000E+00
  -0.11500000E+01           0.00000000E+00
  -0.11400000E+01           0.00000000E+00
  -0.11300000E+01           0.00000000E+00
  -0.11200000E+01           0.00000000E+00
  -0.11100000E+01           0.00000000E+00
  -0.11000000E+01           0.00000000E+00
  -0.10900000E+01           0.00000000E+00
  -0.10800000E+01           0.00000000E+00
  -0.10700000E+01           0.00000000E+00
  -0.10600000E+01           0.00000000E+00
  -0.10500000E+01           0.00000000E+00
  -0.10400000E+01           0.00000000E+00
  -0.10300000E+01           0.00000000E+00
  -0.10200000E+01           0.00000000E+00
  -0.10100000E+01           0.00000000E+00
  -0.10000000E+01           0.00000000E+00
  -0.99000000E+00           0.00000000E+00
  -0.98000000E+00           0.00000000E+00
  -0.97000000E+00           0.00000000E+00
  -0.96000000E+00           0.00000000E+00
  -0.95000000E+00           0.00000000E+00
  -0.94000000E+00           0.00000000E+00
  -0.93000000E+00           0.00000000E+00
  -0.92000000E+00           0.00000000E+00
  -0.91000000E+00           0.00000000E+00
  -0.90000000E+00           0.00000000E+00
  -0.89000000E+00           0.00000000E+00
  -0.88000000E+00           0.00000000E+00
  -0.87000000E+00           0.00000000E+00
  -0.86000000E+00           0.00000000E+00
  -0.85000000E+00           0.00000000E+00
  -0.84000000E+00           0.00000000E+00
  -0.83000000E+00           0.00000000E+00
  -0.82000000E+00           0.00000000E+00
  -0.81000000E+00           0.00000000E+00
  -0.80000000E+00           0.00000000E+00
  -0.79000000E+00           0.00000000E+00
  -0.78000000E+00           0.00000000E+00
  -0.77000000E+00           0.00000000E+00
  -0.76000000E+00           0.00000000E+00
  -0.75000000E+00           0.00000000E+00
  -0.74000000E+00           0.00000000E+00
  -0.73000000E+00           0.00000000E+00
  -0.72000000E+00           0.00000000E+00
  -0.71000000E+00           0.00000000E+00
  -0.70000000E+00           0.00000000E+00
  -0.69000000E+00           0.00000000E+00
  -0.68000000E+00           0.00000000E+00
  -0.67000000E+00           0.00000000E+00
  -0.66000000E+00           0.00000000E+00
  -0.65000000E+00           0.00000000E+00
  -0.64000000E+00           0.00000000E+00
  -0.63000000E+00           0.00000000E+00
  -0.62000000E+00           0.00000000E+00
  -0.61000000E+00           0.00000000E+00
  -0.60000000E+00           0.00000000E+00
  -0.59000000E+00           0.00000000E+00
  -0.58000000E+00           0.00000000E+00
  -0.57000000E+00           0.00000000E+00
  -0.56000000E+00           0.00000000E+00
  -0.55000000E+00           0.00000000E+00
  -0.54000000E+00           0.00000000E+00
  -0.53000000E+00           0.00000000E+00
  -0.52000000E+00           0.00000000E+00
  -0.51000000E+00           0.00000000E+00
  -0.50000000E+00           0.00000000E+00
  -0.49000000E+00           0.00000000E+00
  -0.48000000E+00           0.00000000E+00
  -0.47000000E+00           0.00000000E+00
  -0.46000000E+00           0.00000000E+00
  -0.45000000E+00           0.00000000E+00
  -0.44000000E+00           0.00000000E+00
  -0.43000000E+00           0.00000000E+00
  -0.42000000E+00           0.00000000E+00
  -0.41000000E+00           0.00000000E+00
  -0.40000000E+00           0.00000000E+00
  -0.39000000E+00           0.00000000E+00
  -0.38000000E+00           0.00000000E+00
  -0.37000000E+00           0.00000000E+00
  -0.36000000E+00           0.00000000E+00
  -0.35000000E+00           0.00000000E+00
  -0.34000000E+00           0.00000000E+00
  -0.33000000E+00           0.00000000E+00
  -0.32000000E+00           0.00000000E+00
  -0.31000000E+00           0.00000000E+00
  -0.30000000E+00           0.00000000E+00
  -0.29000000E+00           0.00000000E+00
  -0.28000000E+00           0.00000000E+00
  -0.27000000E+00           0.00000000E+00
  -0.26000000E+00           0.00000000E+00
  -0.25000000E+00           0.00000000E+00
  -0.24000000E+00           0.00000000E+00
  -0.23000000E+00           0.00000000E+00
  -0.22000000E+00           0.00000000E+00
  -0.21000000E+00           0.00000000E+00
  -0.20000000E+00           0.00000000E+00
  -0.19000000E+00           0.00000000E+00
  -0.18000000E+00           0.00000000E+00
  -0.17000000E+00           0.00000000E+00
  -0.16000000E+00           0.00000000E+00
  -0.15000000E+00           0.00000000E+00
  -0.14000000E+00           0.00000000E+00
  -0.13000000E+00           0.00000000E+00
  -0.12000000E+00           0.00000000E+00
  -0.11000000E+00           0.00000000E+00
  -0.10000000E+00           0.00000000E+00
  -0.90000000E-01           0.00000000E+00
  -0.80000000E-01           0.00000000E+00
  -0.70000000E-01           0.00000000E+00
  -0.60000000E-01           0.00000000E+00
  -0.50000000E-01           0.00000000E+00
  -0.40000000E-01           0.00000000E+00
  -0.30000000E-01           0.00000000E+00
  -0.20000000E-01           0.00000000E+00
  -0.10000000E-01           0.00000000E+00
   0.00000000E+00           0.15167549E-04
   0.10000000E-01           0.37883598E-03
   0.20000000E-01           0.14453263E-02
   0.30000000E-01           0.30670194E-02
   0.40000000E-01           0.53107584E-02
   0.50000000E-01           0.82202822E-02
   0.60000000E-01           0.11738977E-01
   0.70000000E-01           0.15759788E-01
   0.80000000E-01           0.20170194E-01
   0.90000000E-01           0.25175132E-01
   0.10000000E+00           0.30731922E-01
   0.11000000E+00           0.36781305E-01
   0.12000000E+00           0.43199118E-01
   0.13000000E+00           0.50048148E-01
   0.14000000E+00           0.57004056E-01
   0.15000000E+00           0.64379189E-01
   0.16000000E+00           0.72579894E-01
   0.17000000E+00           0.80755203E-01
   0.18000000E+00           0.89138624E-01
   0.19000000E+00           0.98186067E-01
   0.20000000E+00           0.10703704E+00
   0.21000000E+00           0.11642293E+00
   0.22000000E+00           0.12580423E+00
   0.23000000E+00           0.13591217E+00
   0.24000000E+00           0.14582310E+00
   0.25000000E+00           0.15594497E+00
   0.26000000E+00           0.16629471E+00
   0.27000000E+00           0.17721799E+00
   0.28000000E+00           0.18751869E+00
   0.29000000E+00           0.19839559E+00
   0.30000000E+00           0.20901340E+00
   0.31000000E+00           0.22016878E+00
   0.32000000E+00           0.23098360E+00
   0.33000000E+00           0.24222663E+00
   0.34000000E+00           0.25380988E+00
   0.35000000E+00           0.26465397E+00
   0.36000000E+00           0.27580406E+00
   0.37000000E+00           0.28693369E+00
   0.38000000E+00           0.29853862E+00
   0.39000000E+00           0.31033563E+00
   0.40000000E+00           0.32134674E+00
   0.41000000E+00           0.33218536E+00
   0.42000000E+00           0.34411711E+00
   0.43000000E+00           0.35482716E+00
   0.44000000E+00           0.36566543E+00
   0.45000000E+00           0.37733845E+00
   0.46000000E+00           0.38817496E+00
   0.47000000E+00           0.39903651E+00
   0.48000000E+00           0.41032310E+00
   0.49000000E+00           0.42060106E+00
   0.50000000E+00           0.43134603E+00
   0.51000000E+00           0.44141869E+00
   0.52000000E+00           0.45222963E+00
   0.53000000E+00           0.46248148E+00
   0.54000000E+00           0.47253986E+00
   0.55000000E+00           0.48239471E+00
   0.56000000E+00           0.49271199E+00
   0.57000000E+00           0.50120882E+00
   0.58000000E+00           0.51143333E+00
   0.59000000E+00           0.52130035E+00
   0.60000000E+00           0.53006314E+00
   0.61000000E+00           0.53939541E+00
   0.62000000E+00           0.54829771E+00
   0.63000000E+00           0.55721270E+00
   0.64000000E+00           0.56508236E+00
   0.65000000E+00           0.57398536E+00
   0.66000000E+00           0.58177690E+00
   0.67000000E+00           0.58942875E+00
   0.68000000E+00           0.59677937E+00
   0.69000000E+00           0.60430935E+00
   0.70000000E+00           0.61222381E+00
   0.71000000E+00           0.61871023E+00
   0.72000000E+00           0.62517954E+00
   0.73000000E+00           0.63195467E+00
   0.74000000E+00           0.63852945E+00
   0.75000000E+00           0.64484603E+00
   0.76000000E+00           0.65079929E+00
   0.77000000E+00           0.65641129E+00
   0.78000000E+00           0.66157125E+00
   0.79000000E+00           0.66758959E+00
   0.80000000E+00           0.67230159E+00
   0.81000000E+00           0.67705855E+00
   0.82000000E+00           0.68113527E+00
   0.83000000E+00           0.68594462E+00
   0.84000000E+00           0.68978589E+00
   0.85000000E+00           0.69403034E+00
   0.86000000E+00           0.69817178E+00
   0.87000000E+00           0.70147813E+00
   0.88000000E+00           0.70433951E+00
   0.89000000E+00           0.70703139E+00
   0.90000000E+00           0.71055873E+00
   0.91000000E+00           0.71284938E+00
   0.92000000E+00           0.71494938E+00
   0.93000000E+00           0.71694850E+00
   0.94000000E+00           0.71941146E+00
   0.95000000E+00           0.72023845E+00
   0.96000000E+00           0.72130511E+00
   0.97000000E+00           0.72310529E+00
   0.98000000E+00           0.72396332E+00
   0.99000000E+00           0.72394374E+00
   0.10000000E+01           0.72487795E+00
   0.10100000E+01           0.72522804E+00
   0.10200000E+01           0.72574956E+00
   0.10300000E+01           0.72526808E+00
   0.10400000E+01           0.72486543E+00
   0.10500000E+01           0.72492557E+00
   0.10600000E+01           0.72333122E+00
   0.10700000E+01           0.72298113E+00
   0.10800000E+01           0.72221252E+00
   0.10900000E+01           0.71933369E+00
   0.11000000E+01           0.71960776E+00
   0.11100000E+01           0.71747866E+00
   0.11200000E+01           0.71526966E+00
   0.11300000E+01           0.71328889E+00
   0.11400000E+01           0.71127619E+00
   0.11500000E+01           0.70875414E+00
   0.11600000E+01           0.70611799E+00
   0.11700000E+01           0.70323139E+00
   0.11800000E+01           0.70024868E+00
   0.11900000E+01           0.69803545E+00
   0.12000000E+01           0.69405450E+00
   0.12100000E+01           0.69070423E+00
   0.12200000E+01           0.68755520E+00
   0.12300000E+01           0.68363422E+00
   0.12400000E+01           0.67945626E+00
   0.12500000E+01           0.67545185E+00
   0.12600000E+01           0.67203598E+00
   0.12700000E+01           0.66722416E+00
   0.12800000E+01           0.66335538E+00
   0.12900000E+01           0.65801340E+00
   0.13000000E+01           0.65402892E+00
   0.13100000E+01           0.64865220E+00
   0.13200000E+01           0.64381993E+00
   0.13300000E+01           0.63926772E+00
   0.13400000E+01           0.63462787E+00
   0.13500000E+01           0.62875326E+00
   0.13600000E+01           0.62346843E+00
   0.13700000E+01           0.61851235E+00
   0.13800000E+01           0.61222205E+00
   0.13900000E+01           0.60702787E+00
   0.14000000E+01           0.60173034E+00
   0.14100000E+01           0.59596966E+00
   0.14200000E+01           0.59054691E+00
   0.14300000E+01           0.58506843E+00
   0.14400000E+01           0.57843668E+00
   0.14500000E+01           0.57242434E+00
   0.14600000E+01           0.56614286E+00
   0.14700000E+01           0.56016049E+00
   0.14800000E+01           0.55371146E+00
   0.14900000E+01           0.54800988E+00
   0.15000000E+01           0.54142169E+00
   0.15100000E+01           0.53614515E+00
   0.15200000E+01           0.52964656E+00
   0.15300000E+01           0.52250423E+00
   0.15400000E+01           0.51527425E+00
   0.15500000E+01           0.51010053E+00
   0.15600000E+01           0.50359206E+00
   0.15700000E+01           0.49727513E+00
   0.15800000E+01           0.48994233E+00
   0.15900000E+01           0.48313104E+00
   0.16000000E+01           0.47720688E+00
   0.16100000E+01           0.47074356E+00
   0.16200000E+01           0.46400159E+00
   0.16300000E+01           0.45733651E+00
   0.16400000E+01           0.45091464E+00
   0.16500000E+01           0.44379912E+00
   0.16600000E+01           0.43775520E+00
   0.16700000E+01           0.43098818E+00
   0.16800000E+01           0.42399065E+00
   0.16900000E+01           0.41762469E+00
   0.17000000E+01           0.41124550E+00
   0.17100000E+01           0.40456543E+00
   0.17200000E+01           0.39782310E+00
   0.17300000E+01           0.39194832E+00
   0.17400000E+01           0.38526720E+00
   0.17500000E+01           0.37923845E+00
   0.17600000E+01           0.37209224E+00
   0.17700000E+01           0.36587019E+00
   0.17800000E+01           0.35952187E+00
   0.17900000E+01           0.35303774E+00
   0.18000000E+01           0.34698201E+00
   0.18100000E+01           0.34011887E+00
   0.18200000E+01           0.33430212E+00
   0.18300000E+01           0.32789859E+00
   0.18400000E+01           0.32168959E+00
   0.18500000E+01           0.31584162E+00
   0.18600000E+01           0.30983845E+00
   0.18700000E+01           0.30391252E+00
   0.18800000E+01           0.29774709E+00
   0.18900000E+01           0.29161570E+00
   0.19000000E+01           0.28603228E+00
   0.19100000E+01           0.28010071E+00
   0.19200000E+01           0.27417937E+00
   0.19300000E+01           0.26815644E+00
   0.19400000E+01           0.26298325E+00
   0.19500000E+01           0.25702875E+00
   0.19600000E+01           0.25179859E+00
   0.19700000E+01           0.24636296E+00
   0.19800000E+01           0.24033704E+00
   0.19900000E+01           0.23561199E+00
   0.20000000E+01           0.23054321E+00
   0.20100000E+01           0.22457231E+00
   0.20200000E+01           0.21960317E+00
   0.20300000E+01           0.21430635E+00
   0.20400000E+01           0.20929771E+00
   0.20500000E+01           0.20471058E+00
   0.20600000E+01           0.19964533E+00
   0.20700000E+01           0.19501270E+00
   0.20800000E+01           0.19047601E+00
   0.20900000E+01           0.18582875E+00
   0.21000000E+01           0.18114321E+00
   0.21100000E+01           0.17649436E+00
   0.21200000E+01           0.17225996E+00
   0.21300000E+01           0.16788836E+00
   0.21400000E+01           0.16385309E+00
   0.21500000E+01           0.15978554E+00
   0.21600000E+01           0.15565485E+00
   0.21700000E+01           0.15134991E+00
   0.21800000E+01           0.14761817E+00
   0.21900000E+01           0.14384021E+00
   0.22000000E+01           0.14026896E+00
   0.22100000E+01           0.13619947E+00
   0.22200000E+01           0.13272716E+00
   0.22300000E+01           0.12917937E+00
   0.22400000E+01           0.12548519E+00
   0.22500000E+01           0.12211570E+00
   0.22600000E+01           0.11909101E+00
   0.22700000E+01           0.11593474E+00
   0.22800000E+01           0.11255556E+00
   0.22900000E+01           0.10962205E+00
   0.23000000E+01           0.10659295E+00
   0.23100000E+01           0.10333580E+00
   0.23200000E+01           0.10020265E+00
   0.23300000E+01           0.97752557E-01
   0.23400000E+01           0.94808995E-01
   0.23500000E+01           0.91957143E-01
   0.23600000E+01           0.89449735E-01
   0.23700000E+01           0.86885009E-01
   0.23800000E+01           0.84390300E-01
   0.23900000E+01           0.81778131E-01
   0.24000000E+01           0.79325044E-01
   0.24100000E+01           0.76902646E-01
   0.24200000E+01           0.74539859E-01
   0.24300000E+01           0.72256437E-01
   0.24400000E+01           0.69976543E-01
   0.24500000E+01           0.68132275E-01
   0.24600000E+01           0.65823810E-01
   0.24700000E+01           0.63727866E-01
   0.24800000E+01           0.61876190E-01
   0.24900000E+01           0.59728042E-01
   0.25000000E+01           0.57804409E-01
   0.25100000E+01           0.56071781E-01
   0.25200000E+01           0.54245150E-01
   0.25300000E+01           0.52371429E-01
   0.25400000E+01           0.50914109E-01
   0.25500000E+01           0.49237743E-01
   0.25600000E+01           0.47493298E-01
   0.25700000E+01           0.45869489E-01
   0.25800000E+01           0.44373545E-01
   0.25900000E+01           0.43029277E-01
   0.26000000E+01           0.41421164E-01
   0.26100000E+01           0.40107760E-01
   0.26200000E+01           0.38572134E-01
   0.26300000E+01           0.37422928E-01
   0.26400000E+01           0.36064727E-01
   0.26500000E+01           0.34732804E-01
   0.26600000E+01           0.33586949E-01
   0.26700000E+01           0.32360847E-01
   0.26800000E+01           0.31248325E-01
   0.26900000E+01           0.30333510E-01
   0.27000000E+01           0.29055556E-01
   0.27100000E+01           0.28055732E-01
   0.27200000E+01           0.26882716E-01
   0.27300000E+01           0.25995414E-01
   0.27400000E+01           0.25132981E-01
   0.27500000E+01           0.24114638E-01
   0.27600000E+01           0.23158377E-01
   0.27700000E+01           0.22348677E-01
   0.27800000E+01           0.21524339E-01
   0.27900000E+01           0.20614815E-01
   0.28000000E+01           0.19838448E-01
   0.28100000E+01           0.19051852E-01
   0.28200000E+01           0.18439330E-01
   0.28300000E+01           0.17659259E-01
   0.28400000E+01           0.16986596E-01
   0.28500000E+01           0.16288889E-01
   0.28600000E+01           0.15594885E-01
   0.28700000E+01           0.14985362E-01
   0.28800000E+01           0.14420811E-01
   0.28900000E+01           0.13838801E-01
   0.29000000E+01           0.13210053E-01
   0.29100000E+01           0.12792063E-01
   0.29200000E+01           0.12160670E-01
   0.29300000E+01           0.11678307E-01
   0.29400000E+01           0.11234568E-01
   0.29500000E+01           0.10667549E-01
   0.29600000E+01           0.10276014E-01
   0.29700000E+01           0.98670194E-02
   0.29800000E+01           0.93835979E-02
   0.29900000E+01           0.89843034E-02
   0.30000000E+01           0.86442681E-02
   0.30100000E+01           0.81970018E-02
   0.30200000E+01           0.79234568E-02
   0.30300000E+01           0.75271605E-02
   0.30400000E+01           0.71571429E-02
   0.30500000E+01           0.68730159E-02
   0.30600000E+01           0.66012346E-02
   0.30700000E+01           0.63176367E-02
   0.30800000E+01           0.59871252E-02
   0.30900000E+01           0.57223986E-02
   0.31000000E+01           0.54070547E-02
   0.31100000E+01           0.51569665E-02
   0.31200000E+01           0.49564374E-02
   0.31300000E+01           0.46832451E-02
   0.31400000E+01           0.44382716E-02
   0.31500000E+01           0.42412698E-02
   0.31600000E+01           0.40181658E-02
   0.31700000E+01           0.38476190E-02
   0.31800000E+01           0.36492063E-02
   0.31900000E+01           0.34659612E-02
   0.32000000E+01           0.33116402E-02
   0.32100000E+01           0.31255732E-02
   0.32200000E+01           0.29724868E-02
   0.32300000E+01           0.28305115E-02
   0.32400000E+01           0.26259259E-02
   0.32500000E+01           0.25356261E-02
   0.32600000E+01           0.24015873E-02
   0.32700000E+01           0.22786596E-02
   0.32800000E+01           0.21151675E-02
   0.32900000E+01           0.20268078E-02
   0.33000000E+01           0.19042328E-02
   0.33100000E+01           0.17977072E-02
   0.33200000E+01           0.16913580E-02
   0.33300000E+01           0.16130511E-02
   0.33400000E+01           0.15135802E-02
   0.33500000E+01           0.14313933E-02
   0.33600000E+01           0.13844797E-02
   0.33700000E+01           0.12767196E-02
   0.33800000E+01           0.12238095E-02
   0.33900000E+01           0.11164021E-02
   0.34000000E+01           0.10500882E-02
   0.34100000E+01           0.10148148E-02
   0.34200000E+01           0.92557319E-03
   0.34300000E+01           0.88906526E-03
   0.34400000E+01           0.83492063E-03
   0.34500000E+01           0.78624339E-03
   0.34600000E+01           0.72962963E-03
   0.34700000E+01           0.68571429E-03
   0.34800000E+01           0.65149912E-03
   0.34900000E+01           0.60670194E-03
   0.35000000E+01           0.54250441E-03
   0.35100000E+01           0.51234568E-03
   0.35200000E+01           0.48571429E-03
   0.35300000E+01           0.44955908E-03
   0.35400000E+01           0.42010582E-03
   0.35500000E+01           0.38324515E-03
   0.35600000E+01           0.36419753E-03
   0.35700000E+01           0.33156966E-03
   0.35800000E+01           0.29876543E-03
   0.35900000E+01           0.27495591E-03
   0.36000000E+01           0.25996473E-03
   0.36100000E+01           0.24814815E-03
   0.36200000E+01           0.22204586E-03
   0.36300000E+01           0.20493827E-03
   0.36400000E+01           0.18924162E-03
   0.36500000E+01           0.17266314E-03
   0.36600000E+01           0.16296296E-03
   0.36700000E+01           0.14567901E-03
   0.36800000E+01           0.12310406E-03
   0.36900000E+01           0.12310406E-03
   0.37000000E+01           0.10335097E-03
   0.37100000E+01           0.10370370E-03
   0.37200000E+01           0.86772487E-04
   0.37300000E+01           0.76543210E-04
   0.37400000E+01           0.77248677E-04
   0.37500000E+01           0.58906526E-04
   0.37600000E+01           0.61728395E-04
   0.37700000E+01           0.51851852E-04
   0.37800000E+01           0.48677249E-04
   0.37900000E+01           0.37566138E-04
   0.38000000E+01           0.35626102E-04
   0.38100000E+01           0.28747795E-04
   0.38200000E+01           0.24867725E-04
   0.38300000E+01           0.22222222E-04
   0.38400000E+01           0.20811287E-04
   0.38500000E+01           0.15520282E-04
   0.38600000E+01           0.12522046E-04
   0.38700000E+01           0.11640212E-04
   0.38800000E+01           0.12345679E-04
   0.38900000E+01           0.77601411E-05
   0.39000000E+01           0.45855379E-05
   0.39100000E+01           0.49382716E-05
   0.39200000E+01           0.42328042E-05
   0.39300000E+01           0.22927690E-05
   0.39400000E+01           0.17636684E-05
   0.39500000E+01           0.10582011E-05
   0.39600000E+01           0.35273369E-06
   0.39700000E+01           0.35273369E-06
   0.39800000E+01           0.52910053E-06
   0.39900000E+01           0.17636684E-06
   0.40000000E+01           0.00000000E+00
 #T=   411.0000
  -0.40000000E+01           0.00000000E+00
  -0.39900000E+01           0.00000000E+00
  -0.39800000E+01           0.00000000E+00
  -0.39700000E+01           0.00000000E+00
  -0.39600000E+01           0.00000000E+00
  -0.39500000E+01           0.00000000E+00
  -0.39400000E+01           0.00000000E+00
  -0.39300000E+01           0.00000000E+00
  -0.39200000E+01           0.00000000E+00
  -0.39100000E+01           0.00000000E+00
  -0.39000000E+01           0.00000000E+00
  -0.38900000E+01           0.00000000E+00
  -0.38800000E+01           0.00000000E+00
  -0.38700000E+01           0.00000000E+00
  -0.38600000E+01           0.00000000E+00
  -0.38500000E+01           0.00000000E+00
  -0.38400000E+01           0.00000000E+00
  -0.38300000E+01           0.00000000E+00
  -0.38200000E+01           0.00000000E+00
  -0.38100000E+01           0.00000000E+00
  -0.38000000E+01           0.00000000E+00
  -0.37900000E+01           0.00000000E+00
  -0.37800000E+01           0.00000000E+00
  -0.37700000E+01           0.00000000E+00
  -0.37600000E+01           0.00000000E+00
  -0.37500000E+01           0.00000000E+00
  -0.37400000E+01           0.00000000E+00
  -0.37300000E+01           0.00000000E+00
  -0.37200000E+01           0.00000000E+00
  -0.37100000E+01           0.00000000E+00
  -0.37000000E+01           0.00000000E+00
  -0.36900000E+01           0.00000000E+00
  -0.36800000E+01           0.00000000E+00
  -0.36700000E+01           0.00000000E+00
  -0.36600000E+01           0.00000000E+00
  -0.36500000E+01           0.00000000E+00
  -0.36400000E+01           0.00000000E+00
  -0.36300000E+01           0.00000000E+00
  -0.36200000E+01           0.00000000E+00
  -0.36100000E+01           0.00000000E+00
  -0.36000000E+01           0.00000000E+00
  -0.35900000E+01           0.00000000E+00
  -0.35800000E+01           0.00000000E+00
  -0.35700000E+01           0.00000000E+00
  -0.35600000E+01           0.00000000E+00
  -0.35500000E+01           0.00000000E+00
  -0.35400000E+01           0.00000000E+00
  -0.35300000E+01           0.00000000E+00
  -0.35200000E+01           0.00000000E+00
  -0.35100000E+01           0.00000000E+00
  -0.35000000E+01           0.00000000E+00
  -0.34900000E+01           0.00000000E+00
  -0.34800000E+01           0.00000000E+00
  -0.34700000E+01           0.00000000E+00
  -0.34600000E+01           0.00000000E+00
  -0.34500000E+01           0.00000000E+00
  -0.34400000E+01           0.00000000E+00
  -0.34300000E+01           0.00000000E+00
  -0.34200000E+01           0.00000000E+00
  -0.34100000E+01           0.00000000E+00
  -0.34000000E+01           0.00000000E+00
  -0.33900000E+01           0.00000000E+00
  -0.33800000E+01           0.00000000E+00
  -0.33700000E+01           0.00000000E+00
  -0.33600000E+01           0.00000000E+00
  -0.33500000E+01           0.00000000E+00
  -0.33400000E+01           0.00000000E+00
  -0.33300000E+01           0.00000000E+00
  -0.33200000E+01           0.00000000E+00
  -0.33100000E+01           0.00000000E+00
  -0.33000000E+01           0.00000000E+00
  -0.32900000E+01           0.00000000E+00
  -0.32800000E+01           0.00000000E+00
  -0.32700000E+01           0.00000000E+00
  -0.32600000E+01           0.00000000E+00
  -0.32500000E+01           0.00000000E+00
  -0.32400000E+01           0.00000000E+00
  -0.32300000E+01           0.00000000E+00
  -0.32200000E+01           0.00000000E+00
  -0.32100000E+01           0.00000000E+00
  -0.32000000E+01           0.00000000E+00
  -0.31900000E+01           0.00000000E+00
  -0.31800000E+01           0.00000000E+00
  -0.31700000E+01           0.00000000E+00
  -0.31600000E+01           0.00000000E+00
  -0.31500000E+01           0.00000000E+00
  -0.31400000E+01           0.00000000E+00
  -0.31300000E+01           0.00000000E+00
  -0.31200000E+01           0.00000000E+00
  -0.31100000E+01           0.00000000E+00
  -0.31000000E+01           0.00000000E+00
  -0.30900000E+01           0.00000000E+00
  -0.30800000E+01           0.00000000E+00
  -0.30700000E+01           0.00000000E+00
  -0.30600000E+01           0.00000000E+00
  -0.30500000E+01           0.00000000E+00
  -0.30400000E+01           0.00000000E+00
  -0.30300000E+01           0.00000000E+00
  -0.30200000E+01           0.00000000E+00
  -0.30100000E+01           0.00000000E+00
  -0.30000000E+01           0.00000000E+00
  -0.29900000E+01           0.00000000E+00
  -0.29800000E+01           0.00000000E+00
  -0.29700000E+01           0.00000000E+00
  -0.29600000E+01           0.00000000E+00
  -0.29500000E+01           0.00000000E+00
  -0.29400000E+01           0.00000000E+00
  -0.29300000E+01           0.00000000E+00
  -0.29200000E+01           0.00000000E+00
  -0.29100000E+01           0.00000000E+00
  -0.29000000E+01           0.00000000E+00
  -0.28900000E+01           0.00000000E+00
  -0.28800000E+01           0.00000000E+00
  -0.28700000E+01           0.00000000E+00
  -0.28600000E+01           0.00000000E+00
  -0.28500000E+01           0.00000000E+00
  -0.28400000E+01           0.00000000E+00
  -0.28300000E+01           0.00000000E+00
  -0.28200000E+01           0.00000000E+00
  -0.28100000E+01           0.00000000E+00
  -0.28000000E+01           0.00000000E+00
  -0.27900000E+01           0.00000000E+00
  -0.27800000E+01           0.00000000E+00
  -0.27700000E+01           0.00000000E+00
  -0.27600000E+01           0.00000000E+00
  -0.27500000E+01           0.00000000E+00
  -0.27400000E+01           0.00000000E+00
  -0.27300000E+01           0.00000000E+00
  -0.27200000E+01           0.00000000E+00
  -0.27100000E+01           0.00000000E+00
  -0.27000000E+01           0.00000000E+00
  -0.26900000E+01           0.00000000E+00
  -0.26800000E+01           0.00000000E+00
  -0.26700000E+01           0.00000000E+00
  -0.26600000E+01           0.00000000E+00
  -0.26500000E+01           0.00000000E+00
  -0.26400000E+01           0.00000000E+00
  -0.26300000E+01           0.00000000E+00
  -0.26200000E+01           0.00000000E+00
  -0.26100000E+01           0.00000000E+00
  -0.26000000E+01           0.00000000E+00
  -0.25900000E+01           0.00000000E+00
  -0.25800000E+01           0.00000000E+00
  -0.25700000E+01           0.00000000E+00
  -0.25600000E+01           0.00000000E+00
  -0.25500000E+01           0.00000000E+00
  -0.25400000E+01           0.00000000E+00
  -0.25300000E+01           0.00000000E+00
  -0.25200000E+01           0.00000000E+00
  -0.25100000E+01           0.00000000E+00
  -0.25000000E+01           0.00000000E+00
  -0.24900000E+01           0.00000000E+00
  -0.24800000E+01           0.00000000E+00
  -0.24700000E+01           0.00000000E+00
  -0.24600000E+01           0.00000000E+00
  -0.24500000E+01           0.00000000E+00
  -0.24400000E+01           0.00000000E+00
  -0.24300000E+01           0.00000000E+00
  -0.24200000E+01           0.00000000E+00
  -0.24100000E+01           0.00000000E+00
  -0.24000000E+01           0.00000000E+00
  -0.23900000E+01           0.00000000E+00
  -0.23800000E+01           0.00000000E+00
  -0.23700000E+01           0.00000000E+00
  -0.23600000E+01           0.00000000E+00
  -0.23500000E+01           0.00000000E+00
  -0.23400000E+01           0.00000000E+00
  -0.23300000E+01           0.00000000E+00
  -0.23200000E+01           0.00000000E+00
  -0.23100000E+01           0.00000000E+00
  -0.23000000E+01           0.00000000E+00
  -0.22900000E+01           0.00000000E+00
  -0.22800000E+01           0.00000000E+00
  -0.22700000E+01           0.00000000E+00
  -0.22600000E+01           0.00000000E+00
  -0.22500000E+01           0.00000000E+00
  -0.22400000E+01           0.00000000E+00
  -0.22300000E+01           0.00000000E+00
  -0.22200000E+01           0.00000000E+00
  -0.22100000E+01           0.00000000E+00
  -0.22000000E+01           0.00000000E+00
  -0.21900000E+01           0.00000000E+00
  -0.21800000E+01           0.00000000E+00
  -0.21700000E+01           0.00000000E+00
  -0.21600000E+01           0.00000000E+00
  -0.21500000E+01           0.00000000E+00
  -0.21400000E+01           0.00000000E+00
  -0.21300000E+01           0.00000000E+00
  -0.21200000E+01           0.00000000E+00
  -0.21100000E+01           0.00000000E+00
  -0.21000000E+01           0.00000000E+00
  -0.20900000E+01           0.00000000E+00
  -0.20800000E+01           0.00000000E+00
  -0.20700000E+01           0.00000000E+00
  -0.20600000E+01           0.00000000E+00
  -0.20500000E+01           0.00000000E+00
  -0.20400000E+01           0.00000000E+00
  -0.20300000E+01           0.00000000E+00
  -0.20200000E+01           0.00000000E+00
  -0.20100000E+01           0.00000000E+00
  -0.20000000E+01           0.00000000E+00
  -0.19900000E+01           0.00000000E+00
  -0.19800000E+01           0.00000000E+00
  -0.19700000E+01           0.00000000E+00
  -0.19600000E+01           0.00000000E+00
  -0.19500000E+01           0.00000000E+00
  -0.19400000E+01           0.00000000E+00
  -0.19300000E+01           0.00000000E+00
  -0.19200000E+01           0.00000000E+00
  -0.19100000E+01           0.00000000E+00
  -0.19000000E+01           0.00000000E+00
  -0.18900000E+01           0.00000000E+00
  -0.18800000E+01           0.00000000E+00
  -0.18700000E+01           0.00000000E+00
  -0.18600000E+01           0.00000000E+00
  -0.18500000E+01           0.00000000E+00
  -0.18400000E+01           0.00000000E+00
  -0.18300000E+01           0.00000000E+00
  -0.18200000E+01           0.00000000E+00
  -0.18100000E+01           0.00000000E+00
  -0.18000000E+01           0.00000000E+00
  -0.17900000E+01           0.00000000E+00
  -0.17800000E+01           0.00000000E+00
  -0.17700000E+01           0.00000000E+00
  -0.17600000E+01           0.00000000E+00
  -0.17500000E+01           0.00000000E+00
  -0.17400000E+01           0.00000000E+00
  -0.17300000E+01           0.00000000E+00
  -0.17200000E+01           0.00000000E+00
  -0.17100000E+01           0.00000000E+00
  -0.17000000E+01           0.00000000E+00
  -0.16900000E+01           0.00000000E+00
  -0.16800000E+01           0.00000000E+00
  -0.16700000E+01           0.00000000E+00
  -0.16600000E+01           0.00000000E+00
  -0.16500000E+01           0.00000000E+00
  -0.16400000E+01           0.00000000E+00
  -0.16300000E+01           0.00000000E+00
  -0.16200000E+01           0.00000000E+00
  -0.16100000E+01           0.00000000E+00
  -0.16000000E+01           0.00000000E+00
  -0.15900000E+01           0.00000000E+00
  -0.15800000E+01           0.00000000E+00
  -0.15700000E+01           0.00000000E+00
  -0.15600000E+01           0.00000000E+00
  -0.15500000E+01           0.00000000E+00
  -0.15400000E+01           0.00000000E+00
  -0.15300000E+01           0.00000000E+00
  -0.15200000E+01           0.00000000E+00
  -0.15100000E+01           0.00000000E+00
  -0.15000000E+01           0.00000000E+00
  -0.14900000E+01           0.00000000E+00
  -0.14800000E+01           0.00000000E+00
  -0.14700000E+01           0.00000000E+00
  -0.14600000E+01           0.00000000E+00
  -0.14500000E+01           0.00000000E+00
  -0.14400000E+01           0.00000000E+00
  -0.14300000E+01           0.00000000E+00
  -0.14200000E+01           0.00000000E+00
  -0.14100000E+01           0.00000000E+00
  -0.14000000E+01           0.00000000E+00
  -0.13900000E+01           0.00000000E+00
  -0.13800000E+01           0.00000000E+00
  -0.13700000E+01           0.00000000E+00
  -0.13600000E+01           0.00000000E+00
  -0.13500000E+01           0.00000000E+00
  -0.13400000E+01           0.00000000E+00
  -0.13300000E+01           0.00000000E+00
  -0.13200000E+01           0.00000000E+00
  -0.13100000E+01           0.00000000E+00
  -0.13000000E+01           0.00000000E+00
  -0.12900000E+01           0.00000000E+00
  -0.12800000E+01           0.00000000E+00
  -0.12700000E+01           0.00000000E+00
  -0.12600000E+01           0.00000000E+00
  -0.12500000E+01           0.00000000E+00
  -0.12400000E+01           0.00000000E+00
  -0.12300000E+01           0.00000000E+00
  -0.12200000E+01           0.00000000E+00
  -0.12100000E+01           0.00000000E+00
  -0.12000000E+01           0.00000000E+00
  -0.11900000E+01           0.00000000E+00
  -0.11800000E+01           0.00000000E+00
  -0.11700000E+01           0.00000000E+00
  -0.11600000E+01           0.00000000E+00
  -0.11500000E+01           0.00000000E+00
  -0.11400000E+01           0.00000000E+00
  -0.11300000E+01           0.00000000E+00
  -0.11200000E+01           0.00000000E+00
  -0.11100000E+01           0.00000000E+00
  -0.11000000E+01           0.00000000E+00
  -0.10900000E+01           0.00000000E+00
  -0.10800000E+01           0.00000000E+00
  -0.10700000E+01           0.00000000E+00
  -0.10600000E+01           0.00000000E+00
  -0.10500000E+01           0.00000000E+00
  -0.10400000E+01           0.00000000E+00
  -0.10300000E+01           0.00000000E+00
  -0.10200000E+01           0.00000000E+00
  -0.10100000E+01           0.00000000E+00
  -0.10000000E+01           0.00000000E+00
  -0.99000000E+00           0.00000000E+00
  -0.98000000E+00           0.00000000E+00
  -0.97000000E+00           0.00000000E+00
  -0.96000000E+00           0.00000000E+00
  -0.95000000E+00           0.00000000E+00
  -0.94000000E+00           0.00000000E+00
  -0.93000000E+00           0.00000000E+00
  -0.92000000E+00           0.00000000E+00
  -0.91000000E+00           0.00000000E+00
  -0.90000000E+00           0.00000000E+00
  -0.89000000E+00           0.00000000E+00
  -0.88000000E+00           0.00000000E+00
  -0.87000000E+00           0.00000000E+00
  -0.86000000E+00           0.00000000E+00
  -0.85000000E+00           0.00000000E+00
  -0.84000000E+00           0.00000000E+00
  -0.83000000E+00           0.00000000E+00
  -0.82000000E+00           0.00000000E+00
  -0.81000000E+00           0.00000000E+00
  -0.80000000E+00           0.00000000E+00
  -0.79000000E+00           0.00000000E+00
  -0.78000000E+00           0.00000000E+00
  -0.77000000E+00           0.00000000E+00
  -0.76000000E+00           0.00000000E+00
  -0.75000000E+00           0.00000000E+00
  -0.74000000E+00           0.00000000E+00
  -0.73000000E+00           0.00000000E+00
  -0.72000000E+00           0.00000000E+00
  -0.71000000E+00           0.00000000E+00
  -0.70000000E+00           0.00000000E+00
  -0.69000000E+00           0.00000000E+00
  -0.68000000E+00           0.00000000E+00
  -0.67000000E+00           0.00000000E+00
  -0.66000000E+00           0.00000000E+00
  -0.65000000E+00           0.00000000E+00
  -0.64000000E+00           0.00000000E+00
  -0.63000000E+00           0.00000000E+00
  -0.62000000E+00           0.00000000E+00
  -0.61000000E+00           0.00000000E+00
  -0.60000000E+00           0.00000000E+00
  -0.59000000E+00           0.00000000E+00
  -0.58000000E+00           0.00000000E+00
  -0.57000000E+00           0.00000000E+00
  -0.56000000E+00           0.00000000E+00
  -0.55000000E+00           0.00000000E+00
  -0.54000000E+00           0.00000000E+00
  -0.53000000E+00           0.00000000E+00
  -0.52000000E+00           0.00000000E+00
  -0.51000000E+00           0.00000000E+00
  -0.50000000E+00           0.00000000E+00
  -0.49000000E+00           0.00000000E+00
  -0.48000000E+00           0.00000000E+00
  -0.47000000E+00           0.00000000E+00
  -0.46000000E+00           0.00000000E+00
  -0.45000000E+00           0.00000000E+00
  -0.44000000E+00           0.00000000E+00
  -0.43000000E+00           0.00000000E+00
  -0.42000000E+00           0.00000000E+00
  -0.41000000E+00           0.00000000E+00
  -0.40000000E+00           0.00000000E+00
  -0.39000000E+00           0.00000000E+00
  -0.38000000E+00           0.00000000E+00
  -0.37000000E+00           0.00000000E+00
  -0.36000000E+00           0.00000000E+00
  -0.35000000E+00           0.00000000E+00
  -0.34000000E+00           0.00000000E+00
  -0.33000000E+00           0.00000000E+00
  -0.32000000E+00           0.00000000E+00
  -0.31000000E+00           0.00000000E+00
  -0.30000000E+00           0.00000000E+00
  -0.29000000E+00           0.00000000E+00
  -0.28000000E+00           0.00000000E+00
  -0.27000000E+00           0.00000000E+00
  -0.26000000E+00           0.00000000E+00
  -0.25000000E+00           0.00000000E+00
  -0.24000000E+00           0.00000000E+00
  -0.23000000E+00           0.00000000E+00
  -0.22000000E+00           0.00000000E+00
  -0.21000000E+00           0.00000000E+00
  -0.20000000E+00           0.00000000E+00
  -0.19000000E+00           0.00000000E+00
  -0.18000000E+00           0.00000000E+00
  -0.17000000E+00           0.00000000E+00
  -0.16000000E+00           0.00000000E+00
  -0.15000000E+00           0.00000000E+00
  -0.14000000E+00           0.00000000E+00
  -0.13000000E+00           0.00000000E+00
  -0.12000000E+00           0.00000000E+00
  -0.11000000E+00           0.00000000E+00
  -0.10000000E+00           0.00000000E+00
  -0.90000000E-01           0.00000000E+00
  -0.80000000E-01           0.00000000E+00
  -0.70000000E-01           0.00000000E+00
  -0.60000000E-01           0.00000000E+00
  -0.50000000E-01           0.00000000E+00
  -0.40000000E-01           0.00000000E+00
  -0.30000000E-01           0.00000000E+00
  -0.20000000E-01           0.00000000E+00
  -0.10000000E-01           0.00000000E+00
   0.00000000E+00           0.16402116E-04
   0.10000000E-01           0.38359788E-03
   0.20000000E-01           0.13795414E-02
   0.30000000E-01           0.30308642E-02
   0.40000000E-01           0.53142857E-02
   0.50000000E-01           0.81906526E-02
   0.60000000E-01           0.11528748E-01
   0.70000000E-01           0.15468430E-01
   0.80000000E-01           0.20137390E-01
   0.90000000E-01           0.24973545E-01
   0.10000000E+00           0.30606173E-01
   0.11000000E+00           0.36494180E-01
   0.12000000E+00           0.42688536E-01
   0.13000000E+00           0.49369312E-01
   0.14000000E+00           0.56693651E-01
   0.15000000E+00           0.64078836E-01
   0.16000000E+00           0.71916931E-01
   0.17000000E+00           0.80241623E-01
   0.18000000E+00           0.88873721E-01
   0.19000000E+00           0.97394709E-01
   0.20000000E+00           0.10633580E+00
   0.21000000E+00           0.11590829E+00
   0.22000000E+00           0.12537160E+00
   0.23000000E+00           0.13488836E+00
   0.24000000E+00           0.14540564E+00
   0.25000000E+00           0.15498730E+00
   0.26000000E+00           0.16528325E+00
   0.27000000E+00           0.17562981E+00
   0.28000000E+00           0.18627354E+00
   0.29000000E+00           0.19689171E+00
   0.30000000E+00           0.20805009E+00
   0.31000000E+00           0.21878554E+00
   0.32000000E+00           0.22962063E+00
   0.33000000E+00           0.24094198E+00
   0.34000000E+00           0.25214021E+00
   0.35000000E+00           0.26313721E+00
   0.36000000E+00           0.27451323E+00
   0.37000000E+00           0.28580970E+00
   0.38000000E+00           0.29734885E+00
   0.39000000E+00           0.30845432E+00
   0.40000000E+00           0.31929277E+00
   0.41000000E+00           0.33078624E+00
   0.42000000E+00           0.34219101E+00
   0.43000000E+00           0.35320988E+00
   0.44000000E+00           0.36432928E+00
   0.45000000E+00           0.37566843E+00
   0.46000000E+00           0.38597196E+00
   0.47000000E+00           0.39738483E+00
   0.48000000E+00           0.40790494E+00
   0.49000000E+00           0.41808219E+00
   0.50000000E+00           0.42924303E+00
   0.51000000E+00           0.43952487E+00
   0.52000000E+00           0.44981358E+00
   0.53000000E+00           0.46040758E+00
   0.54000000E+00           0.47013810E+00
   0.55000000E+00           0.48055908E+00
   0.56000000E+00           0.49026490E+00
   0.57000000E+00           0.49961111E+00
   0.58000000E+00           0.50943951E+00
   0.59000000E+00           0.51972875E+00
   0.60000000E+00           0.52815362E+00
   0.61000000E+00           0.53670882E+00
   0.62000000E+00           0.54561905E+00
   0.63000000E+00           0.55461340E+00
   0.64000000E+00           0.56209594E+00
   0.65000000E+00           0.57122646E+00
   0.66000000E+00           0.57907407E+00
   0.67000000E+00           0.58641746E+00
   0.68000000E+00           0.59433986E+00
   0.69000000E+00           0.60221587E+00
   0.70000000E+00           0.60929559E+00
   0.71000000E+00           0.61667725E+00
   0.72000000E+00           0.62339700E+00
   0.73000000E+00           0.63040106E+00
   0.74000000E+00           0.63636649E+00
   0.75000000E+00           0.64285820E+00
   0.76000000E+00           0.64865873E+00
   0.77000000E+00           0.65438466E+00
   0.78000000E+00           0.65974780E+00
   0.79000000E+00           0.66543175E+00
   0.80000000E+00           0.67081464E+00
   0.81000000E+00           0.67516437E+00
   0.82000000E+00           0.68017795E+00
   0.83000000E+00           0.68436737E+00
   0.84000000E+00           0.68851217E+00
   0.85000000E+00           0.69233721E+00
   0.86000000E+00           0.69569877E+00
   0.87000000E+00           0.69917372E+00
   0.88000000E+00           0.70293139E+00
   0.89000000E+00           0.70573933E+00
   0.90000000E+00           0.70863228E+00
   0.91000000E+00           0.71072169E+00
   0.92000000E+00           0.71303157E+00
   0.93000000E+00           0.71559083E+00
   0.94000000E+00           0.71730035E+00
   0.95000000E+00           0.71920635E+00
   0.96000000E+00           0.72023051E+00
   0.97000000E+00           0.72194321E+00
   0.98000000E+00           0.72269506E+00
   0.99000000E+00           0.72304533E+00
   0.10000000E+01           0.72355291E+00
   0.10100000E+01           0.72404109E+00
   0.10200000E+01           0.72408748E+00
   0.10300000E+01           0.72477425E+00
   0.10400000E+01           0.72405961E+00
   0.10500000E+01           0.72269400E+00
   0.10600000E+01           0.72220106E+00
   0.10700000E+01           0.72213598E+00
   0.10800000E+01           0.72126949E+00
   0.10900000E+01           0.71958589E+00
   0.11000000E+01           0.71794233E+00
   0.11100000E+01           0.71670035E+00
   0.11200000E+01           0.71379612E+00
   0.11300000E+01           0.71226737E+00
   0.11400000E+01           0.71065097E+00
   0.11500000E+01           0.70796561E+00
   0.11600000E+01           0.70510423E+00
   0.11700000E+01           0.70287954E+00
   0.11800000E+01           0.70058289E+00
   0.11900000E+01           0.69720335E+00
   0.12000000E+01           0.69366208E+00
   0.12100000E+01           0.69017266E+00
   0.12200000E+01           0.68687266E+00
   0.12300000E+01           0.68377690E+00
   0.12400000E+01           0.67965362E+00
   0.12500000E+01           0.67546120E+00
   0.12600000E+01           0.67206455E+00
   0.12700000E+01           0.66679824E+00
   0.12800000E+01           0.66343051E+00
   0.12900000E+01           0.65876561E+00
   0.13000000E+01           0.65397478E+00
   0.13100000E+01           0.64881164E+00
   0.13200000E+01           0.64457813E+00
   0.13300000E+01           0.63911464E+00
   0.13400000E+01           0.63421746E+00
   0.13500000E+01           0.62983563E+00
   0.13600000E+01           0.62393245E+00
   0.13700000E+01           0.61917231E+00
   0.13800000E+01           0.61374021E+00
   0.13900000E+01           0.60794938E+00
   0.14000000E+01           0.60253968E+00
   0.14100000E+01           0.59736067E+00
   0.14200000E+01           0.59113704E+00
   0.14300000E+01           0.58511358E+00
   0.14400000E+01           0.57943210E+00
   0.14500000E+01           0.57337989E+00
   0.14600000E+01           0.56741869E+00
   0.14700000E+01           0.56129647E+00
   0.14800000E+01           0.55451146E+00
   0.14900000E+01           0.54912240E+00
   0.15000000E+01           0.54279153E+00
   0.15100000E+01           0.53584691E+00
   0.15200000E+01           0.52970000E+00
   0.15300000E+01           0.52402328E+00
   0.15400000E+01           0.51736508E+00
   0.15500000E+01           0.51035767E+00
   0.15600000E+01           0.50418713E+00
   0.15700000E+01           0.49763968E+00
   0.15800000E+01           0.49104762E+00
   0.15900000E+01           0.48524850E+00
   0.16000000E+01           0.47846049E+00
   0.16100000E+01           0.47205132E+00
   0.16200000E+01           0.46531358E+00
   0.16300000E+01           0.45860053E+00
   0.16400000E+01           0.45179559E+00
   0.16500000E+01           0.44540194E+00
   0.16600000E+01           0.43863263E+00
   0.16700000E+01           0.43267407E+00
   0.16800000E+01           0.42643386E+00
   0.16900000E+01           0.41938131E+00
   0.17000000E+01           0.41312981E+00
   0.17100000E+01           0.40638642E+00
   0.17200000E+01           0.40005044E+00
   0.17300000E+01           0.39353333E+00
   0.17400000E+01           0.38667143E+00
   0.17500000E+01           0.38012451E+00
   0.17600000E+01           0.37438642E+00
   0.17700000E+01           0.36733104E+00
   0.17800000E+01           0.36110670E+00
   0.17900000E+01           0.35523792E+00
   0.18000000E+01           0.34892293E+00
   0.18100000E+01           0.34192892E+00
   0.18200000E+01           0.33588995E+00
   0.18300000E+01           0.32944480E+00
   0.18400000E+01           0.32349753E+00
   0.18500000E+01           0.31744480E+00
   0.18600000E+01           0.31149171E+00
   0.18700000E+01           0.30534056E+00
   0.18800000E+01           0.29912945E+00
   0.18900000E+01           0.29337302E+00
   0.19000000E+01           0.28745291E+00
   0.19100000E+01           0.28137143E+00
   0.19200000E+01           0.27605344E+00
   0.19300000E+01           0.27010317E+00
   0.19400000E+01           0.26463192E+00
   0.19500000E+01           0.25859912E+00
   0.19600000E+01           0.25317672E+00
   0.19700000E+01           0.24730335E+00
   0.19800000E+01           0.24253845E+00
   0.19900000E+01           0.23665097E+00
   0.20000000E+01           0.23183298E+00
   0.20100000E+01           0.22633228E+00
   0.20200000E+01           0.22073686E+00
   0.20300000E+01           0.21617125E+00
   0.20400000E+01           0.21084762E+00
   0.20500000E+01           0.20622328E+00
   0.20600000E+01           0.20120988E+00
   0.20700000E+01           0.19647972E+00
   0.20800000E+01           0.19175203E+00
   0.20900000E+01           0.18739912E+00
   0.21000000E+01           0.18275185E+00
   0.21100000E+01           0.17824497E+00
   0.21200000E+01           0.17372804E+00
   0.21300000E+01           0.16938466E+00
   0.21400000E+01           0.16483051E+00
   0.21500000E+01           0.16075661E+00
   0.21600000E+01           0.15666790E+00
   0.21700000E+01           0.15258413E+00
   0.21800000E+01           0.14854303E+00
   0.21900000E+01           0.14487725E+00
   0.22000000E+01           0.14117354E+00
   0.22100000E+01           0.13750370E+00
   0.22200000E+01           0.13368501E+00
   0.22300000E+01           0.13034744E+00
   0.22400000E+01           0.12657778E+00
   0.22500000E+01           0.12325503E+00
   0.22600000E+01           0.12006878E+00
   0.22700000E+01           0.11696790E+00
   0.22800000E+01           0.11389541E+00
   0.22900000E+01           0.11042963E+00
   0.23000000E+01           0.10729012E+00
   0.23100000E+01           0.10429259E+00
   0.23200000E+01           0.10157460E+00
   0.23300000E+01           0.98459436E-01
   0.23400000E+01           0.95827690E-01
   0.23500000E+01           0.92907937E-01
   0.23600000E+01           0.90163316E-01
   0.23700000E+01           0.87793827E-01
   0.23800000E+01           0.84994004E-01
   0.23900000E+01           0.82437213E-01
   0.24000000E+01           0.80009171E-01
   0.24100000E+01           0.77848677E-01
   0.24200000E+01           0.75442504E-01
   0.24300000E+01           0.73094356E-01
   0.24400000E+01           0.70788713E-01
   0.24500000E+01           0.68857672E-01
   0.24600000E+01           0.66567901E-01
   0.24700000E+01           0.64651852E-01
   0.24800000E+01           0.62356261E-01
   0.24900000E+01           0.60625573E-01
   0.25000000E+01           0.58561905E-01
   0.25100000E+01           0.56817108E-01
   0.25200000E+01           0.55029453E-01
   0.25300000E+01           0.53310758E-01
   0.25400000E+01           0.51386772E-01
   0.25500000E+01           0.49722399E-01
   0.25600000E+01           0.48035273E-01
   0.25700000E+01           0.46552381E-01
   0.25800000E+01           0.44906702E-01
   0.25900000E+01           0.43386596E-01
   0.26000000E+01           0.41999118E-01
   0.26100000E+01           0.40553968E-01
   0.26200000E+01           0.39125397E-01
   0.26300000E+01           0.37720811E-01
   0.26400000E+01           0.36376896E-01
   0.26500000E+01           0.35397178E-01
   0.26600000E+01           0.34117108E-01
   0.26700000E+01           0.32839153E-01
   0.26800000E+01           0.31755556E-01
   0.26900000E+01           0.30572663E-01
   0.27000000E+01           0.29412875E-01
   0.27100000E+01           0.28356790E-01
   0.27200000E+01           0.27375309E-01
   0.27300000E+01           0.26463668E-01
   0.27400000E+01           0.25376543E-01
   0.27500000E+01           0.24423457E-01
   0.27600000E+01           0.23550088E-01
   0.27700000E+01           0.22707584E-01
   0.27800000E+01           0.21798942E-01
   0.27900000E+01           0.20949559E-01
   0.28000000E+01           0.20270723E-01
   0.28100000E+01           0.19330335E-01
   0.28200000E+01           0.18595414E-01
   0.28300000E+01           0.17939330E-01
   0.28400000E+01           0.17259965E-01
   0.28500000E+01           0.16512522E-01
   0.28600000E+01           0.15985362E-01
   0.28700000E+01           0.15339859E-01
   0.28800000E+01           0.14701764E-01
   0.28900000E+01           0.14087478E-01
   0.29000000E+01           0.13505644E-01
   0.29100000E+01           0.13015168E-01
   0.29200000E+01           0.12437213E-01
   0.29300000E+01           0.11945326E-01
   0.29400000E+01           0.11429453E-01
   0.29500000E+01           0.10861728E-01
   0.29600000E+01           0.10523633E-01
   0.29700000E+01           0.10008995E-01
   0.29800000E+01           0.95844797E-02
   0.29900000E+01           0.91708995E-02
   0.30000000E+01           0.87527337E-02
   0.30100000E+01           0.83483245E-02
   0.30200000E+01           0.79730159E-02
   0.30300000E+01           0.77349206E-02
   0.30400000E+01           0.72816578E-02
   0.30500000E+01           0.69989418E-02
   0.30600000E+01           0.66753086E-02
   0.30700000E+01           0.63772487E-02
   0.30800000E+01           0.61174603E-02
   0.30900000E+01           0.58118166E-02
   0.31000000E+01           0.55807760E-02
   0.31100000E+01           0.52754850E-02
   0.31200000E+01           0.50675485E-02
   0.31300000E+01           0.47873016E-02
   0.31400000E+01           0.45606702E-02
   0.31500000E+01           0.42895944E-02
   0.31600000E+01           0.40783069E-02
   0.31700000E+01           0.39097002E-02
   0.31800000E+01           0.37761905E-02
   0.31900000E+01           0.35701940E-02
   0.32000000E+01           0.33982363E-02
   0.32100000E+01           0.31987654E-02
   0.32200000E+01           0.30149912E-02
   0.32300000E+01           0.28493827E-02
   0.32400000E+01           0.27407407E-02
   0.32500000E+01           0.25760141E-02
   0.32600000E+01           0.24262787E-02
   0.32700000E+01           0.23315697E-02
   0.32800000E+01           0.21932981E-02
   0.32900000E+01           0.20774250E-02
   0.33000000E+01           0.19820106E-02
   0.33100000E+01           0.18573192E-02
   0.33200000E+01           0.17310406E-02
   0.33300000E+01           0.16402116E-02
   0.33400000E+01           0.15659612E-02
   0.33500000E+01           0.14767196E-02
   0.33600000E+01           0.13962963E-02
   0.33700000E+01           0.13229277E-02
   0.33800000E+01           0.12398589E-02
   0.33900000E+01           0.11668430E-02
   0.34000000E+01           0.10712522E-02
   0.34100000E+01           0.10354497E-02
   0.34200000E+01           0.96613757E-03
   0.34300000E+01           0.92645503E-03
   0.34400000E+01           0.85167549E-03
   0.34500000E+01           0.80440917E-03
   0.34600000E+01           0.75396825E-03
   0.34700000E+01           0.68218695E-03
   0.34800000E+01           0.66754850E-03
   0.34900000E+01           0.59594356E-03
   0.35000000E+01           0.57089947E-03
   0.35100000E+01           0.52857143E-03
   0.35200000E+01           0.48694885E-03
   0.35300000E+01           0.44109347E-03
   0.35400000E+01           0.42698413E-03
   0.35500000E+01           0.39082892E-03
   0.35600000E+01           0.36860670E-03
   0.35700000E+01           0.34744268E-03
   0.35800000E+01           0.33015873E-03
   0.35900000E+01           0.30017637E-03
   0.36000000E+01           0.26613757E-03
   0.36100000E+01           0.24726631E-03
   0.36200000E+01           0.22239859E-03
   0.36300000E+01           0.21446208E-03
   0.36400000E+01           0.19470899E-03
   0.36500000E+01           0.17195767E-03
   0.36600000E+01           0.15696649E-03
   0.36700000E+01           0.14391534E-03
   0.36800000E+01           0.13086420E-03
   0.36900000E+01           0.12469136E-03
   0.37000000E+01           0.10652557E-03
   0.37100000E+01           0.10229277E-03
   0.37200000E+01           0.86067019E-04
   0.37300000E+01           0.86067019E-04
   0.37400000E+01           0.71781305E-04
   0.37500000E+01           0.66843034E-04
   0.37600000E+01           0.60846561E-04
   0.37700000E+01           0.50264550E-04
   0.37800000E+01           0.44620811E-04
   0.37900000E+01           0.42151675E-04
   0.38000000E+01           0.38800705E-04
   0.38100000E+01           0.32627866E-04
   0.38200000E+01           0.28924162E-04
   0.38300000E+01           0.24162257E-04
   0.38400000E+01           0.19223986E-04
   0.38500000E+01           0.15696649E-04
   0.38600000E+01           0.12698413E-04
   0.38700000E+01           0.13051146E-04
   0.38800000E+01           0.86419753E-05
   0.38900000E+01           0.81128748E-05
   0.39000000E+01           0.70546737E-05
   0.39100000E+01           0.47619048E-05
   0.39200000E+01           0.42328042E-05
   0.39300000E+01           0.31746032E-05
   0.39400000E+01           0.17636684E-05
   0.39500000E+01           0.15873016E-05
   0.39600000E+01           0.17636684E-06
   0.39700000E+01           0.10582011E-05
   0.39800000E+01           0.17636684E-06
   0.39900000E+01           0.00000000E+00
   0.40000000E+01           0.00000000E+00
 #T=   412.0000
  -0.40000000E+01           0.00000000E+00
  -0.39900000E+01           0.00000000E+00
  -0.39800000E+01           0.00000000E+00
  -0.39700000E+01           0.00000000E+00
  -0.39600000E+01           0.00000000E+00
  -0.39500000E+01           0.00000000E+00
  -0.39400000E+01           0.00000000E+00
  -0.39300000E+01           0.00000000E+00
  -0.39200000E+01           0.00000000E+00
  -0.39100000E+01           0.00000000E+00
  -0.39000000E+01           0.00000000E+00
  -0.38900000E+01           0.00000000E+00
  -0.38800000E+01           0.00000000E+00
  -0.38700000E+01           0.00000000E+00
  -0.38600000E+01           0.00000000E+00
  -0.38500000E+01           0.00000000E+00
  -0.38400000E+01           0.00000000E+00
  -0.38300000E+01           0.00000000E+00
  -0.38200000E+01           0.00000000E+00
  -0.38100000E+01           0.00000000E+00
  -0.38000000E+01           0.00000000E+00
  -0.37900000E+01           0.00000000E+00
  -0.37800000E+01           0.00000000E+00
  -0.37700000E+01           0.00000000E+00
  -0.37600000E+01           0.00000000E+00
  -0.37500000E+01           0.00000000E+00
  -0.37400000E+01           0.00000000E+00
  -0.37300000E+01           0.00000000E+00
  -0.37200000E+01           0.00000000E+00
  -0.37100000E+01           0.00000000E+00
  -0.37000000E+01           0.00000000E+00
  -0.36900000E+01           0.00000000E+00
  -0.36800000E+01           0.00000000E+00
  -0.36700000E+01           0.00000000E+00
  -0.36600000E+01           0.00000000E+00
  -0.36500000E+01           0.00000000E+00
  -0.36400000E+01           0.00000000E+00
  -0.36300000E+01           0.00000000E+00
  -0.36200000E+01           0.00000000E+00
  -0.36100000E+01           0.00000000E+00
  -0.36000000E+01           0.00000000E+00
  -0.35900000E+01           0.00000000E+00
  -0.35800000E+01           0.00000000E+00
  -0.35700000E+01           0.00000000E+00
  -0.35600000E+01           0.00000000E+00
  -0.35500000E+01           0.00000000E+00
  -0.35400000E+01           0.00000000E+00
  -0.35300000E+01           0.00000000E+00
  -0.35200000E+01           0.00000000E+00
  -0.35100000E+01           0.00000000E+00
  -0.35000000E+01           0.00000000E+00
  -0.34900000E+01           0.00000000E+00
  -0.34800000E+01           0.00000000E+00
  -0.34700000E+01           0.00000000E+00
  -0.34600000E+01           0.00000000E+00
  -0.34500000E+01           0.00000000E+00
  -0.34400000E+01           0.00000000E+00
  -0.34300000E+01           0.00000000E+00
  -0.34200000E+01           0.00000000E+00
  -0.34100000E+01           0.00000000E+00
  -0.34000000E+01           0.00000000E+00
  -0.33900000E+01           0.00000000E+00
  -0.33800000E+01           0.00000000E+00
  -0.33700000E+01           0.00000000E+00
  -0.33600000E+01           0.00000000E+00
  -0.33500000E+01           0.00000000E+00
  -0.33400000E+01           0.00000000E+00
  -0.33300000E+01           0.00000000E+00
  -0.33200000E+01           0.00000000E+00
  -0.33100000E+01           0.00000000E+00
  -0.33000000E+01           0.00000000E+00
  -0.32900000E+01           0.00000000E+00
  -0.32800000E+01           0.00000000E+00
  -0.32700000E+01           0.00000000E+00
  -0.32600000E+01           0.00000000E+00
  -0.32500000E+01           0.00000000E+00
  -0.32400000E+01           0.00000000E+00
  -0.32300000E+01           0.00000000E+00
  -0.32200000E+01           0.00000000E+00
  -0.32100000E+01           0.00000000E+00
  -0.32000000E+01           0.00000000E+00
  -0.31900000E+01           0.00000000E+00
  -0.31800000E+01           0.00000000E+00
  -0.31700000E+01           0.00000000E+00
  -0.31600000E+01           0.00000000E+00
  -0.31500000E+01           0.00000000E+00
  -0.31400000E+01           0.00000000E+00
  -0.31300000E+01           0.00000000E+00
  -0.31200000E+01           0.00000000E+00
  -0.31100000E+01           0.00000000E+00
  -0.31000000E+01           0.00000000E+00
  -0.30900000E+01           0.00000000E+00
  -0.30800000E+01           0.00000000E+00
  -0.30700000E+01           0.00000000E+00
  -0.30600000E+01           0.00000000E+00
  -0.30500000E+01           0.00000000E+00
  -0.30400000E+01           0.00000000E+00
  -0.30300000E+01           0.00000000E+00
  -0.30200000E+01           0.00000000E+00
  -0.30100000E+01           0.00000000E+00
  -0.30000000E+01           0.00000000E+00
  -0.29900000E+01           0.00000000E+00
  -0.29800000E+01           0.00000000E+00
  -0.29700000E+01           0.00000000E+00
  -0.29600000E+01           0.00000000E+00
  -0.29500000E+01           0.00000000E+00
  -0.29400000E+01           0.00000000E+00
  -0.29300000E+01           0.00000000E+00
  -0.29200000E+01           0.00000000E+00
  -0.29100000E+01           0.00000000E+00
  -0.29000000E+01           0.00000000E+00
  -0.28900000E+01           0.00000000E+00
  -0.28800000E+01           0.00000000E+00
  -0.28700000E+01           0.00000000E+00
  -0.28600000E+01           0.00000000E+00
  -0.28500000E+01           0.00000000E+00
  -0.28400000E+01           0.00000000E+00
  -0.28300000E+01           0.00000000E+00
  -0.28200000E+01           0.00000000E+00
  -0.28100000E+01           0.00000000E+00
  -0.28000000E+01           0.00000000E+00
  -0.27900000E+01           0.00000000E+00
  -0.27800000E+01           0.00000000E+00
  -0.27700000E+01           0.00000000E+00
  -0.27600000E+01           0.00000000E+00
  -0.27500000E+01           0.00000000E+00
  -0.27400000E+01           0.00000000E+00
  -0.27300000E+01           0.00000000E+00
  -0.27200000E+01           0.00000000E+00
  -0.27100000E+01           0.00000000E+00
  -0.27000000E+01           0.00000000E+00
  -0.26900000E+01           0.00000000E+00
  -0.26800000E+01           0.00000000E+00
  -0.26700000E+01           0.00000000E+00
  -0.26600000E+01           0.00000000E+00
  -0.26500000E+01           0.00000000E+00
  -0.26400000E+01           0.00000000E+00
  -0.26300000E+01           0.00000000E+00
  -0.26200000E+01           0.00000000E+00
  -0.26100000E+01           0.00000000E+00
  -0.26000000E+01           0.00000000E+00
  -0.25900000E+01           0.00000000E+00
  -0.25800000E+01           0.00000000E+00
  -0.25700000E+01           0.00000000E+00
  -0.25600000E+01           0.00000000E+00
  -0.25500000E+01           0.00000000E+00
  -0.25400000E+01           0.00000000E+00
  -0.25300000E+01           0.00000000E+00
  -0.25200000E+01           0.00000000E+00
  -0.25100000E+01           0.00000000E+00
  -0.25000000E+01           0.00000000E+00
  -0.24900000E+01           0.00000000E+00
  -0.24800000E+01           0.00000000E+00
  -0.24700000E+01           0.00000000E+00
  -0.24600000E+01           0.00000000E+00
  -0.24500000E+01           0.00000000E+00
  -0.24400000E+01           0.00000000E+00
  -0.24300000E+01           0.00000000E+00
  -0.24200000E+01           0.00000000E+00
  -0.24100000E+01           0.00000000E+00
  -0.24000000E+01           0.00000000E+00
  -0.23900000E+01           0.00000000E+00
  -0.23800000E+01           0.00000000E+00
  -0.23700000E+01           0.00000000E+00
  -0.23600000E+01           0.00000000E+00
  -0.23500000E+01           0.00000000E+00
  -0.23400000E+01           0.00000000E+00
  -0.23300000E+01           0.00000000E+00
  -0.23200000E+01           0.00000000E+00
  -0.23100000E+01           0.00000000E+00
  -0.23000000E+01           0.00000000E+00
  -0.22900000E+01           0.00000000E+00
  -0.22800000E+01           0.00000000E+00
  -0.22700000E+01           0.00000000E+00
  -0.22600000E+01           0.00000000E+00
  -0.22500000E+01           0.00000000E+00
  -0.22400000E+01           0.00000000E+00
  -0.22300000E+01           0.00000000E+00
  -0.22200000E+01           0.00000000E+00
  -0.22100000E+01           0.00000000E+00
  -0.22000000E+01           0.00000000E+00
  -0.21900000E+01           0.00000000E+00
  -0.21800000E+01           0.00000000E+00
  -0.21700000E+01           0.00000000E+00
  -0.21600000E+01           0.00000000E+00
  -0.21500000E+01           0.00000000E+00
  -0.21400000E+01           0.00000000E+00
  -0.21300000E+01           0.00000000E+00
  -0.21200000E+01           0.00000000E+00
  -0.21100000E+01           0.00000000E+00
  -0.21000000E+01           0.00000000E+00
  -0.20900000E+01           0.00000000E+00
  -0.20800000E+01           0.00000000E+00
  -0.20700000E+01           0.00000000E+00
  -0.20600000E+01           0.00000000E+00
  -0.20500000E+01           0.00000000E+00
  -0.20400000E+01           0.00000000E+00
  -0.20300000E+01           0.00000000E+00
  -0.20200000E+01           0.00000000E+00
  -0.20100000E+01           0.00000000E+00
  -0.20000000E+01           0.00000000E+00
  -0.19900000E+01           0.00000000E+00
  -0.19800000E+01           0.00000000E+00
  -0.19700000E+01           0.00000000E+00
  -0.19600000E+01           0.00000000E+00
  -0.19500000E+01           0.00000000E+00
  -0.19400000E+01           0.00000000E+00
  -0.19300000E+01           0.00000000E+00
  -0.19200000E+01           0.00000000E+00
  -0.19100000E+01           0.00000000E+00
  -0.19000000E+01           0.00000000E+00
  -0.18900000E+01           0.00000000E+00
  -0.18800000E+01           0.00000000E+00
  -0.18700000E+01           0.00000000E+00
  -0.18600000E+01           0.00000000E+00
  -0.18500000E+01           0.00000000E+00
  -0.18400000E+01           0.00000000E+00
  -0.18300000E+01           0.00000000E+00
  -0.18200000E+01           0.00000000E+00
  -0.18100000E+01           0.00000000E+00
  -0.18000000E+01           0.00000000E+00
  -0.17900000E+01           0.00000000E+00
  -0.17800000E+01           0.00000000E+00
  -0.17700000E+01           0.00000000E+00
  -0.17600000E+01           0.00000000E+00
  -0.17500000E+01           0.00000000E+00
  -0.17400000E+01           0.00000000E+00
  -0.17300000E+01           0.00000000E+00
  -0.17200000E+01           0.00000000E+00
  -0.17100000E+01           0.00000000E+00
  -0.17000000E+01           0.00000000E+00
  -0.16900000E+01           0.00000000E+00
  -0.16800000E+01           0.00000000E+00
  -0.16700000E+01           0.00000000E+00
  -0.16600000E+01           0.00000000E+00
  -0.16500000E+01           0.00000000E+00
  -0.16400000E+01           0.00000000E+00
  -0.16300000E+01           0.00000000E+00
  -0.16200000E+01           0.00000000E+00
  -0.16100000E+01           0.00000000E+00
  -0.16000000E+01           0.00000000E+00
  -0.15900000E+01           0.00000000E+00
  -0.15800000E+01           0.00000000E+00
  -0.15700000E+01           0.00000000E+00
  -0.15600000E+01           0.00000000E+00
  -0.15500000E+01           0.00000000E+00
  -0.15400000E+01           0.00000000E+00
  -0.15300000E+01           0.00000000E+00
  -0.15200000E+01           0.00000000E+00
  -0.15100000E+01           0.00000000E+00
  -0.15000000E+01           0.00000000E+00
  -0.14900000E+01           0.00000000E+00
[...]
  -0.64000000E+00           0.00000000E+00
  -0.63000000E+00           0.00000000E+00
  -0.62000000E+00           0.00000000E+00
  -0.61000000E+00           0.00000000E+00
  -0.60000000E+00           0.00000000E+00
  -0.59000000E+00           0.00000000E+00
  -0.58000000E+00           0.00000000E+00
  -0.57000000E+00           0.00000000E+00
  -0.56000000E+00           0.00000000E+00
  -0.55000000E+00           0.00000000E+00
  -0.54000000E+00           0.00000000E+00
  -0.53000000E+00           0.00000000E+00
  -0.52000000E+00           0.00000000E+00
  -0.51000000E+00           0.00000000E+00
  -0.50000000E+00           0.00000000E+00
  -0.49000000E+00           0.00000000E+00
  -0.48000000E+00           0.00000000E+00
  -0.47000000E+00           0.00000000E+00
  -0.46000000E+00           0.00000000E+00
  -0.45000000E+00           0.00000000E+00
  -0.44000000E+00           0.00000000E+00
  -0.43000000E+00           0.00000000E+00
  -0.42000000E+00           0.00000000E+00
  -0.41000000E+00           0.00000000E+00
  -0.40000000E+00           0.00000000E+00
  -0.39000000E+00           0.00000000E+00
  -0.38000000E+00           0.00000000E+00
  -0.37000000E+00           0.00000000E+00
  -0.36000000E+00           0.00000000E+00
  -0.35000000E+00           0.00000000E+00
  -0.34000000E+00           0.00000000E+00
  -0.33000000E+00           0.00000000E+00
  -0.32000000E+00           0.00000000E+00
  -0.31000000E+00           0.00000000E+00
  -0.30000000E+00           0.00000000E+00
  -0.29000000E+00           0.00000000E+00
  -0.28000000E+00           0.00000000E+00
  -0.27000000E+00           0.00000000E+00
  -0.26000000E+00           0.00000000E+00
  -0.25000000E+00           0.00000000E+00
  -0.24000000E+00           0.00000000E+00
  -0.23000000E+00           0.00000000E+00
  -0.22000000E+00           0.00000000E+00
  -0.21000000E+00           0.00000000E+00
  -0.20000000E+00           0.00000000E+00
  -0.19000000E+00           0.00000000E+00
  -0.18000000E+00           0.00000000E+00
  -0.17000000E+00           0.00000000E+00
  -0.16000000E+00           0.00000000E+00
  -0.15000000E+00           0.00000000E+00
  -0.14000000E+00           0.00000000E+00
  -0.13000000E+00           0.00000000E+00
  -0.12000000E+00           0.00000000E+00
  -0.11000000E+00           0.00000000E+00
  -0.10000000E+00           0.00000000E+00
  -0.90000000E-01           0.00000000E+00
  -0.80000000E-01           0.00000000E+00
  -0.70000000E-01           0.00000000E+00
  -0.60000000E-01           0.00000000E+00
  -0.50000000E-01           0.00000000E+00
  -0.40000000E-01           0.00000000E+00
  -0.30000000E-01           0.00000000E+00
  -0.20000000E-01           0.00000000E+00
  -0.10000000E-01           0.00000000E+00
   0.00000000E+00           0.61728395E-05
   0.10000000E-01           0.18447972E-03
   0.20000000E-01           0.65820106E-03
   0.30000000E-01           0.14169312E-02
   0.40000000E-01           0.24920635E-02
   0.50000000E-01           0.38063492E-02
   0.60000000E-01           0.54444444E-02
   0.70000000E-01           0.74049383E-02
   0.80000000E-01           0.95661376E-02
   0.90000000E-01           0.12110229E-01
   0.10000000E+00           0.14739859E-01
   0.11000000E+00           0.17668607E-01
   0.12000000E+00           0.20828924E-01
   0.13000000E+00           0.24295062E-01
   0.14000000E+00           0.28045150E-01
   0.15000000E+00           0.31937037E-01
   0.16000000E+00           0.35761199E-01
   0.17000000E+00           0.40216931E-01
   0.18000000E+00           0.44807760E-01
   0.19000000E+00           0.49352205E-01
   0.20000000E+00           0.54429101E-01
   0.21000000E+00           0.59423280E-01
   0.22000000E+00           0.64653086E-01
   0.23000000E+00           0.70105996E-01
   0.24000000E+00           0.75769136E-01
   0.25000000E+00           0.81428219E-01
   0.26000000E+00           0.87327160E-01
   0.27000000E+00           0.93502116E-01
   0.28000000E+00           0.99572134E-01
   0.29000000E+00           0.10562346E+00
   0.30000000E+00           0.11246349E+00
   0.31000000E+00           0.11895820E+00
   0.32000000E+00           0.12564250E+00
   0.33000000E+00           0.13238377E+00
   0.34000000E+00           0.13924515E+00
   0.35000000E+00           0.14615644E+00
   0.36000000E+00           0.15358660E+00
   0.37000000E+00           0.16058571E+00
   0.38000000E+00           0.16796085E+00
   0.39000000E+00           0.17513439E+00
   0.40000000E+00           0.18251499E+00
   0.41000000E+00           0.19026173E+00
   0.42000000E+00           0.19747072E+00
   0.43000000E+00           0.20530229E+00
   0.44000000E+00           0.21260476E+00
   0.45000000E+00           0.22044198E+00
   0.46000000E+00           0.22786314E+00
   0.47000000E+00           0.23605397E+00
   0.48000000E+00           0.24372875E+00
   0.49000000E+00           0.25139982E+00
   0.50000000E+00           0.25883034E+00
   0.51000000E+00           0.26659947E+00
   0.52000000E+00           0.27445556E+00
   0.53000000E+00           0.28202187E+00
   0.54000000E+00           0.29041093E+00
   0.55000000E+00           0.29798236E+00
   0.56000000E+00           0.30549242E+00
   0.57000000E+00           0.31366279E+00
   0.58000000E+00           0.32138589E+00
   0.59000000E+00           0.32936578E+00
   0.60000000E+00           0.33691023E+00
   0.61000000E+00           0.34480141E+00
   0.62000000E+00           0.35261199E+00
   0.63000000E+00           0.35981199E+00
   0.64000000E+00           0.36737513E+00
   0.65000000E+00           0.37494409E+00
   0.66000000E+00           0.38217919E+00
   0.67000000E+00           0.38992751E+00
   0.68000000E+00           0.39747972E+00
   0.69000000E+00           0.40413968E+00
   0.70000000E+00           0.41185679E+00
   0.71000000E+00           0.41872857E+00
   0.72000000E+00           0.42586367E+00
   0.73000000E+00           0.43328342E+00
   0.74000000E+00           0.43989700E+00
   0.75000000E+00           0.44668713E+00
   0.76000000E+00           0.45340899E+00
   0.77000000E+00           0.46057213E+00
   0.78000000E+00           0.46700741E+00
   0.79000000E+00           0.47292487E+00
   0.80000000E+00           0.47945009E+00
   0.81000000E+00           0.48612963E+00
   0.82000000E+00           0.49194004E+00
   0.83000000E+00           0.49855679E+00
   0.84000000E+00           0.50436261E+00
   0.85000000E+00           0.50973898E+00
   0.86000000E+00           0.51583404E+00
   0.87000000E+00           0.52142769E+00
   0.88000000E+00           0.52705820E+00
   0.89000000E+00           0.53237072E+00
   0.90000000E+00           0.53756966E+00
   0.91000000E+00           0.54300794E+00
   0.92000000E+00           0.54785520E+00
   0.93000000E+00           0.55239489E+00
   0.94000000E+00           0.55802310E+00
   0.95000000E+00           0.56229912E+00
   0.96000000E+00           0.56701958E+00
   0.97000000E+00           0.57155326E+00
   0.98000000E+00           0.57533580E+00
   0.99000000E+00           0.57957989E+00
   0.10000000E+01           0.58383721E+00
   0.10100000E+01           0.58776914E+00
   0.10200000E+01           0.59117372E+00
   0.10300000E+01           0.59505732E+00
   0.10400000E+01           0.59865450E+00
   0.10500000E+01           0.60163122E+00
   0.10600000E+01           0.60486755E+00
   0.10700000E+01           0.60768095E+00
   0.10800000E+01           0.61081570E+00
   0.10900000E+01           0.61351164E+00
   0.11000000E+01           0.61611235E+00
   0.11100000E+01           0.61830000E+00
   0.11200000E+01           0.62098642E+00
   0.11300000E+01           0.62280071E+00
   0.11400000E+01           0.62517601E+00
   0.11500000E+01           0.62716931E+00
   0.11600000E+01           0.62885079E+00
   0.11700000E+01           0.63004339E+00
   0.11800000E+01           0.63193474E+00
   0.11900000E+01           0.63300194E+00
   0.12000000E+01           0.63509577E+00
   0.12100000E+01           0.63541393E+00
   0.12200000E+01           0.63656349E+00
   0.12300000E+01           0.63702310E+00
   0.12400000E+01           0.63777637E+00
   0.12500000E+01           0.63837266E+00
   0.12600000E+01           0.63856808E+00
   0.12700000E+01           0.63911270E+00
   0.12800000E+01           0.63925203E+00
   0.12900000E+01           0.63833492E+00
   0.13000000E+01           0.63809541E+00
   0.13100000E+01           0.63806138E+00
   0.13200000E+01           0.63771481E+00
   0.13300000E+01           0.63687919E+00
   0.13400000E+01           0.63605802E+00
   0.13500000E+01           0.63588430E+00
   0.13600000E+01           0.63455750E+00
   0.13700000E+01           0.63314409E+00
   0.13800000E+01           0.63218695E+00
   0.13900000E+01           0.62993563E+00
   0.14000000E+01           0.62917072E+00
   0.14100000E+01           0.62722928E+00
   0.14200000E+01           0.62506402E+00
   0.14300000E+01           0.62388466E+00
   0.14400000E+01           0.62153386E+00
   0.14500000E+01           0.61970423E+00
   0.14600000E+01           0.61792416E+00
   0.14700000E+01           0.61517954E+00
   0.14800000E+01           0.61286085E+00
   0.14900000E+01           0.60945644E+00
   0.15000000E+01           0.60675661E+00
   0.15100000E+01           0.60440282E+00
   0.15200000E+01           0.60124744E+00
   0.15300000E+01           0.59837125E+00
   0.15400000E+01           0.59503668E+00
   0.15500000E+01           0.59216455E+00
   0.15600000E+01           0.58891358E+00
   0.15700000E+01           0.58552769E+00
   0.15800000E+01           0.58176155E+00
   0.15900000E+01           0.57803333E+00
   0.16000000E+01           0.57485097E+00
   0.16100000E+01           0.57038236E+00
   0.16200000E+01           0.56692434E+00
   0.16300000E+01           0.56262169E+00
   0.16400000E+01           0.55772928E+00
   0.16500000E+01           0.55408660E+00
   0.16600000E+01           0.55026772E+00
   0.16700000E+01           0.54590265E+00
   0.16800000E+01           0.54142381E+00
   0.16900000E+01           0.53656138E+00
   0.17000000E+01           0.53291534E+00
   0.17100000E+01           0.52742399E+00
   0.17200000E+01           0.52243034E+00
   0.17300000E+01           0.51840794E+00
   0.17400000E+01           0.51302787E+00
   0.17500000E+01           0.50855115E+00
   0.17600000E+01           0.50366314E+00
   0.17700000E+01           0.49815979E+00
   0.17800000E+01           0.49328695E+00
   0.17900000E+01           0.48795026E+00
   0.18000000E+01           0.48263527E+00
   0.18100000E+01           0.47804145E+00
   0.18200000E+01           0.47236825E+00
   0.18300000E+01           0.46687108E+00
   0.18400000E+01           0.46172328E+00
   0.18500000E+01           0.45613086E+00
   0.18600000E+01           0.45053192E+00
   0.18700000E+01           0.44491958E+00
   0.18800000E+01           0.43914286E+00
   0.18900000E+01           0.43355432E+00
   0.19000000E+01           0.42805220E+00
   0.19100000E+01           0.42241287E+00
   0.19200000E+01           0.41626384E+00
   0.19300000E+01           0.41059277E+00
   0.19400000E+01           0.40499224E+00
   0.19500000E+01           0.39908624E+00
   0.19600000E+01           0.39347672E+00
   0.19700000E+01           0.38748413E+00
   0.19800000E+01           0.38231411E+00
   0.19900000E+01           0.37598360E+00
   0.20000000E+01           0.37016543E+00
   0.20100000E+01           0.36412169E+00
   0.20200000E+01           0.35750159E+00
   0.20300000E+01           0.35229877E+00
   0.20400000E+01           0.34635238E+00
   0.20500000E+01           0.34119524E+00
   0.20600000E+01           0.33509683E+00
   0.20700000E+01           0.32942063E+00
   0.20800000E+01           0.32378854E+00
   0.20900000E+01           0.31837637E+00
   0.21000000E+01           0.31294286E+00
   0.21100000E+01           0.30750847E+00
   0.21200000E+01           0.30199612E+00
   0.21300000E+01           0.29645467E+00
   0.21400000E+01           0.29177231E+00
   0.21500000E+01           0.28690882E+00
   0.21600000E+01           0.28128748E+00
   0.21700000E+01           0.27637937E+00
   0.21800000E+01           0.27138448E+00
   0.21900000E+01           0.26611817E+00
   0.22000000E+01           0.26126226E+00
   0.22100000E+01           0.25642310E+00
   0.22200000E+01           0.25159048E+00
   0.22300000E+01           0.24697848E+00
   0.22400000E+01           0.24178924E+00
   0.22500000E+01           0.23755767E+00
   0.22600000E+01           0.23268854E+00
   0.22700000E+01           0.22839859E+00
   0.22800000E+01           0.22373439E+00
   0.22900000E+01           0.21932328E+00
   0.23000000E+01           0.21541146E+00
   0.23100000E+01           0.21101446E+00
   0.23200000E+01           0.20666279E+00
   0.23300000E+01           0.20211305E+00
   0.23400000E+01           0.19833986E+00
   0.23500000E+01           0.19437619E+00
   0.23600000E+01           0.19025556E+00
   0.23700000E+01           0.18566332E+00
   0.23800000E+01           0.18248342E+00
   0.23900000E+01           0.17840141E+00
   0.24000000E+01           0.17457566E+00
   0.24100000E+01           0.17087725E+00
   0.24200000E+01           0.16709242E+00
   0.24300000E+01           0.16338430E+00
   0.24400000E+01           0.16009753E+00
   0.24500000E+01           0.15654815E+00
   0.24600000E+01           0.15265432E+00
   0.24700000E+01           0.14943968E+00
   0.24800000E+01           0.14652205E+00
   0.24900000E+01           0.14309912E+00
   0.25000000E+01           0.13969065E+00
   0.25100000E+01           0.13652875E+00
   0.25200000E+01           0.13313316E+00
   0.25300000E+01           0.13028942E+00
   0.25400000E+01           0.12732840E+00
   0.25500000E+01           0.12412928E+00
   0.25600000E+01           0.12130282E+00
   0.25700000E+01           0.11822557E+00
   0.25800000E+01           0.11563210E+00
   0.25900000E+01           0.11242698E+00
   0.26000000E+01           0.10997478E+00
   0.26100000E+01           0.10718307E+00
   0.26200000E+01           0.10449647E+00
   0.26300000E+01           0.10156896E+00
   0.26400000E+01           0.99597531E-01
   0.26500000E+01           0.97039506E-01
   0.26600000E+01           0.94572310E-01
   0.26700000E+01           0.92032804E-01
   0.26800000E+01           0.89624339E-01
   0.26900000E+01           0.87364727E-01
   0.27000000E+01           0.85007055E-01
   0.27100000E+01           0.82822575E-01
   0.27200000E+01           0.80693298E-01
   0.27300000E+01           0.78361023E-01
   0.27400000E+01           0.76453439E-01
   0.27500000E+01           0.74168607E-01
   0.27600000E+01           0.72308995E-01
   0.27700000E+01           0.70325573E-01
   0.27800000E+01           0.68405996E-01
   0.27900000E+01           0.66544444E-01
   0.28000000E+01           0.64440388E-01
   0.28100000E+01           0.62869489E-01
   0.28200000E+01           0.61090300E-01
   0.28300000E+01           0.59158730E-01
   0.28400000E+01           0.57397354E-01
   0.28500000E+01           0.55807407E-01
   0.28600000E+01           0.54292240E-01
   0.28700000E+01           0.52568607E-01
   0.28800000E+01           0.51113580E-01
   0.28900000E+01           0.49559259E-01
   0.29000000E+01           0.47951323E-01
   0.29100000E+01           0.46652381E-01
   0.29200000E+01           0.45154145E-01
   0.29300000E+01           0.43856790E-01
   0.29400000E+01           0.42441270E-01
   0.29500000E+01           0.41242857E-01
   0.29600000E+01           0.39781129E-01
   0.29700000E+01           0.38673369E-01
   0.29800000E+01           0.37369489E-01
   0.29900000E+01           0.36169489E-01
   0.30000000E+01           0.35164021E-01
   0.30100000E+01           0.33814638E-01
   0.30200000E+01           0.32597884E-01
   0.30300000E+01           0.31583069E-01
   0.30400000E+01           0.30551499E-01
   0.30500000E+01           0.29421869E-01
   0.30600000E+01           0.28553968E-01
   0.30700000E+01           0.27642152E-01
   0.30800000E+01           0.26617813E-01
   0.30900000E+01           0.25668607E-01
   0.31000000E+01           0.24819224E-01
   0.31100000E+01           0.23831217E-01
   0.31200000E+01           0.23087831E-01
   0.31300000E+01           0.22222751E-01
   0.31400000E+01           0.21451323E-01
   0.31500000E+01           0.20602293E-01
   0.31600000E+01           0.19806349E-01
   0.31700000E+01           0.19198589E-01
   0.31800000E+01           0.18453439E-01
   0.31900000E+01           0.17670547E-01
   0.32000000E+01           0.17024691E-01
   0.32100000E+01           0.16409700E-01
   0.32200000E+01           0.15838272E-01
   0.32300000E+01           0.15062963E-01
   0.32400000E+01           0.14532099E-01
   0.32500000E+01           0.13924691E-01
   0.32600000E+01           0.13376014E-01
   0.32700000E+01           0.12762963E-01
   0.32800000E+01           0.12301235E-01
   0.32900000E+01           0.11852381E-01
   0.33000000E+01           0.11268078E-01
   0.33100000E+01           0.10842328E-01
   0.33200000E+01           0.10368959E-01
   0.33300000E+01           0.98365079E-02
   0.33400000E+01           0.94864198E-02
   0.33500000E+01           0.90194004E-02
   0.33600000E+01           0.86259259E-02
   0.33700000E+01           0.81627866E-02
   0.33800000E+01           0.78310406E-02
   0.33900000E+01           0.74335097E-02
   0.34000000E+01           0.70970018E-02
   0.34100000E+01           0.67620811E-02
   0.34200000E+01           0.64534392E-02
   0.34300000E+01           0.61134039E-02
   0.34400000E+01           0.58119929E-02
   0.34500000E+01           0.55617284E-02
   0.34600000E+01           0.52878307E-02
   0.34700000E+01           0.49613757E-02
   0.34800000E+01           0.46901235E-02
   0.34900000E+01           0.44730159E-02
   0.35000000E+01           0.42204586E-02
   0.35100000E+01           0.40171076E-02
   0.35200000E+01           0.37784832E-02
   0.35300000E+01           0.35190476E-02
   0.35400000E+01           0.33548501E-02
   0.35500000E+01           0.31689594E-02
   0.35600000E+01           0.29970018E-02
   0.35700000E+01           0.27978836E-02
   0.35800000E+01           0.25970018E-02
   0.35900000E+01           0.24749559E-02
   0.36000000E+01           0.22802469E-02
   0.36100000E+01           0.21469136E-02
   0.36200000E+01           0.19938272E-02
   0.36300000E+01           0.18828924E-02
   0.36400000E+01           0.17423280E-02
   0.36500000E+01           0.16112875E-02
   0.36600000E+01           0.14971781E-02
   0.36700000E+01           0.13910053E-02
   0.36800000E+01           0.12961199E-02
   0.36900000E+01           0.11862434E-02
   0.37000000E+01           0.10985891E-02
   0.37100000E+01           0.99805996E-03
   0.37200000E+01           0.92539683E-03
   0.37300000E+01           0.84673721E-03
   0.37400000E+01           0.77336861E-03
   0.37500000E+01           0.70035273E-03
   0.37600000E+01           0.64885362E-03
   0.37700000E+01           0.56790123E-03
   0.37800000E+01           0.50687831E-03
   0.37900000E+01           0.45555556E-03
   0.38000000E+01           0.41410935E-03
   0.38100000E+01           0.36172840E-03
   0.38200000E+01           0.31675485E-03
   0.38300000E+01           0.26913580E-03
   0.38400000E+01           0.24761905E-03
   0.38500000E+01           0.22292769E-03
   0.38600000E+01           0.18024691E-03
   0.38700000E+01           0.14691358E-03
   0.38800000E+01           0.13192240E-03
   0.38900000E+01           0.10141093E-03
   0.39000000E+01           0.86948854E-04
   0.39100000E+01           0.62962963E-04
   0.39200000E+01           0.51322751E-04
   0.39300000E+01           0.42151675E-04
   0.39400000E+01           0.28747795E-04
   0.39500000E+01           0.17636684E-04
   0.39600000E+01           0.14285714E-04
   0.39700000E+01           0.68783069E-05
   0.39800000E+01           0.37037037E-05
   0.39900000E+01           0.10582011E-05
   0.40000000E+01           0.00000000E+00
