 #written on 30Jul2024 at 17:08:32 
 #----------------------------------------------- MONTECARLO ---------------------------------------------------#
 # Temp      Magnetization     Energy_ave          C_M              Sus              U_E              U_M       #
 #--------------------------------------------------------------------------------------------------------------#
   6.0000   0.10474817E+00  -0.75192256E+02   0.10276435E+01   0.12363914E+01   0.66666336E+00   0.35255009E+00
   7.0000   0.97639693E-01  -0.73988296E+02   0.10747669E+01   0.99100521E+00   0.66666181E+00   0.32381493E+00
   8.0000   0.95315814E-01  -0.73122916E+02   0.10498352E+01   0.85797307E+00   0.66666032E+00   0.31167218E+00
   9.0000   0.94282321E-01  -0.72075454E+02   0.10544988E+01   0.71151990E+00   0.66665836E+00   0.31928499E+00
  10.0000   0.94072532E-01  -0.71014957E+02   0.10690970E+01   0.63916961E+00   0.66665596E+00   0.33381037E+00
  11.0000   0.94289246E-01  -0.69943525E+02   0.10796199E+01   0.53946093E+00   0.66665318E+00   0.35936457E+00
  12.0000   0.89754745E-01  -0.68860024E+02   0.10958583E+01   0.48072838E+00   0.66664986E+00   0.31958278E+00
  13.0000   0.90437865E-01  -0.67764850E+02   0.11058022E+01   0.45896204E+00   0.66664612E+00   0.30784352E+00
  14.0000   0.90329653E-01  -0.66654722E+02   0.11168134E+01   0.40413215E+00   0.66664179E+00   0.35857400E+00
  15.0000   0.87670059E-01  -0.65517848E+02   0.11416587E+01   0.37282319E+00   0.66663645E+00   0.31642427E+00
  16.0000   0.85679548E-01  -0.64367140E+02   0.11641175E+01   0.31760052E+00   0.66663035E+00   0.34410660E+00
  17.0000   0.82844756E-01  -0.63192025E+02   0.11867367E+01   0.27534517E+00   0.66662330E+00   0.35320898E+00
  18.0000   0.81627936E-01  -0.61990258E+02   0.12134174E+01   0.25886692E+00   0.66661501E+00   0.34111131E+00
  19.0000   0.77463925E-01  -0.60764602E+02   0.12357789E+01   0.22328471E+00   0.66660567E+00   0.33375873E+00
  20.0000   0.77029122E-01  -0.59507070E+02   0.12660102E+01   0.20268201E+00   0.66659447E+00   0.35085233E+00
  21.0000   0.74525311E-01  -0.58219744E+02   0.12949248E+01   0.17939843E+00   0.66658161E+00   0.35279533E+00
  22.0000   0.72580051E-01  -0.56906955E+02   0.13328076E+01   0.16228369E+00   0.66656611E+00   0.35081854E+00
  23.0000   0.70814165E-01  -0.55565455E+02   0.13560133E+01   0.14959839E+00   0.66654938E+00   0.34949154E+00
  24.0000   0.67617095E-01  -0.54198899E+02   0.13840805E+01   0.12987842E+00   0.66652967E+00   0.34734271E+00
  25.0000   0.65472752E-01  -0.52803127E+02   0.14067316E+01   0.11688738E+00   0.66650750E+00   0.34445265E+00
  26.0000   0.63496536E-01  -0.51389457E+02   0.14181062E+01   0.10438151E+00   0.66648345E+00   0.34830063E+00
  27.0000   0.60936037E-01  -0.49954694E+02   0.14342603E+01   0.92026536E-01   0.66645521E+00   0.34652456E+00
  28.0000   0.58832427E-01  -0.48505012E+02   0.14601771E+01   0.82449920E-01   0.66642110E+00   0.34889783E+00
  29.0000   0.57066116E-01  -0.47045934E+02   0.14572421E+01   0.73630262E-01   0.66638725E+00   0.35308122E+00
  30.0000   0.55089939E-01  -0.45586193E+02   0.14656910E+01   0.65783176E-01   0.66634634E+00   0.35638022E+00
  31.0000   0.53349842E-01  -0.44125166E+02   0.14617330E+01   0.59526298E-01   0.66630267E+00   0.35592701E+00
  32.0000   0.51631236E-01  -0.42669623E+02   0.14583867E+01   0.53882861E-01   0.66625280E+00   0.35462490E+00
  33.0000   0.50214829E-01  -0.41221865E+02   0.14388247E+01   0.48755439E-01   0.66620144E+00   0.35835834E+00
  34.0000   0.48675722E-01  -0.39789023E+02   0.14205963E+01   0.43778838E-01   0.66614332E+00   0.36317645E+00
  35.0000   0.47307684E-01  -0.38376830E+02   0.14043711E+01   0.40005484E-01   0.66607741E+00   0.36182611E+00
  36.0000   0.45949633E-01  -0.36984007E+02   0.13815497E+01   0.36296115E-01   0.66600640E+00   0.36578208E+00
  37.0000   0.44747074E-01  -0.35619018E+02   0.13522226E+01   0.33155522E-01   0.66593069E+00   0.36941956E+00
  38.0000   0.43573141E-01  -0.34280607E+02   0.13221822E+01   0.30247826E-01   0.66584727E+00   0.37234148E+00
  39.0000   0.42609314E-01  -0.32974835E+02   0.12914337E+01   0.27777324E-01   0.66575557E+00   0.37578564E+00
  40.0000   0.41493300E-01  -0.31702855E+02   0.12542372E+01   0.25485651E-01   0.66565979E+00   0.37815386E+00
  41.0000   0.40618372E-01  -0.30464481E+02   0.12216220E+01   0.23587525E-01   0.66555116E+00   0.38041534E+00
  42.0000   0.39715072E-01  -0.29260130E+02   0.11846062E+01   0.21764511E-01   0.66543621E+00   0.38321990E+00
  43.0000   0.38913168E-01  -0.28092244E+02   0.11491813E+01   0.20292859E-01   0.66530925E+00   0.38484203E+00
  44.0000   0.38163232E-01  -0.26959740E+02   0.11137744E+01   0.18911668E-01   0.66517141E+00   0.38718524E+00
  45.0000   0.37395427E-01  -0.25866581E+02   0.10749284E+01   0.17601567E-01   0.66502700E+00   0.38871266E+00
  46.0000   0.36682006E-01  -0.24808387E+02   0.10382966E+01   0.16435740E-01   0.66486832E+00   0.39159148E+00
  47.0000   0.36087107E-01  -0.23786295E+02   0.10035651E+01   0.15437086E-01   0.66469287E+00   0.39404000E+00
  48.0000   0.35495984E-01  -0.22797690E+02   0.97282436E+00   0.14471834E-01   0.66449454E+00   0.39709220E+00
  49.0000   0.34945288E-01  -0.21846630E+02   0.93674355E+00   0.13692930E-01   0.66429313E+00   0.39729582E+00
  50.0000   0.34386285E-01  -0.20925105E+02   0.90186296E+00   0.12899046E-01   0.66407380E+00   0.40006581E+00
  51.0000   0.33891894E-01  -0.20037400E+02   0.87194361E+00   0.12219559E-01   0.66382340E+00   0.40069894E+00
  52.0000   0.33387052E-01  -0.19182534E+02   0.84150729E+00   0.11519999E-01   0.66355506E+00   0.40367993E+00
  53.0000   0.32943045E-01  -0.18357602E+02   0.81078260E+00   0.10896787E-01   0.66326646E+00   0.40637621E+00
  54.0000   0.32538083E-01  -0.17561863E+02   0.78280222E+00   0.10422208E-01   0.66294480E+00   0.40698804E+00
  55.0000   0.32132471E-01  -0.16791400E+02   0.75547166E+00   0.99149926E-02   0.66259256E+00   0.40848582E+00
  56.0000   0.31701767E-01  -0.16051533E+02   0.72853753E+00   0.94194761E-02   0.66221172E+00   0.41054629E+00
  57.0000   0.31356105E-01  -0.15336695E+02   0.70310638E+00   0.90369660E-02   0.66178804E+00   0.41092675E+00
  58.0000   0.30983781E-01  -0.14644396E+02   0.67919219E+00   0.86179156E-02   0.66131789E+00   0.41300861E+00
  59.0000   0.30674839E-01  -0.13978927E+02   0.65614470E+00   0.82802873E-02   0.66080053E+00   0.41388303E+00
  60.0000   0.30364350E-01  -0.13337497E+02   0.63359998E+00   0.79296518E-02   0.66023556E+00   0.41547821E+00
  61.0000   0.30045173E-01  -0.12712624E+02   0.61294144E+00   0.76107825E-02   0.65959307E+00   0.41697291E+00
  62.0000   0.29771878E-01  -0.12113204E+02   0.59124726E+00   0.73116328E-02   0.65890930E+00   0.41824104E+00
  63.0000   0.29493604E-01  -0.11530788E+02   0.57255009E+00   0.70374370E-02   0.65811449E+00   0.41932077E+00
  64.0000   0.29208950E-01  -0.10968792E+02   0.55342961E+00   0.67913506E-02   0.65724971E+00   0.41958048E+00
  65.0000   0.28993421E-01  -0.10424828E+02   0.53411784E+00   0.65475645E-02   0.65629928E+00   0.42129460E+00
  66.0000   0.28728666E-01  -0.98968215E+01   0.51790880E+00   0.63086575E-02   0.65517850E+00   0.42243846E+00
  67.0000   0.28522449E-01  -0.93897026E+01   0.50102676E+00   0.61113404E-02   0.65396239E+00   0.42326003E+00
  68.0000   0.28275352E-01  -0.88974829E+01   0.48566613E+00   0.59179622E-02   0.65256404E+00   0.42244805E+00
  69.0000   0.28078308E-01  -0.84177695E+01   0.47019034E+00   0.57223500E-02   0.65097723E+00   0.42494297E+00
  70.0000   0.27859742E-01  -0.79558192E+01   0.45672985E+00   0.55389084E-02   0.64915585E+00   0.42550796E+00
  71.0000   0.27667697E-01  -0.75081334E+01   0.44306720E+00   0.53716990E-02   0.64708833E+00   0.42626551E+00
  72.0000   0.27490317E-01  -0.70718573E+01   0.42964087E+00   0.52101966E-02   0.64471757E+00   0.42733868E+00
  73.0000   0.27311318E-01  -0.66501063E+01   0.41661682E+00   0.50769371E-02   0.64200316E+00   0.42698792E+00
  74.0000   0.27118929E-01  -0.62375203E+01   0.40505417E+00   0.49275650E-02   0.63875300E+00   0.42791552E+00
  75.0000   0.26962800E-01  -0.58390215E+01   0.39310795E+00   0.47969178E-02   0.63506371E+00   0.42798843E+00
  76.0000   0.26792536E-01  -0.54542889E+01   0.38112924E+00   0.46665636E-02   0.63078622E+00   0.42912155E+00
  77.0000   0.26642296E-01  -0.50770740E+01   0.37083658E+00   0.45411233E-02   0.62556794E+00   0.42943838E+00
  78.0000   0.26482098E-01  -0.47105944E+01   0.36009495E+00   0.44284234E-02   0.61941856E+00   0.43002672E+00
  79.0000   0.26348100E-01  -0.43558854E+01   0.35057690E+00   0.43097860E-02   0.61198901E+00   0.43133314E+00
  80.0000   0.26190284E-01  -0.40099322E+01   0.34058229E+00   0.41988093E-02   0.60306901E+00   0.43130200E+00
  81.0000   0.26063061E-01  -0.36727590E+01   0.33217503E+00   0.41064558E-02   0.59192988E+00   0.43152969E+00
  82.0000   0.25936881E-01  -0.33440543E+01   0.32368763E+00   0.40139477E-02   0.57816829E+00   0.43212342E+00
  83.0000   0.25782556E-01  -0.30262013E+01   0.31549223E+00   0.39145627E-02   0.56115272E+00   0.43211375E+00
  84.0000   0.25689415E-01  -0.27155660E+01   0.30743529E+00   0.38266620E-02   0.53957745E+00   0.43314744E+00
  85.0000   0.25560036E-01  -0.24127828E+01   0.29912547E+00   0.37415696E-02   0.51217422E+00   0.43344575E+00
