 #written on 31Jan2025 at 10:54:51 
 #----------------- MONTECARLO -------------------#
 #        M                      P(M)             #
 #------------------------------------------------#
 #T=    21.0000
  -0.20000000E+01           0.00000000E+00
  -0.19900000E+01           0.00000000E+00
  -0.19800000E+01           0.00000000E+00
  -0.19700000E+01           0.00000000E+00
  -0.19600000E+01           0.00000000E+00
  -0.19500000E+01           0.00000000E+00
  -0.19400000E+01           0.00000000E+00
  -0.19300000E+01           0.00000000E+00
  -0.19200000E+01           0.00000000E+00
  -0.19100000E+01           0.00000000E+00
  -0.19000000E+01           0.00000000E+00
  -0.18900000E+01           0.00000000E+00
  -0.18800000E+01           0.00000000E+00
  -0.18700000E+01           0.00000000E+00
  -0.18600000E+01           0.00000000E+00
  -0.18500000E+01           0.00000000E+00
  -0.18400000E+01           0.00000000E+00
  -0.18300000E+01           0.00000000E+00
  -0.18200000E+01           0.00000000E+00
  -0.18100000E+01           0.00000000E+00
  -0.18000000E+01           0.00000000E+00
  -0.17900000E+01           0.00000000E+00
  -0.17800000E+01           0.00000000E+00
  -0.17700000E+01           0.00000000E+00
  -0.17600000E+01           0.00000000E+00
  -0.17500000E+01           0.00000000E+00
  -0.17400000E+01           0.00000000E+00
  -0.17300000E+01           0.00000000E+00
  -0.17200000E+01           0.00000000E+00
  -0.17100000E+01           0.00000000E+00
  -0.17000000E+01           0.00000000E+00
  -0.16900000E+01           0.00000000E+00
  -0.16800000E+01           0.00000000E+00
  -0.16700000E+01           0.00000000E+00
  -0.16600000E+01           0.00000000E+00
  -0.16500000E+01           0.00000000E+00
  -0.16400000E+01           0.00000000E+00
  -0.16300000E+01           0.00000000E+00
  -0.16200000E+01           0.00000000E+00
  -0.16100000E+01           0.00000000E+00
  -0.16000000E+01           0.00000000E+00
  -0.15900000E+01           0.00000000E+00
  -0.15800000E+01           0.00000000E+00
  -0.15700000E+01           0.00000000E+00
  -0.15600000E+01           0.00000000E+00
  -0.15500000E+01           0.00000000E+00
  -0.15400000E+01           0.00000000E+00
  -0.15300000E+01           0.00000000E+00
  -0.15200000E+01           0.00000000E+00
  -0.15100000E+01           0.00000000E+00
  -0.15000000E+01           0.00000000E+00
  -0.14900000E+01           0.00000000E+00
  -0.14800000E+01           0.00000000E+00
  -0.14700000E+01           0.00000000E+00
  -0.14600000E+01           0.00000000E+00
  -0.14500000E+01           0.00000000E+00
  -0.14400000E+01           0.00000000E+00
  -0.14300000E+01           0.00000000E+00
  -0.14200000E+01           0.00000000E+00
  -0.14100000E+01           0.00000000E+00
  -0.14000000E+01           0.00000000E+00
  -0.13900000E+01           0.00000000E+00
  -0.13800000E+01           0.00000000E+00
  -0.13700000E+01           0.00000000E+00
  -0.13600000E+01           0.00000000E+00
  -0.13500000E+01           0.00000000E+00
  -0.13400000E+01           0.00000000E+00
  -0.13300000E+01           0.00000000E+00
  -0.13200000E+01           0.00000000E+00
  -0.13100000E+01           0.00000000E+00
  -0.13000000E+01           0.00000000E+00
  -0.12900000E+01           0.00000000E+00
  -0.12800000E+01           0.00000000E+00
  -0.12700000E+01           0.00000000E+00
  -0.12600000E+01           0.00000000E+00
  -0.12500000E+01           0.00000000E+00
  -0.12400000E+01           0.00000000E+00
  -0.12300000E+01           0.00000000E+00
  -0.12200000E+01           0.00000000E+00
  -0.12100000E+01           0.00000000E+00
  -0.12000000E+01           0.00000000E+00
  -0.11900000E+01           0.00000000E+00
  -0.11800000E+01           0.00000000E+00
  -0.11700000E+01           0.00000000E+00
  -0.11600000E+01           0.00000000E+00
  -0.11500000E+01           0.00000000E+00
  -0.11400000E+01           0.00000000E+00
  -0.11300000E+01           0.00000000E+00
  -0.11200000E+01           0.00000000E+00
  -0.11100000E+01           0.00000000E+00
  -0.11000000E+01           0.00000000E+00
  -0.10900000E+01           0.00000000E+00
  -0.10800000E+01           0.00000000E+00
  -0.10700000E+01           0.00000000E+00
  -0.10600000E+01           0.00000000E+00
  -0.10500000E+01           0.00000000E+00
  -0.10400000E+01           0.00000000E+00
  -0.10300000E+01           0.00000000E+00
  -0.10200000E+01           0.00000000E+00
  -0.10100000E+01           0.00000000E+00
  -0.10000000E+01           0.00000000E+00
  -0.99000000E+00           0.00000000E+00
  -0.98000000E+00           0.00000000E+00
  -0.97000000E+00           0.00000000E+00
  -0.96000000E+00           0.00000000E+00
  -0.95000000E+00           0.00000000E+00
  -0.94000000E+00           0.00000000E+00
  -0.93000000E+00           0.00000000E+00
  -0.92000000E+00           0.00000000E+00
  -0.91000000E+00           0.00000000E+00
  -0.90000000E+00           0.00000000E+00
  -0.89000000E+00           0.00000000E+00
  -0.88000000E+00           0.00000000E+00
  -0.87000000E+00           0.00000000E+00
  -0.86000000E+00           0.00000000E+00
  -0.85000000E+00           0.00000000E+00
  -0.84000000E+00           0.00000000E+00
  -0.83000000E+00           0.00000000E+00
  -0.82000000E+00           0.00000000E+00
  -0.81000000E+00           0.00000000E+00
  -0.80000000E+00           0.00000000E+00
  -0.79000000E+00           0.00000000E+00
  -0.78000000E+00           0.00000000E+00
  -0.77000000E+00           0.00000000E+00
  -0.76000000E+00           0.00000000E+00
  -0.75000000E+00           0.00000000E+00
  -0.74000000E+00           0.00000000E+00
  -0.73000000E+00           0.00000000E+00
  -0.72000000E+00           0.00000000E+00
  -0.71000000E+00           0.00000000E+00
  -0.70000000E+00           0.00000000E+00
  -0.69000000E+00           0.00000000E+00
  -0.68000000E+00           0.00000000E+00
  -0.67000000E+00           0.00000000E+00
  -0.66000000E+00           0.00000000E+00
  -0.65000000E+00           0.00000000E+00
  -0.64000000E+00           0.00000000E+00
  -0.63000000E+00           0.00000000E+00
  -0.62000000E+00           0.00000000E+00
  -0.61000000E+00           0.00000000E+00
  -0.60000000E+00           0.00000000E+00
  -0.59000000E+00           0.00000000E+00
  -0.58000000E+00           0.00000000E+00
  -0.57000000E+00           0.00000000E+00
  -0.56000000E+00           0.00000000E+00
  -0.55000000E+00           0.00000000E+00
  -0.54000000E+00           0.00000000E+00
  -0.53000000E+00           0.00000000E+00
  -0.52000000E+00           0.00000000E+00
  -0.51000000E+00           0.00000000E+00
  -0.50000000E+00           0.00000000E+00
  -0.49000000E+00           0.00000000E+00
  -0.48000000E+00           0.00000000E+00
  -0.47000000E+00           0.00000000E+00
  -0.46000000E+00           0.00000000E+00
  -0.45000000E+00           0.00000000E+00
  -0.44000000E+00           0.00000000E+00
  -0.43000000E+00           0.00000000E+00
  -0.42000000E+00           0.00000000E+00
  -0.41000000E+00           0.00000000E+00
  -0.40000000E+00           0.00000000E+00
  -0.39000000E+00           0.00000000E+00
  -0.38000000E+00           0.00000000E+00
  -0.37000000E+00           0.00000000E+00
  -0.36000000E+00           0.00000000E+00
  -0.35000000E+00           0.00000000E+00
  -0.34000000E+00           0.00000000E+00
  -0.33000000E+00           0.00000000E+00
  -0.32000000E+00           0.00000000E+00
  -0.31000000E+00           0.00000000E+00
  -0.30000000E+00           0.00000000E+00
  -0.29000000E+00           0.00000000E+00
  -0.28000000E+00           0.00000000E+00
  -0.27000000E+00           0.00000000E+00
  -0.26000000E+00           0.00000000E+00
  -0.25000000E+00           0.00000000E+00
  -0.24000000E+00           0.00000000E+00
  -0.23000000E+00           0.00000000E+00
  -0.22000000E+00           0.00000000E+00
  -0.21000000E+00           0.00000000E+00
  -0.20000000E+00           0.00000000E+00
  -0.19000000E+00           0.00000000E+00
  -0.18000000E+00           0.00000000E+00
  -0.17000000E+00           0.00000000E+00
  -0.16000000E+00           0.00000000E+00
  -0.15000000E+00           0.00000000E+00
  -0.14000000E+00           0.00000000E+00
  -0.13000000E+00           0.00000000E+00
  -0.12000000E+00           0.00000000E+00
  -0.11000000E+00           0.00000000E+00
  -0.10000000E+00           0.00000000E+00
  -0.90000000E-01           0.00000000E+00
  -0.80000000E-01           0.00000000E+00
  -0.70000000E-01           0.00000000E+00
  -0.60000000E-01           0.00000000E+00
  -0.50000000E-01           0.00000000E+00
  -0.40000000E-01           0.00000000E+00
  -0.30000000E-01           0.00000000E+00
  -0.20000000E-01           0.00000000E+00
  -0.10000000E-01           0.00000000E+00
   0.00000000E+00           0.62017778E-03
   0.10000000E-01           0.50047111E-02
   0.20000000E-01           0.99656000E-02
   0.30000000E-01           0.14993156E-01
   0.40000000E-01           0.19925956E-01
   0.50000000E-01           0.24936711E-01
   0.60000000E-01           0.29857511E-01
   0.70000000E-01           0.34945689E-01
   0.80000000E-01           0.39930578E-01
   0.90000000E-01           0.44849333E-01
   0.10000000E+00           0.49838667E-01
   0.11000000E+00           0.55002578E-01
   0.12000000E+00           0.59950222E-01
   0.13000000E+00           0.64940889E-01
   0.14000000E+00           0.69839822E-01
   0.15000000E+00           0.74975378E-01
   0.16000000E+00           0.80006756E-01
   0.17000000E+00           0.84789689E-01
   0.18000000E+00           0.90029778E-01
   0.19000000E+00           0.94853244E-01
   0.20000000E+00           0.99641867E-01
   0.21000000E+00           0.10488471E+00
   0.22000000E+00           0.10984489E+00
   0.23000000E+00           0.11478293E+00
   0.24000000E+00           0.11993333E+00
   0.25000000E+00           0.12471929E+00
   0.26000000E+00           0.12947893E+00
   0.27000000E+00           0.13491449E+00
   0.28000000E+00           0.13978044E+00
   0.29000000E+00           0.14476507E+00
   0.30000000E+00           0.14993467E+00
   0.31000000E+00           0.15501360E+00
   0.32000000E+00           0.15996551E+00
   0.33000000E+00           0.16471191E+00
   0.34000000E+00           0.16974658E+00
   0.35000000E+00           0.17468276E+00
   0.36000000E+00           0.17982444E+00
   0.37000000E+00           0.18473022E+00
   0.38000000E+00           0.18960818E+00
   0.39000000E+00           0.19477547E+00
   0.40000000E+00           0.19990533E+00
   0.41000000E+00           0.20485822E+00
   0.42000000E+00           0.21024907E+00
   0.43000000E+00           0.21497467E+00
   0.44000000E+00           0.21965991E+00
   0.45000000E+00           0.22520960E+00
   0.46000000E+00           0.22982284E+00
   0.47000000E+00           0.23481538E+00
   0.48000000E+00           0.23967947E+00
   0.49000000E+00           0.24493333E+00
   0.50000000E+00           0.24965502E+00
   0.51000000E+00           0.25447067E+00
   0.52000000E+00           0.25990444E+00
   0.53000000E+00           0.26483431E+00
   0.54000000E+00           0.26997156E+00
   0.55000000E+00           0.27495360E+00
   0.56000000E+00           0.27994933E+00
   0.57000000E+00           0.28465440E+00
   0.58000000E+00           0.28976533E+00
   0.59000000E+00           0.29464453E+00
   0.60000000E+00           0.29950267E+00
   0.61000000E+00           0.30462178E+00
   0.62000000E+00           0.30955609E+00
   0.63000000E+00           0.31476516E+00
   0.64000000E+00           0.31965022E+00
   0.65000000E+00           0.32466756E+00
   0.66000000E+00           0.32955849E+00
   0.67000000E+00           0.33477084E+00
   0.68000000E+00           0.33952178E+00
   0.69000000E+00           0.34463991E+00
   0.70000000E+00           0.34992196E+00
   0.71000000E+00           0.35453751E+00
   0.72000000E+00           0.35951040E+00
   0.73000000E+00           0.36433867E+00
   0.74000000E+00           0.36993893E+00
   0.75000000E+00           0.37483084E+00
   0.76000000E+00           0.37980613E+00
   0.77000000E+00           0.38469076E+00
   0.78000000E+00           0.38979351E+00
   0.79000000E+00           0.39457058E+00
   0.80000000E+00           0.39985831E+00
   0.81000000E+00           0.40511200E+00
   0.82000000E+00           0.40942889E+00
   0.83000000E+00           0.41464880E+00
   0.84000000E+00           0.41991182E+00
   0.85000000E+00           0.42464471E+00
   0.86000000E+00           0.42961173E+00
   0.87000000E+00           0.43504231E+00
   0.88000000E+00           0.43956764E+00
   0.89000000E+00           0.44504364E+00
   0.90000000E+00           0.44963538E+00
   0.91000000E+00           0.45524373E+00
   0.92000000E+00           0.45940187E+00
   0.93000000E+00           0.46463387E+00
   0.94000000E+00           0.46919733E+00
   0.95000000E+00           0.47407129E+00
   0.96000000E+00           0.47981591E+00
   0.97000000E+00           0.48407431E+00
   0.98000000E+00           0.48953102E+00
   0.99000000E+00           0.49456480E+00
   0.10000000E+01           0.49950827E+00
   0.10100000E+01           0.50456436E+00
   0.10200000E+01           0.50956871E+00
   0.10300000E+01           0.51516560E+00
   0.10400000E+01           0.51912133E+00
   0.10500000E+01           0.52464773E+00
   0.10600000E+01           0.52958080E+00
   0.10700000E+01           0.53482453E+00
   0.10800000E+01           0.53947422E+00
   0.10900000E+01           0.54468569E+00
   0.11000000E+01           0.54965769E+00
   0.11100000E+01           0.55467387E+00
   0.11200000E+01           0.55961733E+00
   0.11300000E+01           0.56425760E+00
   0.11400000E+01           0.57003431E+00
   0.11500000E+01           0.57417360E+00
   0.11600000E+01           0.57970764E+00
   0.11700000E+01           0.58447307E+00
   0.11800000E+01           0.58951804E+00
   0.11900000E+01           0.59440818E+00
   0.12000000E+01           0.59954231E+00
   0.12100000E+01           0.60469751E+00
   0.12200000E+01           0.60945636E+00
   0.12300000E+01           0.61450302E+00
   0.12400000E+01           0.61894942E+00
   0.12500000E+01           0.62440853E+00
   0.12600000E+01           0.62961716E+00
   0.12700000E+01           0.63456747E+00
   0.12800000E+01           0.64015476E+00
   0.12900000E+01           0.64497467E+00
   0.13000000E+01           0.64959760E+00
   0.13100000E+01           0.65485902E+00
   0.13200000E+01           0.65973316E+00
   0.13300000E+01           0.66473662E+00
   0.13400000E+01           0.66948178E+00
   0.13500000E+01           0.67478684E+00
   0.13600000E+01           0.67992409E+00
   0.13700000E+01           0.68468809E+00
   0.13800000E+01           0.68924880E+00
   0.13900000E+01           0.69481244E+00
   0.14000000E+01           0.69991582E+00
   0.14100000E+01           0.70524258E+00
   0.14200000E+01           0.70961893E+00
   0.14300000E+01           0.71447573E+00
   0.14400000E+01           0.72015093E+00
   0.14500000E+01           0.72479440E+00
   0.14600000E+01           0.72919200E+00
   0.14700000E+01           0.73515556E+00
   0.14800000E+01           0.74014738E+00
   0.14900000E+01           0.74496027E+00
   0.15000000E+01           0.74979236E+00
   0.15100000E+01           0.75491324E+00
   0.15200000E+01           0.75987058E+00
   0.15300000E+01           0.76531476E+00
   0.15400000E+01           0.76997627E+00
   0.15500000E+01           0.77506996E+00
   0.15600000E+01           0.78058658E+00
   0.15700000E+01           0.78451618E+00
   0.15800000E+01           0.79023769E+00
   0.15900000E+01           0.79497236E+00
   0.16000000E+01           0.79968364E+00
   0.16100000E+01           0.80490604E+00
   0.16200000E+01           0.81017876E+00
   0.16300000E+01           0.81533511E+00
   0.16400000E+01           0.81983449E+00
   0.16500000E+01           0.82532071E+00
   0.16600000E+01           0.83080018E+00
   0.16700000E+01           0.83601147E+00
   0.16800000E+01           0.83997991E+00
   0.16900000E+01           0.84546409E+00
   0.17000000E+01           0.85150542E+00
   0.17100000E+01           0.85543378E+00
   0.17200000E+01           0.86064373E+00
   0.17300000E+01           0.86567191E+00
   0.17400000E+01           0.87068444E+00
   0.17500000E+01           0.87549404E+00
   0.17600000E+01           0.88076933E+00
   0.17700000E+01           0.88599209E+00
   0.17800000E+01           0.89054773E+00
   0.17900000E+01           0.89581058E+00
   0.18000000E+01           0.90128400E+00
   0.18100000E+01           0.90621831E+00
   0.18200000E+01           0.91099982E+00
   0.18300000E+01           0.91580276E+00
   0.18400000E+01           0.92079280E+00
   0.18500000E+01           0.92577636E+00
   0.18600000E+01           0.93115200E+00
   0.18700000E+01           0.93661600E+00
   0.18800000E+01           0.94129662E+00
   0.18900000E+01           0.94620213E+00
   0.19000000E+01           0.95156329E+00
   0.19100000E+01           0.95641013E+00
   0.19200000E+01           0.96147120E+00
   0.19300000E+01           0.96682836E+00
   0.19400000E+01           0.97149609E+00
   0.19500000E+01           0.97691467E+00
   0.19600000E+01           0.98177822E+00
   0.19700000E+01           0.98724284E+00
   0.19800000E+01           0.99210098E+00
   0.19900000E+01           0.99643076E+00
   0.20000000E+01           0.50010951E+00
 #T=    22.0000
  -0.20000000E+01           0.00000000E+00
  -0.19900000E+01           0.00000000E+00
  -0.19800000E+01           0.00000000E+00
  -0.19700000E+01           0.00000000E+00
  -0.19600000E+01           0.00000000E+00
  -0.19500000E+01           0.00000000E+00
  -0.19400000E+01           0.00000000E+00
  -0.19300000E+01           0.00000000E+00
  -0.19200000E+01           0.00000000E+00
  -0.19100000E+01           0.00000000E+00
  -0.19000000E+01           0.00000000E+00
  -0.18900000E+01           0.00000000E+00
  -0.18800000E+01           0.00000000E+00
  -0.18700000E+01           0.00000000E+00
  -0.18600000E+01           0.00000000E+00
  -0.18500000E+01           0.00000000E+00
  -0.18400000E+01           0.00000000E+00
  -0.18300000E+01           0.00000000E+00
  -0.18200000E+01           0.00000000E+00
  -0.18100000E+01           0.00000000E+00
  -0.18000000E+01           0.00000000E+00
  -0.17900000E+01           0.00000000E+00
  -0.17800000E+01           0.00000000E+00
  -0.17700000E+01           0.00000000E+00
  -0.17600000E+01           0.00000000E+00
  -0.17500000E+01           0.00000000E+00
  -0.17400000E+01           0.00000000E+00
  -0.17300000E+01           0.00000000E+00
  -0.17200000E+01           0.00000000E+00
  -0.17100000E+01           0.00000000E+00
  -0.17000000E+01           0.00000000E+00
  -0.16900000E+01           0.00000000E+00
  -0.16800000E+01           0.00000000E+00
  -0.16700000E+01           0.00000000E+00
  -0.16600000E+01           0.00000000E+00
  -0.16500000E+01           0.00000000E+00
  -0.16400000E+01           0.00000000E+00
  -0.16300000E+01           0.00000000E+00
  -0.16200000E+01           0.00000000E+00
  -0.16100000E+01           0.00000000E+00
  -0.16000000E+01           0.00000000E+00
  -0.15900000E+01           0.00000000E+00
  -0.15800000E+01           0.00000000E+00
  -0.15700000E+01           0.00000000E+00
  -0.15600000E+01           0.00000000E+00
  -0.15500000E+01           0.00000000E+00
  -0.15400000E+01           0.00000000E+00
  -0.15300000E+01           0.00000000E+00
  -0.15200000E+01           0.00000000E+00
  -0.15100000E+01           0.00000000E+00
  -0.15000000E+01           0.00000000E+00
  -0.14900000E+01           0.00000000E+00
  -0.14800000E+01           0.00000000E+00
  -0.14700000E+01           0.00000000E+00
  -0.14600000E+01           0.00000000E+00
  -0.14500000E+01           0.00000000E+00
  -0.14400000E+01           0.00000000E+00
  -0.14300000E+01           0.00000000E+00
  -0.14200000E+01           0.00000000E+00
  -0.14100000E+01           0.00000000E+00
  -0.14000000E+01           0.00000000E+00
  -0.13900000E+01           0.00000000E+00
  -0.13800000E+01           0.00000000E+00
  -0.13700000E+01           0.00000000E+00
  -0.13600000E+01           0.00000000E+00
  -0.13500000E+01           0.00000000E+00
  -0.13400000E+01           0.00000000E+00
  -0.13300000E+01           0.00000000E+00
  -0.13200000E+01           0.00000000E+00
  -0.13100000E+01           0.00000000E+00
  -0.13000000E+01           0.00000000E+00
  -0.12900000E+01           0.00000000E+00
  -0.12800000E+01           0.00000000E+00
  -0.12700000E+01           0.00000000E+00
  -0.12600000E+01           0.00000000E+00
  -0.12500000E+01           0.00000000E+00
  -0.12400000E+01           0.00000000E+00
  -0.12300000E+01           0.00000000E+00
  -0.12200000E+01           0.00000000E+00
  -0.12100000E+01           0.00000000E+00
  -0.12000000E+01           0.00000000E+00
  -0.11900000E+01           0.00000000E+00
  -0.11800000E+01           0.00000000E+00
  -0.11700000E+01           0.00000000E+00
  -0.11600000E+01           0.00000000E+00
  -0.11500000E+01           0.00000000E+00
  -0.11400000E+01           0.00000000E+00
  -0.11300000E+01           0.00000000E+00
  -0.11200000E+01           0.00000000E+00
  -0.11100000E+01           0.00000000E+00
  -0.11000000E+01           0.00000000E+00
  -0.10900000E+01           0.00000000E+00
  -0.10800000E+01           0.00000000E+00
  -0.10700000E+01           0.00000000E+00
  -0.10600000E+01           0.00000000E+00
  -0.10500000E+01           0.00000000E+00
  -0.10400000E+01           0.00000000E+00
  -0.10300000E+01           0.00000000E+00
  -0.10200000E+01           0.00000000E+00
  -0.10100000E+01           0.00000000E+00
  -0.10000000E+01           0.00000000E+00
  -0.99000000E+00           0.00000000E+00
  -0.98000000E+00           0.00000000E+00
  -0.97000000E+00           0.00000000E+00
  -0.96000000E+00           0.00000000E+00
  -0.95000000E+00           0.00000000E+00
  -0.94000000E+00           0.00000000E+00
  -0.93000000E+00           0.00000000E+00
  -0.92000000E+00           0.00000000E+00
  -0.91000000E+00           0.00000000E+00
  -0.90000000E+00           0.00000000E+00
  -0.89000000E+00           0.00000000E+00
  -0.88000000E+00           0.00000000E+00
  -0.87000000E+00           0.00000000E+00
  -0.86000000E+00           0.00000000E+00
  -0.85000000E+00           0.00000000E+00
  -0.84000000E+00           0.00000000E+00
  -0.83000000E+00           0.00000000E+00
  -0.82000000E+00           0.00000000E+00
  -0.81000000E+00           0.00000000E+00
  -0.80000000E+00           0.00000000E+00
  -0.79000000E+00           0.00000000E+00
  -0.78000000E+00           0.00000000E+00
  -0.77000000E+00           0.00000000E+00
  -0.76000000E+00           0.00000000E+00
  -0.75000000E+00           0.00000000E+00
  -0.74000000E+00           0.00000000E+00
  -0.73000000E+00           0.00000000E+00
  -0.72000000E+00           0.00000000E+00
  -0.71000000E+00           0.00000000E+00
  -0.70000000E+00           0.00000000E+00
  -0.69000000E+00           0.00000000E+00
  -0.68000000E+00           0.00000000E+00
  -0.67000000E+00           0.00000000E+00
  -0.66000000E+00           0.00000000E+00
  -0.65000000E+00           0.00000000E+00
  -0.64000000E+00           0.00000000E+00
  -0.63000000E+00           0.00000000E+00
  -0.62000000E+00           0.00000000E+00
  -0.61000000E+00           0.00000000E+00
  -0.60000000E+00           0.00000000E+00
  -0.59000000E+00           0.00000000E+00
  -0.58000000E+00           0.00000000E+00
  -0.57000000E+00           0.00000000E+00
  -0.56000000E+00           0.00000000E+00
  -0.55000000E+00           0.00000000E+00
  -0.54000000E+00           0.00000000E+00
  -0.53000000E+00           0.00000000E+00
  -0.52000000E+00           0.00000000E+00
  -0.51000000E+00           0.00000000E+00
  -0.50000000E+00           0.00000000E+00
  -0.49000000E+00           0.00000000E+00
  -0.48000000E+00           0.00000000E+00
  -0.47000000E+00           0.00000000E+00
  -0.46000000E+00           0.00000000E+00
  -0.45000000E+00           0.00000000E+00
  -0.44000000E+00           0.00000000E+00
  -0.43000000E+00           0.00000000E+00
  -0.42000000E+00           0.00000000E+00
  -0.41000000E+00           0.00000000E+00
  -0.40000000E+00           0.00000000E+00
  -0.39000000E+00           0.00000000E+00
  -0.38000000E+00           0.00000000E+00
  -0.37000000E+00           0.00000000E+00
  -0.36000000E+00           0.00000000E+00
  -0.35000000E+00           0.00000000E+00
  -0.34000000E+00           0.00000000E+00
  -0.33000000E+00           0.00000000E+00
  -0.32000000E+00           0.00000000E+00
  -0.31000000E+00           0.00000000E+00
  -0.30000000E+00           0.00000000E+00
  -0.29000000E+00           0.00000000E+00
  -0.28000000E+00           0.00000000E+00
  -0.27000000E+00           0.00000000E+00
  -0.26000000E+00           0.00000000E+00
  -0.25000000E+00           0.00000000E+00
  -0.24000000E+00           0.00000000E+00
  -0.23000000E+00           0.00000000E+00
  -0.22000000E+00           0.00000000E+00
  -0.21000000E+00           0.00000000E+00
  -0.20000000E+00           0.00000000E+00
  -0.19000000E+00           0.00000000E+00
  -0.18000000E+00           0.00000000E+00
  -0.17000000E+00           0.00000000E+00
  -0.16000000E+00           0.00000000E+00
  -0.15000000E+00           0.00000000E+00
  -0.14000000E+00           0.00000000E+00
  -0.13000000E+00           0.00000000E+00
  -0.12000000E+00           0.00000000E+00
  -0.11000000E+00           0.00000000E+00
  -0.10000000E+00           0.00000000E+00
  -0.90000000E-01           0.00000000E+00
  -0.80000000E-01           0.00000000E+00
  -0.70000000E-01           0.00000000E+00
  -0.60000000E-01           0.00000000E+00
  -0.50000000E-01           0.00000000E+00
  -0.40000000E-01           0.00000000E+00
  -0.30000000E-01           0.00000000E+00
  -0.20000000E-01           0.00000000E+00
  -0.10000000E-01           0.00000000E+00
   0.00000000E+00           0.62302222E-03
   0.10000000E-01           0.49800000E-02
   0.20000000E-01           0.10063822E-01
   0.30000000E-01           0.15039111E-01
   0.40000000E-01           0.20124089E-01
   0.50000000E-01           0.25126044E-01
   0.60000000E-01           0.30175733E-01
   0.70000000E-01           0.35132089E-01
   0.80000000E-01           0.40204267E-01
   0.90000000E-01           0.45083556E-01
   0.10000000E+00           0.50100622E-01
   0.11000000E+00           0.55079467E-01
   0.12000000E+00           0.60041511E-01
   0.13000000E+00           0.64915200E-01
   0.14000000E+00           0.70046400E-01
   0.15000000E+00           0.75034044E-01
   0.16000000E+00           0.80022400E-01
   0.17000000E+00           0.84903378E-01
   0.18000000E+00           0.90312356E-01
   0.19000000E+00           0.94975378E-01
   0.20000000E+00           0.10007102E+00
   0.21000000E+00           0.10513591E+00
   0.22000000E+00           0.11018240E+00
   0.23000000E+00           0.11536444E+00
   0.24000000E+00           0.12003200E+00
   0.25000000E+00           0.12516969E+00
   0.26000000E+00           0.13019280E+00
   0.27000000E+00           0.13530916E+00
   0.28000000E+00           0.13993547E+00
   0.29000000E+00           0.14519902E+00
   0.30000000E+00           0.15023022E+00
   0.31000000E+00           0.15531716E+00
   0.32000000E+00           0.16032089E+00
   0.33000000E+00           0.16519956E+00
   0.34000000E+00           0.17048347E+00
   0.35000000E+00           0.17526187E+00
   0.36000000E+00           0.18029591E+00
   0.37000000E+00           0.18527102E+00
   0.38000000E+00           0.19030382E+00
   0.39000000E+00           0.19545778E+00
   0.40000000E+00           0.20010471E+00
   0.41000000E+00           0.20528062E+00
   0.42000000E+00           0.21019876E+00
   0.43000000E+00           0.21523493E+00
   0.44000000E+00           0.22053227E+00
   0.45000000E+00           0.22524436E+00
   0.46000000E+00           0.23051556E+00
   0.47000000E+00           0.23509307E+00
   0.48000000E+00           0.24059484E+00
   0.49000000E+00           0.24502391E+00
   0.50000000E+00           0.25051271E+00
   0.51000000E+00           0.25536987E+00
   0.52000000E+00           0.26032933E+00
   0.53000000E+00           0.26564942E+00
   0.54000000E+00           0.27052169E+00
   0.55000000E+00           0.27518933E+00
   0.56000000E+00           0.28034347E+00
   0.57000000E+00           0.28526818E+00
   0.58000000E+00           0.29023271E+00
   0.59000000E+00           0.29552044E+00
   0.60000000E+00           0.30014133E+00
   0.61000000E+00           0.30526862E+00
   0.62000000E+00           0.31056498E+00
   0.63000000E+00           0.31525404E+00
   0.64000000E+00           0.32042738E+00
   0.65000000E+00           0.32519636E+00
   0.66000000E+00           0.33025876E+00
   0.67000000E+00           0.33545369E+00
   0.68000000E+00           0.34061253E+00
   0.69000000E+00           0.34543467E+00
   0.70000000E+00           0.35029147E+00
   0.71000000E+00           0.35572018E+00
   0.72000000E+00           0.36038231E+00
   0.73000000E+00           0.36543991E+00
   0.74000000E+00           0.37007724E+00
   0.75000000E+00           0.37498604E+00
   0.76000000E+00           0.38046764E+00
   0.77000000E+00           0.38531831E+00
   0.78000000E+00           0.39024338E+00
   0.79000000E+00           0.39503040E+00
   0.80000000E+00           0.40013333E+00
   0.81000000E+00           0.40584684E+00
   0.82000000E+00           0.41027244E+00
   0.83000000E+00           0.41542658E+00
   0.84000000E+00           0.42026844E+00
   0.85000000E+00           0.42523724E+00
   0.86000000E+00           0.43047876E+00
   0.87000000E+00           0.43534596E+00
   0.88000000E+00           0.44036418E+00
   0.89000000E+00           0.44490871E+00
   0.90000000E+00           0.45085404E+00
   0.91000000E+00           0.45621831E+00
   0.92000000E+00           0.46032853E+00
   0.93000000E+00           0.46583093E+00
   0.94000000E+00           0.47025716E+00
   0.95000000E+00           0.47482871E+00
   0.96000000E+00           0.47999040E+00
   0.97000000E+00           0.48536587E+00
   0.98000000E+00           0.49070764E+00
   0.99000000E+00           0.49565093E+00
   0.10000000E+01           0.50026098E+00
   0.10100000E+01           0.50522178E+00
   0.10200000E+01           0.51012720E+00
   0.10300000E+01           0.51516631E+00
   0.10400000E+01           0.52000604E+00
   0.10500000E+01           0.52553707E+00
   0.10600000E+01           0.53020204E+00
   0.10700000E+01           0.53516409E+00
   0.10800000E+01           0.54044907E+00
   0.10900000E+01           0.54506631E+00
   0.11000000E+01           0.54973609E+00
   0.11100000E+01           0.55549493E+00
   0.11200000E+01           0.55986889E+00
   0.11300000E+01           0.56498533E+00
   0.11400000E+01           0.57045191E+00
   0.11500000E+01           0.57496222E+00
   0.11600000E+01           0.57999387E+00
   0.11700000E+01           0.58520800E+00
   0.11800000E+01           0.59073929E+00
   0.11900000E+01           0.59498027E+00
   0.12000000E+01           0.59996178E+00
   0.12100000E+01           0.60584471E+00
   0.12200000E+01           0.60973058E+00
   0.12300000E+01           0.61506018E+00
   0.12400000E+01           0.61999004E+00
   0.12500000E+01           0.62508302E+00
   0.12600000E+01           0.62983893E+00
   0.12700000E+01           0.63498560E+00
   0.12800000E+01           0.63965476E+00
   0.12900000E+01           0.64496738E+00
   0.13000000E+01           0.64988453E+00
   0.13100000E+01           0.65445031E+00
   0.13200000E+01           0.65925191E+00
   0.13300000E+01           0.66476800E+00
   0.13400000E+01           0.67019964E+00
   0.13500000E+01           0.67474436E+00
   0.13600000E+01           0.68002178E+00
   0.13700000E+01           0.68520907E+00
   0.13800000E+01           0.68957102E+00
   0.13900000E+01           0.69476853E+00
   0.14000000E+01           0.69963636E+00
   0.14100000E+01           0.70527209E+00
   0.14200000E+01           0.71015858E+00
   0.14300000E+01           0.71466044E+00
   0.14400000E+01           0.71936507E+00
   0.14500000E+01           0.72484124E+00
   0.14600000E+01           0.72960578E+00
   0.14700000E+01           0.73450462E+00
   0.14800000E+01           0.74022444E+00
   0.14900000E+01           0.74402569E+00
   0.15000000E+01           0.74930907E+00
   0.15100000E+01           0.75520747E+00
   0.15200000E+01           0.75970516E+00
   0.15300000E+01           0.76476267E+00
   0.15400000E+01           0.76905191E+00
   0.15500000E+01           0.77416249E+00
   0.15600000E+01           0.77953067E+00
   0.15700000E+01           0.78446560E+00
   0.15800000E+01           0.78936053E+00
   0.15900000E+01           0.79515449E+00
   0.16000000E+01           0.79970302E+00
   0.16100000E+01           0.80450276E+00
   0.16200000E+01           0.81029982E+00
   0.16300000E+01           0.81440249E+00
   0.16400000E+01           0.81985129E+00
   0.16500000E+01           0.82410747E+00
   0.16600000E+01           0.82959307E+00
   0.16700000E+01           0.83489076E+00
   0.16800000E+01           0.83948098E+00
   0.16900000E+01           0.84439733E+00
   0.17000000E+01           0.84988080E+00
   0.17100000E+01           0.85491769E+00
   0.17200000E+01           0.85941484E+00
   0.17300000E+01           0.86439547E+00
   0.17400000E+01           0.86907902E+00
   0.17500000E+01           0.87424293E+00
   0.17600000E+01           0.87912853E+00
   0.17700000E+01           0.88443982E+00
   0.17800000E+01           0.88954258E+00
   0.17900000E+01           0.89450293E+00
   0.18000000E+01           0.89896356E+00
   0.18100000E+01           0.90430516E+00
   0.18200000E+01           0.90964213E+00
   0.18300000E+01           0.91549511E+00
   0.18400000E+01           0.91940436E+00
   0.18500000E+01           0.92387307E+00
   0.18600000E+01           0.92908480E+00
   0.18700000E+01           0.93429680E+00
   0.18800000E+01           0.93947956E+00
   0.18900000E+01           0.94410764E+00
   0.19000000E+01           0.94973724E+00
   0.19100000E+01           0.95458489E+00
   0.19200000E+01           0.95927396E+00
   0.19300000E+01           0.96467120E+00
   0.19400000E+01           0.96881991E+00
   0.19500000E+01           0.97437671E+00
   0.19600000E+01           0.97870836E+00
   0.19700000E+01           0.98415307E+00
   0.19800000E+01           0.98953351E+00
   0.19900000E+01           0.99460489E+00
   0.20000000E+01           0.49913778E+00
 #T=    23.0000
  -0.20000000E+01           0.00000000E+00
  -0.19900000E+01           0.00000000E+00
  -0.19800000E+01           0.00000000E+00
  -0.19700000E+01           0.00000000E+00
  -0.19600000E+01           0.00000000E+00
  -0.19500000E+01           0.00000000E+00
  -0.19400000E+01           0.00000000E+00
  -0.19300000E+01           0.00000000E+00
  -0.19200000E+01           0.00000000E+00
  -0.19100000E+01           0.00000000E+00
  -0.19000000E+01           0.00000000E+00
  -0.18900000E+01           0.00000000E+00
  -0.18800000E+01           0.00000000E+00
  -0.18700000E+01           0.00000000E+00
  -0.18600000E+01           0.00000000E+00
  -0.18500000E+01           0.00000000E+00
  -0.18400000E+01           0.00000000E+00
  -0.18300000E+01           0.00000000E+00
  -0.18200000E+01           0.00000000E+00
  -0.18100000E+01           0.00000000E+00
  -0.18000000E+01           0.00000000E+00
  -0.17900000E+01           0.00000000E+00
  -0.17800000E+01           0.00000000E+00
  -0.17700000E+01           0.00000000E+00
  -0.17600000E+01           0.00000000E+00
  -0.17500000E+01           0.00000000E+00
  -0.17400000E+01           0.00000000E+00
  -0.17300000E+01           0.00000000E+00
  -0.17200000E+01           0.00000000E+00
  -0.17100000E+01           0.00000000E+00
  -0.17000000E+01           0.00000000E+00
  -0.16900000E+01           0.00000000E+00
  -0.16800000E+01           0.00000000E+00
  -0.16700000E+01           0.00000000E+00
  -0.16600000E+01           0.00000000E+00
  -0.16500000E+01           0.00000000E+00
  -0.16400000E+01           0.00000000E+00
  -0.16300000E+01           0.00000000E+00
  -0.16200000E+01           0.00000000E+00
  -0.16100000E+01           0.00000000E+00
  -0.16000000E+01           0.00000000E+00
  -0.15900000E+01           0.00000000E+00
  -0.15800000E+01           0.00000000E+00
  -0.15700000E+01           0.00000000E+00
  -0.15600000E+01           0.00000000E+00
  -0.15500000E+01           0.00000000E+00
  -0.15400000E+01           0.00000000E+00
  -0.15300000E+01           0.00000000E+00
  -0.15200000E+01           0.00000000E+00
  -0.15100000E+01           0.00000000E+00
  -0.15000000E+01           0.00000000E+00
  -0.14900000E+01           0.00000000E+00
  -0.14800000E+01           0.00000000E+00
  -0.14700000E+01           0.00000000E+00
  -0.14600000E+01           0.00000000E+00
  -0.14500000E+01           0.00000000E+00
  -0.14400000E+01           0.00000000E+00
  -0.14300000E+01           0.00000000E+00
  -0.14200000E+01           0.00000000E+00
  -0.14100000E+01           0.00000000E+00
  -0.14000000E+01           0.00000000E+00
  -0.13900000E+01           0.00000000E+00
  -0.13800000E+01           0.00000000E+00
  -0.13700000E+01           0.00000000E+00
  -0.13600000E+01           0.00000000E+00
  -0.13500000E+01           0.00000000E+00
  -0.13400000E+01           0.00000000E+00
  -0.13300000E+01           0.00000000E+00
  -0.13200000E+01           0.00000000E+00
  -0.13100000E+01           0.00000000E+00
  -0.13000000E+01           0.00000000E+00
  -0.12900000E+01           0.00000000E+00
  -0.12800000E+01           0.00000000E+00
  -0.12700000E+01           0.00000000E+00
  -0.12600000E+01           0.00000000E+00
  -0.12500000E+01           0.00000000E+00
  -0.12400000E+01           0.00000000E+00
  -0.12300000E+01           0.00000000E+00
  -0.12200000E+01           0.00000000E+00
  -0.12100000E+01           0.00000000E+00
  -0.12000000E+01           0.00000000E+00
  -0.11900000E+01           0.00000000E+00
  -0.11800000E+01           0.00000000E+00
  -0.11700000E+01           0.00000000E+00
  -0.11600000E+01           0.00000000E+00
  -0.11500000E+01           0.00000000E+00
  -0.11400000E+01           0.00000000E+00
  -0.11300000E+01           0.00000000E+00
  -0.11200000E+01           0.00000000E+00
  -0.11100000E+01           0.00000000E+00
  -0.11000000E+01           0.00000000E+00
  -0.10900000E+01           0.00000000E+00
  -0.10800000E+01           0.00000000E+00
  -0.10700000E+01           0.00000000E+00
  -0.10600000E+01           0.00000000E+00
  -0.10500000E+01           0.00000000E+00
  -0.10400000E+01           0.00000000E+00
  -0.10300000E+01           0.00000000E+00
  -0.10200000E+01           0.00000000E+00
  -0.10100000E+01           0.00000000E+00
  -0.10000000E+01           0.00000000E+00
  -0.99000000E+00           0.00000000E+00
  -0.98000000E+00           0.00000000E+00
  -0.97000000E+00           0.00000000E+00
  -0.96000000E+00           0.00000000E+00
  -0.95000000E+00           0.00000000E+00
  -0.94000000E+00           0.00000000E+00
  -0.93000000E+00           0.00000000E+00
  -0.92000000E+00           0.00000000E+00
  -0.91000000E+00           0.00000000E+00
  -0.90000000E+00           0.00000000E+00
  -0.89000000E+00           0.00000000E+00
  -0.88000000E+00           0.00000000E+00
  -0.87000000E+00           0.00000000E+00
  -0.86000000E+00           0.00000000E+00
  -0.85000000E+00           0.00000000E+00
  -0.84000000E+00           0.00000000E+00
  -0.83000000E+00           0.00000000E+00
  -0.82000000E+00           0.00000000E+00
  -0.81000000E+00           0.00000000E+00
  -0.80000000E+00           0.00000000E+00
  -0.79000000E+00           0.00000000E+00
  -0.78000000E+00           0.00000000E+00
  -0.77000000E+00           0.00000000E+00
  -0.76000000E+00           0.00000000E+00
  -0.75000000E+00           0.00000000E+00
  -0.74000000E+00           0.00000000E+00
  -0.73000000E+00           0.00000000E+00
  -0.72000000E+00           0.00000000E+00
  -0.71000000E+00           0.00000000E+00
  -0.70000000E+00           0.00000000E+00
  -0.69000000E+00           0.00000000E+00
  -0.68000000E+00           0.00000000E+00
  -0.67000000E+00           0.00000000E+00
  -0.66000000E+00           0.00000000E+00
  -0.65000000E+00           0.00000000E+00
  -0.64000000E+00           0.00000000E+00
  -0.63000000E+00           0.00000000E+00
  -0.62000000E+00           0.00000000E+00
  -0.61000000E+00           0.00000000E+00
  -0.60000000E+00           0.00000000E+00
  -0.59000000E+00           0.00000000E+00
  -0.58000000E+00           0.00000000E+00
  -0.57000000E+00           0.00000000E+00
  -0.56000000E+00           0.00000000E+00
  -0.55000000E+00           0.00000000E+00
  -0.54000000E+00           0.00000000E+00
  -0.53000000E+00           0.00000000E+00
  -0.52000000E+00           0.00000000E+00
  -0.51000000E+00           0.00000000E+00
  -0.50000000E+00           0.00000000E+00
  -0.49000000E+00           0.00000000E+00
  -0.48000000E+00           0.00000000E+00
  -0.47000000E+00           0.00000000E+00
  -0.46000000E+00           0.00000000E+00
  -0.45000000E+00           0.00000000E+00
  -0.44000000E+00           0.00000000E+00
  -0.43000000E+00           0.00000000E+00
  -0.42000000E+00           0.00000000E+00
  -0.41000000E+00           0.00000000E+00
  -0.40000000E+00           0.00000000E+00
  -0.39000000E+00           0.00000000E+00
  -0.38000000E+00           0.00000000E+00
  -0.37000000E+00           0.00000000E+00
  -0.36000000E+00           0.00000000E+00
  -0.35000000E+00           0.00000000E+00
  -0.34000000E+00           0.00000000E+00
  -0.33000000E+00           0.00000000E+00
  -0.32000000E+00           0.00000000E+00
  -0.31000000E+00           0.00000000E+00
  -0.30000000E+00           0.00000000E+00
  -0.29000000E+00           0.00000000E+00
  -0.28000000E+00           0.00000000E+00
  -0.27000000E+00           0.00000000E+00
  -0.26000000E+00           0.00000000E+00
  -0.25000000E+00           0.00000000E+00
  -0.24000000E+00           0.00000000E+00
  -0.23000000E+00           0.00000000E+00
  -0.22000000E+00           0.00000000E+00
  -0.21000000E+00           0.00000000E+00
  -0.20000000E+00           0.00000000E+00
  -0.19000000E+00           0.00000000E+00
  -0.18000000E+00           0.00000000E+00
  -0.17000000E+00           0.00000000E+00
  -0.16000000E+00           0.00000000E+00
  -0.15000000E+00           0.00000000E+00
  -0.14000000E+00           0.00000000E+00
  -0.13000000E+00           0.00000000E+00
  -0.12000000E+00           0.00000000E+00
  -0.11000000E+00           0.00000000E+00
  -0.10000000E+00           0.00000000E+00
  -0.90000000E-01           0.00000000E+00
  -0.80000000E-01           0.00000000E+00
  -0.70000000E-01           0.00000000E+00
  -0.60000000E-01           0.00000000E+00
  -0.50000000E-01           0.00000000E+00
  -0.40000000E-01           0.00000000E+00
  -0.30000000E-01           0.00000000E+00
  -0.20000000E-01           0.00000000E+00
  -0.10000000E-01           0.00000000E+00
   0.00000000E+00           0.61013333E-03
   0.10000000E-01           0.49965333E-02
   0.20000000E-01           0.99312000E-02
   0.30000000E-01           0.14934667E-01
   0.40000000E-01           0.19832089E-01
   0.50000000E-01           0.24963200E-01
   0.60000000E-01           0.29977600E-01
   0.70000000E-01           0.34769422E-01
   0.80000000E-01           0.39855022E-01
   0.90000000E-01           0.44895733E-01
   0.10000000E+00           0.49791556E-01
   0.11000000E+00           0.54791289E-01
   0.12000000E+00           0.59911556E-01
   0.13000000E+00           0.64862044E-01
   0.14000000E+00           0.70025867E-01
   0.15000000E+00           0.74821778E-01
   0.16000000E+00           0.79721333E-01
   0.17000000E+00           0.84869600E-01
   0.18000000E+00           0.89758844E-01
   0.19000000E+00           0.94734578E-01
   0.20000000E+00           0.99787911E-01
   0.21000000E+00           0.10478880E+00
   0.22000000E+00           0.10977538E+00
   0.23000000E+00           0.11470640E+00
   0.24000000E+00           0.11979671E+00
   0.25000000E+00           0.12496738E+00
   0.26000000E+00           0.12996382E+00
   0.27000000E+00           0.13469218E+00
   0.28000000E+00           0.13973289E+00
   0.29000000E+00           0.14497227E+00
   0.30000000E+00           0.14979831E+00
   0.31000000E+00           0.15461778E+00
   0.32000000E+00           0.15984204E+00
   0.33000000E+00           0.16463102E+00
   0.34000000E+00           0.16941662E+00
   0.35000000E+00           0.17479920E+00
   0.36000000E+00           0.17953360E+00
   0.37000000E+00           0.18467964E+00
   0.38000000E+00           0.18980498E+00
   0.39000000E+00           0.19462818E+00
   0.40000000E+00           0.19939298E+00
   0.41000000E+00           0.20461964E+00
   0.42000000E+00           0.20950933E+00
   0.43000000E+00           0.21490702E+00
   0.44000000E+00           0.21978800E+00
   0.45000000E+00           0.22436711E+00
   0.46000000E+00           0.22945689E+00
   0.47000000E+00           0.23457787E+00
   0.48000000E+00           0.23970480E+00
   0.49000000E+00           0.24485316E+00
   0.50000000E+00           0.24932720E+00
   0.51000000E+00           0.25451689E+00
   0.52000000E+00           0.25947271E+00
   0.53000000E+00           0.26473680E+00
   0.54000000E+00           0.26961893E+00
   0.55000000E+00           0.27422524E+00
   0.56000000E+00           0.27929067E+00
   0.57000000E+00           0.28426018E+00
   0.58000000E+00           0.28935573E+00
   0.59000000E+00           0.29462089E+00
   0.60000000E+00           0.29937049E+00
   0.61000000E+00           0.30444124E+00
   0.62000000E+00           0.30940036E+00
   0.63000000E+00           0.31431316E+00
   0.64000000E+00           0.31939929E+00
   0.65000000E+00           0.32424204E+00
   0.66000000E+00           0.32931982E+00
   0.67000000E+00           0.33439813E+00
   0.68000000E+00           0.33934933E+00
   0.69000000E+00           0.34416133E+00
   0.70000000E+00           0.34923520E+00
   0.71000000E+00           0.35441289E+00
   0.72000000E+00           0.35920551E+00
   0.73000000E+00           0.36479307E+00
   0.74000000E+00           0.36951751E+00
   0.75000000E+00           0.37469227E+00
   0.76000000E+00           0.37927413E+00
   0.77000000E+00           0.38434071E+00
   0.78000000E+00           0.38916996E+00
   0.79000000E+00           0.39444036E+00
   0.80000000E+00           0.39950249E+00
   0.81000000E+00           0.40457716E+00
   0.82000000E+00           0.40909404E+00
   0.83000000E+00           0.41436587E+00
   0.84000000E+00           0.41946773E+00
   0.85000000E+00           0.42463369E+00
   0.86000000E+00           0.42974178E+00
   0.87000000E+00           0.43428622E+00
   0.88000000E+00           0.43955484E+00
   0.89000000E+00           0.44454338E+00
   0.90000000E+00           0.44995547E+00
   0.91000000E+00           0.45453484E+00
   0.92000000E+00           0.45898418E+00
   0.93000000E+00           0.46484480E+00
   0.94000000E+00           0.46958124E+00
   0.95000000E+00           0.47447227E+00
   0.96000000E+00           0.47954711E+00
   0.97000000E+00           0.48480009E+00
   0.98000000E+00           0.48941422E+00
   0.99000000E+00           0.49473662E+00
   0.10000000E+01           0.49991707E+00
   0.10100000E+01           0.50475982E+00
   0.10200000E+01           0.50919538E+00
   0.10300000E+01           0.51400462E+00
   0.10400000E+01           0.51952293E+00
   0.10500000E+01           0.52454676E+00
   0.10600000E+01           0.52931591E+00
   0.10700000E+01           0.53401716E+00
   0.10800000E+01           0.53966560E+00
   0.10900000E+01           0.54485831E+00
   0.11000000E+01           0.54915796E+00
   0.11100000E+01           0.55445076E+00
   0.11200000E+01           0.55956329E+00
   0.11300000E+01           0.56493831E+00
   0.11400000E+01           0.56956542E+00
   0.11500000E+01           0.57470302E+00
   0.11600000E+01           0.57969813E+00
   0.11700000E+01           0.58497351E+00
   0.11800000E+01           0.58974782E+00
   0.11900000E+01           0.59470036E+00
   0.12000000E+01           0.59987253E+00
   0.12100000E+01           0.60439173E+00
   0.12200000E+01           0.61055396E+00
   0.12300000E+01           0.61530560E+00
   0.12400000E+01           0.61987413E+00
   0.12500000E+01           0.62437502E+00
   0.12600000E+01           0.63027716E+00
   0.12700000E+01           0.63467787E+00
   0.12800000E+01           0.64020027E+00
   0.12900000E+01           0.64468507E+00
   0.13000000E+01           0.64972222E+00
   0.13100000E+01           0.65484356E+00
   0.13200000E+01           0.65955111E+00
   0.13300000E+01           0.66483867E+00
   0.13400000E+01           0.66992747E+00
   0.13500000E+01           0.67485520E+00
   0.13600000E+01           0.67971289E+00
   0.13700000E+01           0.68560756E+00
   0.13800000E+01           0.68951173E+00
   0.13900000E+01           0.69515742E+00
   0.14000000E+01           0.69959831E+00
   0.14100000E+01           0.70459262E+00
   0.14200000E+01           0.70995422E+00
   0.14300000E+01           0.71544987E+00
   0.14400000E+01           0.72017031E+00
   0.14500000E+01           0.72515271E+00
   0.14600000E+01           0.72987173E+00
   0.14700000E+01           0.73509378E+00
   0.14800000E+01           0.73988853E+00
   0.14900000E+01           0.74490889E+00
   0.15000000E+01           0.75054098E+00
   0.15100000E+01           0.75534178E+00
   0.15200000E+01           0.76008773E+00
   0.15300000E+01           0.76535991E+00
   0.15400000E+01           0.77029991E+00
   0.15500000E+01           0.77511129E+00
   0.15600000E+01           0.78109938E+00
   0.15700000E+01           0.78543538E+00
   0.15800000E+01           0.79024551E+00
   0.15900000E+01           0.79525173E+00
   0.16000000E+01           0.80032898E+00
   0.16100000E+01           0.80586302E+00
   0.16200000E+01           0.81053280E+00
   0.16300000E+01           0.81572747E+00
   0.16400000E+01           0.82005609E+00
   0.16500000E+01           0.82496151E+00
   0.16600000E+01           0.83081716E+00
   0.16700000E+01           0.83546018E+00
   0.16800000E+01           0.84055138E+00
   0.16900000E+01           0.84572151E+00
   0.17000000E+01           0.85078124E+00
   0.17100000E+01           0.85580969E+00
   0.17200000E+01           0.86127884E+00
   0.17300000E+01           0.86573102E+00
   0.17400000E+01           0.87114400E+00
   0.17500000E+01           0.87624596E+00
   0.17600000E+01           0.88049369E+00
   0.17700000E+01           0.88628693E+00
   0.17800000E+01           0.89068978E+00
   0.17900000E+01           0.89614249E+00
   0.18000000E+01           0.90115262E+00
   0.18100000E+01           0.90612480E+00
   0.18200000E+01           0.91146951E+00
   0.18300000E+01           0.91669911E+00
   0.18400000E+01           0.92121396E+00
   0.18500000E+01           0.92614338E+00
   0.18600000E+01           0.93199431E+00
   0.18700000E+01           0.93688960E+00
   0.18800000E+01           0.94166204E+00
   0.18900000E+01           0.94716293E+00
   0.19000000E+01           0.95092356E+00
   0.19100000E+01           0.95635947E+00
   0.19200000E+01           0.96183707E+00
   0.19300000E+01           0.96641724E+00
   0.19400000E+01           0.97136916E+00
   0.19500000E+01           0.97633138E+00
   0.19600000E+01           0.98144631E+00
   0.19700000E+01           0.98673573E+00
   0.19800000E+01           0.99185804E+00
   0.19900000E+01           0.99686836E+00
   0.20000000E+01           0.50031378E+00
 #T=    24.0000
  -0.20000000E+01           0.00000000E+00
  -0.19900000E+01           0.00000000E+00
  -0.19800000E+01           0.00000000E+00
  -0.19700000E+01           0.00000000E+00
  -0.19600000E+01           0.00000000E+00
  -0.19500000E+01           0.00000000E+00
  -0.19400000E+01           0.00000000E+00
  -0.19300000E+01           0.00000000E+00
  -0.19200000E+01           0.00000000E+00
  -0.19100000E+01           0.00000000E+00
  -0.19000000E+01           0.00000000E+00
  -0.18900000E+01           0.00000000E+00
  -0.18800000E+01           0.00000000E+00
  -0.18700000E+01           0.00000000E+00
  -0.18600000E+01           0.00000000E+00
  -0.18500000E+01           0.00000000E+00
  -0.18400000E+01           0.00000000E+00
  -0.18300000E+01           0.00000000E+00
  -0.18200000E+01           0.00000000E+00
  -0.18100000E+01           0.00000000E+00
  -0.18000000E+01           0.00000000E+00
  -0.17900000E+01           0.00000000E+00
  -0.17800000E+01           0.00000000E+00
  -0.17700000E+01           0.00000000E+00
  -0.17600000E+01           0.00000000E+00
  -0.17500000E+01           0.00000000E+00
  -0.17400000E+01           0.00000000E+00
  -0.17300000E+01           0.00000000E+00
  -0.17200000E+01           0.00000000E+00
  -0.17100000E+01           0.00000000E+00
  -0.17000000E+01           0.00000000E+00
  -0.16900000E+01           0.00000000E+00
  -0.16800000E+01           0.00000000E+00
  -0.16700000E+01           0.00000000E+00
  -0.16600000E+01           0.00000000E+00
  -0.16500000E+01           0.00000000E+00
  -0.16400000E+01           0.00000000E+00
  -0.16300000E+01           0.00000000E+00
  -0.16200000E+01           0.00000000E+00
  -0.16100000E+01           0.00000000E+00
  -0.16000000E+01           0.00000000E+00
  -0.15900000E+01           0.00000000E+00
  -0.15800000E+01           0.00000000E+00
  -0.15700000E+01           0.00000000E+00
  -0.15600000E+01           0.00000000E+00
  -0.15500000E+01           0.00000000E+00
  -0.15400000E+01           0.00000000E+00
  -0.15300000E+01           0.00000000E+00
  -0.15200000E+01           0.00000000E+00
  -0.15100000E+01           0.00000000E+00
  -0.15000000E+01           0.00000000E+00
  -0.14900000E+01           0.00000000E+00
  -0.14800000E+01           0.00000000E+00
  -0.14700000E+01           0.00000000E+00
  -0.14600000E+01           0.00000000E+00
  -0.14500000E+01           0.00000000E+00
  -0.14400000E+01           0.00000000E+00
  -0.14300000E+01           0.00000000E+00
  -0.14200000E+01           0.00000000E+00
  -0.14100000E+01           0.00000000E+00
  -0.14000000E+01           0.00000000E+00
  -0.13900000E+01           0.00000000E+00
  -0.13800000E+01           0.00000000E+00
  -0.13700000E+01           0.00000000E+00
  -0.13600000E+01           0.00000000E+00
  -0.13500000E+01           0.00000000E+00
  -0.13400000E+01           0.00000000E+00
  -0.13300000E+01           0.00000000E+00
  -0.13200000E+01           0.00000000E+00
  -0.13100000E+01           0.00000000E+00
  -0.13000000E+01           0.00000000E+00
  -0.12900000E+01           0.00000000E+00
  -0.12800000E+01           0.00000000E+00
  -0.12700000E+01           0.00000000E+00
  -0.12600000E+01           0.00000000E+00
  -0.12500000E+01           0.00000000E+00
  -0.12400000E+01           0.00000000E+00
  -0.12300000E+01           0.00000000E+00
  -0.12200000E+01           0.00000000E+00
  -0.12100000E+01           0.00000000E+00
  -0.12000000E+01           0.00000000E+00
  -0.11900000E+01           0.00000000E+00
  -0.11800000E+01           0.00000000E+00
  -0.11700000E+01           0.00000000E+00
  -0.11600000E+01           0.00000000E+00
  -0.11500000E+01           0.00000000E+00
  -0.11400000E+01           0.00000000E+00
  -0.11300000E+01           0.00000000E+00
  -0.11200000E+01           0.00000000E+00
  -0.11100000E+01           0.00000000E+00
  -0.11000000E+01           0.00000000E+00
  -0.10900000E+01           0.00000000E+00
  -0.10800000E+01           0.00000000E+00
  -0.10700000E+01           0.00000000E+00
  -0.10600000E+01           0.00000000E+00
  -0.10500000E+01           0.00000000E+00
  -0.10400000E+01           0.00000000E+00
  -0.10300000E+01           0.00000000E+00
  -0.10200000E+01           0.00000000E+00
  -0.10100000E+01           0.00000000E+00
  -0.10000000E+01           0.00000000E+00
  -0.99000000E+00           0.00000000E+00
  -0.98000000E+00           0.00000000E+00
  -0.97000000E+00           0.00000000E+00
  -0.96000000E+00           0.00000000E+00
  -0.95000000E+00           0.00000000E+00
  -0.94000000E+00           0.00000000E+00
  -0.93000000E+00           0.00000000E+00
  -0.92000000E+00           0.00000000E+00
  -0.91000000E+00           0.00000000E+00
  -0.90000000E+00           0.00000000E+00
  -0.89000000E+00           0.00000000E+00
  -0.88000000E+00           0.00000000E+00
  -0.87000000E+00           0.00000000E+00
  -0.86000000E+00           0.00000000E+00
  -0.85000000E+00           0.00000000E+00
  -0.84000000E+00           0.00000000E+00
  -0.83000000E+00           0.00000000E+00
  -0.82000000E+00           0.00000000E+00
  -0.81000000E+00           0.00000000E+00
  -0.80000000E+00           0.00000000E+00
  -0.79000000E+00           0.00000000E+00
  -0.78000000E+00           0.00000000E+00
  -0.77000000E+00           0.00000000E+00
  -0.76000000E+00           0.00000000E+00
  -0.75000000E+00           0.00000000E+00
  -0.74000000E+00           0.00000000E+00
  -0.73000000E+00           0.00000000E+00
  -0.72000000E+00           0.00000000E+00
  -0.71000000E+00           0.00000000E+00
  -0.70000000E+00           0.00000000E+00
  -0.69000000E+00           0.00000000E+00
  -0.68000000E+00           0.00000000E+00
  -0.67000000E+00           0.00000000E+00
  -0.66000000E+00           0.00000000E+00
  -0.65000000E+00           0.00000000E+00
  -0.64000000E+00           0.00000000E+00
  -0.63000000E+00           0.00000000E+00
  -0.62000000E+00           0.00000000E+00
  -0.61000000E+00           0.00000000E+00
  -0.60000000E+00           0.00000000E+00
  -0.59000000E+00           0.00000000E+00
  -0.58000000E+00           0.00000000E+00
  -0.57000000E+00           0.00000000E+00
  -0.56000000E+00           0.00000000E+00
  -0.55000000E+00           0.00000000E+00
  -0.54000000E+00           0.00000000E+00
  -0.53000000E+00           0.00000000E+00
  -0.52000000E+00           0.00000000E+00
  -0.51000000E+00           0.00000000E+00
  -0.50000000E+00           0.00000000E+00
  -0.49000000E+00           0.00000000E+00
  -0.48000000E+00           0.00000000E+00
  -0.47000000E+00           0.00000000E+00
  -0.46000000E+00           0.00000000E+00
  -0.45000000E+00           0.00000000E+00
  -0.44000000E+00           0.00000000E+00
  -0.43000000E+00           0.00000000E+00
  -0.42000000E+00           0.00000000E+00
  -0.41000000E+00           0.00000000E+00
  -0.40000000E+00           0.00000000E+00
  -0.39000000E+00           0.00000000E+00
  -0.38000000E+00           0.00000000E+00
  -0.37000000E+00           0.00000000E+00
  -0.36000000E+00           0.00000000E+00
  -0.35000000E+00           0.00000000E+00
  -0.34000000E+00           0.00000000E+00
  -0.33000000E+00           0.00000000E+00
  -0.32000000E+00           0.00000000E+00
  -0.31000000E+00           0.00000000E+00
  -0.30000000E+00           0.00000000E+00
  -0.29000000E+00           0.00000000E+00
  -0.28000000E+00           0.00000000E+00
  -0.27000000E+00           0.00000000E+00
  -0.26000000E+00           0.00000000E+00
  -0.25000000E+00           0.00000000E+00
  -0.24000000E+00           0.00000000E+00
  -0.23000000E+00           0.00000000E+00
  -0.22000000E+00           0.00000000E+00
  -0.21000000E+00           0.00000000E+00
  -0.20000000E+00           0.00000000E+00
  -0.19000000E+00           0.00000000E+00
  -0.18000000E+00           0.00000000E+00
  -0.17000000E+00           0.00000000E+00
  -0.16000000E+00           0.00000000E+00
  -0.15000000E+00           0.00000000E+00
  -0.14000000E+00           0.00000000E+00
  -0.13000000E+00           0.00000000E+00
  -0.12000000E+00           0.00000000E+00
  -0.11000000E+00           0.00000000E+00
  -0.10000000E+00           0.00000000E+00
  -0.90000000E-01           0.00000000E+00
  -0.80000000E-01           0.00000000E+00
  -0.70000000E-01           0.00000000E+00
  -0.60000000E-01           0.00000000E+00
  -0.50000000E-01           0.00000000E+00
  -0.40000000E-01           0.00000000E+00
  -0.30000000E-01           0.00000000E+00
  -0.20000000E-01           0.00000000E+00
  -0.10000000E-01           0.00000000E+00
   0.00000000E+00           0.62302222E-03
   0.10000000E-01           0.49653333E-02
   0.20000000E-01           0.10004356E-01
   0.30000000E-01           0.14984978E-01
   0.40000000E-01           0.19871733E-01
   0.50000000E-01           0.24979467E-01
   0.60000000E-01           0.29950311E-01
   0.70000000E-01           0.34784089E-01
   0.80000000E-01           0.39886844E-01
   0.90000000E-01           0.44995911E-01
   0.10000000E+00           0.50082311E-01
   0.11000000E+00           0.54940711E-01
   0.12000000E+00           0.59772000E-01
   0.13000000E+00           0.64941333E-01
   0.14000000E+00           0.69957333E-01
   0.15000000E+00           0.74754844E-01
   0.16000000E+00           0.79832089E-01
   0.17000000E+00           0.84969600E-01
   0.18000000E+00           0.89868978E-01
   0.19000000E+00           0.94887556E-01
   0.20000000E+00           0.99948711E-01
   0.21000000E+00           0.10494942E+00
   0.22000000E+00           0.10973627E+00
   0.23000000E+00           0.11469813E+00
   0.24000000E+00           0.11972747E+00
   0.25000000E+00           0.12467671E+00
   0.26000000E+00           0.12985129E+00
   0.27000000E+00           0.13467627E+00
   0.28000000E+00           0.13994738E+00
   0.29000000E+00           0.14474747E+00
   0.30000000E+00           0.15001689E+00
   0.31000000E+00           0.15483022E+00
   0.32000000E+00           0.15970889E+00
   0.33000000E+00           0.16457867E+00
   0.34000000E+00           0.16981476E+00
   0.35000000E+00           0.17493733E+00
   0.36000000E+00           0.17960800E+00
   0.37000000E+00           0.18456133E+00
   0.38000000E+00           0.18957609E+00
   0.39000000E+00           0.19457653E+00
   0.40000000E+00           0.19983689E+00
   0.41000000E+00           0.20458169E+00
   0.42000000E+00           0.20992276E+00
   0.43000000E+00           0.21472693E+00
   0.44000000E+00           0.21978018E+00
   0.45000000E+00           0.22455387E+00
   0.46000000E+00           0.22963387E+00
   0.47000000E+00           0.23467067E+00
   0.48000000E+00           0.23972773E+00
   0.49000000E+00           0.24457573E+00
   0.50000000E+00           0.24947280E+00
   0.51000000E+00           0.25466729E+00
   0.52000000E+00           0.25944836E+00
   0.53000000E+00           0.26431600E+00
   0.54000000E+00           0.26943102E+00
   0.55000000E+00           0.27440178E+00
   0.56000000E+00           0.27958409E+00
   0.57000000E+00           0.28442622E+00
   0.58000000E+00           0.28963484E+00
   0.59000000E+00           0.29461093E+00
   0.60000000E+00           0.29915849E+00
   0.61000000E+00           0.30485511E+00
   0.62000000E+00           0.30931564E+00
   0.63000000E+00           0.31422284E+00
   0.64000000E+00           0.31928364E+00
   0.65000000E+00           0.32430782E+00
   0.66000000E+00           0.32984204E+00
   0.67000000E+00           0.33447244E+00
   0.68000000E+00           0.33972578E+00
   0.69000000E+00           0.34439707E+00
   0.70000000E+00           0.34936560E+00
   0.71000000E+00           0.35418684E+00
   0.72000000E+00           0.35949742E+00
   0.73000000E+00           0.36475049E+00
   0.74000000E+00           0.36926436E+00
   0.75000000E+00           0.37442178E+00
   0.76000000E+00           0.37952960E+00
   0.77000000E+00           0.38459991E+00
   0.78000000E+00           0.38898169E+00
   0.79000000E+00           0.39463147E+00
   0.80000000E+00           0.39931591E+00
   0.81000000E+00           0.40423716E+00
   0.82000000E+00           0.40940649E+00
   0.83000000E+00           0.41401689E+00
   0.84000000E+00           0.41977369E+00
   0.85000000E+00           0.42433156E+00
   0.86000000E+00           0.42959227E+00
   0.87000000E+00           0.43402916E+00
   0.88000000E+00           0.43947120E+00
   0.89000000E+00           0.44398782E+00
   0.90000000E+00           0.44912649E+00
   0.91000000E+00           0.45464151E+00
   0.92000000E+00           0.45928391E+00
   0.93000000E+00           0.46435991E+00
   0.94000000E+00           0.46933467E+00
   0.95000000E+00           0.47474907E+00
   0.96000000E+00           0.47934027E+00
   0.97000000E+00           0.48454720E+00
   0.98000000E+00           0.48988231E+00
   0.99000000E+00           0.49412604E+00
   0.10000000E+01           0.49957991E+00
   0.10100000E+01           0.50409591E+00
   0.10200000E+01           0.50913600E+00
   0.10300000E+01           0.51446320E+00
   0.10400000E+01           0.51909804E+00
   0.10500000E+01           0.52455573E+00
   0.10600000E+01           0.52919778E+00
   0.10700000E+01           0.53447191E+00
   0.10800000E+01           0.53979813E+00
   0.10900000E+01           0.54440613E+00
   0.11000000E+01           0.54989787E+00
   0.11100000E+01           0.55422436E+00
   0.11200000E+01           0.55912453E+00
   0.11300000E+01           0.56465342E+00
   0.11400000E+01           0.56989653E+00
   0.11500000E+01           0.57448551E+00
   0.11600000E+01           0.57898996E+00
   0.11700000E+01           0.58453244E+00
   0.11800000E+01           0.58929476E+00
   0.11900000E+01           0.59480302E+00
   0.12000000E+01           0.59967680E+00
   0.12100000E+01           0.60408827E+00
   0.12200000E+01           0.60928596E+00
   0.12300000E+01           0.61507324E+00
   0.12400000E+01           0.61915404E+00
   0.12500000E+01           0.62455440E+00
   0.12600000E+01           0.62933164E+00
   0.12700000E+01           0.63424089E+00
   0.12800000E+01           0.63952747E+00
   0.12900000E+01           0.64477938E+00
   0.13000000E+01           0.64956667E+00
   0.13100000E+01           0.65525911E+00
   0.13200000E+01           0.65938329E+00
   0.13300000E+01           0.66430622E+00
   0.13400000E+01           0.66976489E+00
   0.13500000E+01           0.67489440E+00
   0.13600000E+01           0.67984080E+00
   0.13700000E+01           0.68488249E+00
   0.13800000E+01           0.69002169E+00
   0.13900000E+01           0.69499369E+00
   0.14000000E+01           0.70005760E+00
   0.14100000E+01           0.70529538E+00
   0.14200000E+01           0.70946738E+00
   0.14300000E+01           0.71487129E+00
   0.14400000E+01           0.71960027E+00
   0.14500000E+01           0.72521964E+00
   0.14600000E+01           0.73042489E+00
   0.14700000E+01           0.73479947E+00
   0.14800000E+01           0.74026373E+00
   0.14900000E+01           0.74557778E+00
   0.15000000E+01           0.75048880E+00
   0.15100000E+01           0.75583324E+00
   0.15200000E+01           0.76080667E+00
   0.15300000E+01           0.76506382E+00
   0.15400000E+01           0.77091156E+00
   0.15500000E+01           0.77486480E+00
   0.15600000E+01           0.78003076E+00
   0.15700000E+01           0.78536133E+00
   0.15800000E+01           0.79038053E+00
   0.15900000E+01           0.79537867E+00
   0.16000000E+01           0.80039600E+00
   0.16100000E+01           0.80551698E+00
   0.16200000E+01           0.81108400E+00
   0.16300000E+01           0.81527280E+00
   0.16400000E+01           0.82023884E+00
   0.16500000E+01           0.82539582E+00
   0.16600000E+01           0.83126889E+00
   0.16700000E+01           0.83571502E+00
   0.16800000E+01           0.84030711E+00
   0.16900000E+01           0.84607262E+00
   0.17000000E+01           0.85041796E+00
   0.17100000E+01           0.85601369E+00
   0.17200000E+01           0.86079600E+00
   0.17300000E+01           0.86637547E+00
   0.17400000E+01           0.87039689E+00
   0.17500000E+01           0.87603396E+00
   0.17600000E+01           0.88162489E+00
   0.17700000E+01           0.88624436E+00
   0.17800000E+01           0.89120533E+00
   0.17900000E+01           0.89680898E+00
   0.18000000E+01           0.90076684E+00
   0.18100000E+01           0.90642836E+00
   0.18200000E+01           0.91121760E+00
   0.18300000E+01           0.91590969E+00
   0.18400000E+01           0.92228498E+00
   0.18500000E+01           0.92622453E+00
   0.18600000E+01           0.93105573E+00
   0.18700000E+01           0.93666080E+00
   0.18800000E+01           0.94237689E+00
   0.18900000E+01           0.94652551E+00
   0.19000000E+01           0.95171120E+00
   0.19100000E+01           0.95738373E+00
   0.19200000E+01           0.96199396E+00
   0.19300000E+01           0.96752258E+00
   0.19400000E+01           0.97123102E+00
   0.19500000E+01           0.97649689E+00
   0.19600000E+01           0.98231147E+00
   0.19700000E+01           0.98671351E+00
   0.19800000E+01           0.99170036E+00
   0.19900000E+01           0.99704133E+00
   0.20000000E+01           0.50064151E+00
 #T=    25.0000
  -0.20000000E+01           0.00000000E+00
  -0.19900000E+01           0.00000000E+00
  -0.19800000E+01           0.00000000E+00
  -0.19700000E+01           0.00000000E+00
  -0.19600000E+01           0.00000000E+00
  -0.19500000E+01           0.00000000E+00
  -0.19400000E+01           0.00000000E+00
  -0.19300000E+01           0.00000000E+00
  -0.19200000E+01           0.00000000E+00
  -0.19100000E+01           0.00000000E+00
  -0.19000000E+01           0.00000000E+00
  -0.18900000E+01           0.00000000E+00
  -0.18800000E+01           0.00000000E+00
  -0.18700000E+01           0.00000000E+00
  -0.18600000E+01           0.00000000E+00
  -0.18500000E+01           0.00000000E+00
  -0.18400000E+01           0.00000000E+00
  -0.18300000E+01           0.00000000E+00
  -0.18200000E+01           0.00000000E+00
  -0.18100000E+01           0.00000000E+00
  -0.18000000E+01           0.00000000E+00
  -0.17900000E+01           0.00000000E+00
  -0.17800000E+01           0.00000000E+00
  -0.17700000E+01           0.00000000E+00
  -0.17600000E+01           0.00000000E+00
  -0.17500000E+01           0.00000000E+00
  -0.17400000E+01           0.00000000E+00
  -0.17300000E+01           0.00000000E+00
  -0.17200000E+01           0.00000000E+00
  -0.17100000E+01           0.00000000E+00
  -0.17000000E+01           0.00000000E+00
  -0.16900000E+01           0.00000000E+00
  -0.16800000E+01           0.00000000E+00
  -0.16700000E+01           0.00000000E+00
  -0.16600000E+01           0.00000000E+00
  -0.16500000E+01           0.00000000E+00
  -0.16400000E+01           0.00000000E+00
  -0.16300000E+01           0.00000000E+00
  -0.16200000E+01           0.00000000E+00
  -0.16100000E+01           0.00000000E+00
  -0.16000000E+01           0.00000000E+00
  -0.15900000E+01           0.00000000E+00
  -0.15800000E+01           0.00000000E+00
  -0.15700000E+01           0.00000000E+00
  -0.15600000E+01           0.00000000E+00
  -0.15500000E+01           0.00000000E+00
  -0.15400000E+01           0.00000000E+00
  -0.15300000E+01           0.00000000E+00
  -0.15200000E+01           0.00000000E+00
  -0.15100000E+01           0.00000000E+00
  -0.15000000E+01           0.00000000E+00
  -0.14900000E+01           0.00000000E+00
  -0.14800000E+01           0.00000000E+00
  -0.14700000E+01           0.00000000E+00
  -0.14600000E+01           0.00000000E+00
  -0.14500000E+01           0.00000000E+00
  -0.14400000E+01           0.00000000E+00
  -0.14300000E+01           0.00000000E+00
  -0.14200000E+01           0.00000000E+00
  -0.14100000E+01           0.00000000E+00
  -0.14000000E+01           0.00000000E+00
  -0.13900000E+01           0.00000000E+00
  -0.13800000E+01           0.00000000E+00
  -0.13700000E+01           0.00000000E+00
  -0.13600000E+01           0.00000000E+00
  -0.13500000E+01           0.00000000E+00
  -0.13400000E+01           0.00000000E+00
  -0.13300000E+01           0.00000000E+00
  -0.13200000E+01           0.00000000E+00
  -0.13100000E+01           0.00000000E+00
  -0.13000000E+01           0.00000000E+00
  -0.12900000E+01           0.00000000E+00
  -0.12800000E+01           0.00000000E+00
  -0.12700000E+01           0.00000000E+00
  -0.12600000E+01           0.00000000E+00
  -0.12500000E+01           0.00000000E+00
  -0.12400000E+01           0.00000000E+00
  -0.12300000E+01           0.00000000E+00
  -0.12200000E+01           0.00000000E+00
  -0.12100000E+01           0.00000000E+00
  -0.12000000E+01           0.00000000E+00
  -0.11900000E+01           0.00000000E+00
  -0.11800000E+01           0.00000000E+00
  -0.11700000E+01           0.00000000E+00
  -0.11600000E+01           0.00000000E+00
  -0.11500000E+01           0.00000000E+00
  -0.11400000E+01           0.00000000E+00
  -0.11300000E+01           0.00000000E+00
  -0.11200000E+01           0.00000000E+00
  -0.11100000E+01           0.00000000E+00
  -0.11000000E+01           0.00000000E+00
  -0.10900000E+01           0.00000000E+00
  -0.10800000E+01           0.00000000E+00
  -0.10700000E+01           0.00000000E+00
  -0.10600000E+01           0.00000000E+00
  -0.10500000E+01           0.00000000E+00
  -0.10400000E+01           0.00000000E+00
  -0.10300000E+01           0.00000000E+00
  -0.10200000E+01           0.00000000E+00
  -0.10100000E+01           0.00000000E+00
  -0.10000000E+01           0.00000000E+00
  -0.99000000E+00           0.00000000E+00
  -0.98000000E+00           0.00000000E+00
  -0.97000000E+00           0.00000000E+00
  -0.96000000E+00           0.00000000E+00
  -0.95000000E+00           0.00000000E+00
  -0.94000000E+00           0.00000000E+00
  -0.93000000E+00           0.00000000E+00
  -0.92000000E+00           0.00000000E+00
  -0.91000000E+00           0.00000000E+00
  -0.90000000E+00           0.00000000E+00
  -0.89000000E+00           0.00000000E+00
  -0.88000000E+00           0.00000000E+00
  -0.87000000E+00           0.00000000E+00
  -0.86000000E+00           0.00000000E+00
  -0.85000000E+00           0.00000000E+00
  -0.84000000E+00           0.00000000E+00
  -0.83000000E+00           0.00000000E+00
  -0.82000000E+00           0.00000000E+00
  -0.81000000E+00           0.00000000E+00
  -0.80000000E+00           0.00000000E+00
  -0.79000000E+00           0.00000000E+00
  -0.78000000E+00           0.00000000E+00
  -0.77000000E+00           0.00000000E+00
  -0.76000000E+00           0.00000000E+00
  -0.75000000E+00           0.00000000E+00
  -0.74000000E+00           0.00000000E+00
  -0.73000000E+00           0.00000000E+00
  -0.72000000E+00           0.00000000E+00
  -0.71000000E+00           0.00000000E+00
  -0.70000000E+00           0.00000000E+00
  -0.69000000E+00           0.00000000E+00
  -0.68000000E+00           0.00000000E+00
  -0.67000000E+00           0.00000000E+00
  -0.66000000E+00           0.00000000E+00
  -0.65000000E+00           0.00000000E+00
  -0.64000000E+00           0.00000000E+00
  -0.63000000E+00           0.00000000E+00
  -0.62000000E+00           0.00000000E+00
  -0.61000000E+00           0.00000000E+00
  -0.60000000E+00           0.00000000E+00
  -0.59000000E+00           0.00000000E+00
  -0.58000000E+00           0.00000000E+00
  -0.57000000E+00           0.00000000E+00
  -0.56000000E+00           0.00000000E+00
  -0.55000000E+00           0.00000000E+00
  -0.54000000E+00           0.00000000E+00
  -0.53000000E+00           0.00000000E+00
  -0.52000000E+00           0.00000000E+00
  -0.51000000E+00           0.00000000E+00
  -0.50000000E+00           0.00000000E+00
  -0.49000000E+00           0.00000000E+00
  -0.48000000E+00           0.00000000E+00
  -0.47000000E+00           0.00000000E+00
  -0.46000000E+00           0.00000000E+00
  -0.45000000E+00           0.00000000E+00
  -0.44000000E+00           0.00000000E+00
  -0.43000000E+00           0.00000000E+00
  -0.42000000E+00           0.00000000E+00
  -0.41000000E+00           0.00000000E+00
  -0.40000000E+00           0.00000000E+00
  -0.39000000E+00           0.00000000E+00
  -0.38000000E+00           0.00000000E+00
  -0.37000000E+00           0.00000000E+00
  -0.36000000E+00           0.00000000E+00
  -0.35000000E+00           0.00000000E+00
  -0.34000000E+00           0.00000000E+00
  -0.33000000E+00           0.00000000E+00
  -0.32000000E+00           0.00000000E+00
  -0.31000000E+00           0.00000000E+00
  -0.30000000E+00           0.00000000E+00
  -0.29000000E+00           0.00000000E+00
  -0.28000000E+00           0.00000000E+00
  -0.27000000E+00           0.00000000E+00
  -0.26000000E+00           0.00000000E+00
  -0.25000000E+00           0.00000000E+00
  -0.24000000E+00           0.00000000E+00
  -0.23000000E+00           0.00000000E+00
  -0.22000000E+00           0.00000000E+00
  -0.21000000E+00           0.00000000E+00
  -0.20000000E+00           0.00000000E+00
  -0.19000000E+00           0.00000000E+00
  -0.18000000E+00           0.00000000E+00
  -0.17000000E+00           0.00000000E+00
  -0.16000000E+00           0.00000000E+00
  -0.15000000E+00           0.00000000E+00
  -0.14000000E+00           0.00000000E+00
  -0.13000000E+00           0.00000000E+00
  -0.12000000E+00           0.00000000E+00
  -0.11000000E+00           0.00000000E+00
  -0.10000000E+00           0.00000000E+00
  -0.90000000E-01           0.00000000E+00
  -0.80000000E-01           0.00000000E+00
  -0.70000000E-01           0.00000000E+00
  -0.60000000E-01           0.00000000E+00
  -0.50000000E-01           0.00000000E+00
  -0.40000000E-01           0.00000000E+00
  -0.30000000E-01           0.00000000E+00
  -0.20000000E-01           0.00000000E+00
  -0.10000000E-01           0.00000000E+00
   0.00000000E+00           0.62782222E-03
   0.10000000E-01           0.50496000E-02
   0.20000000E-01           0.99640889E-02
   0.30000000E-01           0.15014489E-01
   0.40000000E-01           0.20083200E-01
   0.50000000E-01           0.24870400E-01
   0.60000000E-01           0.29955378E-01
   0.70000000E-01           0.35028800E-01
   0.80000000E-01           0.40119200E-01
   0.90000000E-01           0.45036711E-01
   0.10000000E+00           0.50165956E-01
   0.11000000E+00           0.55050400E-01
   0.12000000E+00           0.59911111E-01
   0.13000000E+00           0.65103022E-01
   0.14000000E+00           0.70072533E-01
   0.15000000E+00           0.74925511E-01
   0.16000000E+00           0.79909422E-01
   0.17000000E+00           0.85048267E-01
   0.18000000E+00           0.89946578E-01
   0.19000000E+00           0.95164000E-01
   0.20000000E+00           0.10008000E+00
   0.21000000E+00           0.10507173E+00
   0.22000000E+00           0.10991573E+00
   0.23000000E+00           0.11495173E+00
   0.24000000E+00           0.11989467E+00
   0.25000000E+00           0.12512711E+00
   0.26000000E+00           0.13039236E+00
   0.27000000E+00           0.13498889E+00
   0.28000000E+00           0.14000382E+00
   0.29000000E+00           0.14506933E+00
   0.30000000E+00           0.14993298E+00
   0.31000000E+00           0.15482871E+00
   0.32000000E+00           0.16029600E+00
   0.33000000E+00           0.16482836E+00
   0.34000000E+00           0.17001396E+00
   0.35000000E+00           0.17511529E+00
   0.36000000E+00           0.17987689E+00
   0.37000000E+00           0.18520738E+00
   0.38000000E+00           0.19000071E+00
   0.39000000E+00           0.19506693E+00
   0.40000000E+00           0.20015778E+00
   0.41000000E+00           0.20490560E+00
   0.42000000E+00           0.21008107E+00
   0.43000000E+00           0.21475076E+00
   0.44000000E+00           0.22010924E+00
   0.45000000E+00           0.22501973E+00
   0.46000000E+00           0.22995920E+00
   0.47000000E+00           0.23489796E+00
   0.48000000E+00           0.23968969E+00
   0.49000000E+00           0.24484222E+00
[...]
   0.13800000E+01           0.69061360E+00
   0.13900000E+01           0.69528142E+00
   0.14000000E+01           0.69978747E+00
   0.14100000E+01           0.70446409E+00
   0.14200000E+01           0.70991129E+00
   0.14300000E+01           0.71509707E+00
   0.14400000E+01           0.72008942E+00
   0.14500000E+01           0.72548178E+00
   0.14600000E+01           0.72944596E+00
   0.14700000E+01           0.73505404E+00
   0.14800000E+01           0.73994400E+00
   0.14900000E+01           0.74501244E+00
   0.15000000E+01           0.75002907E+00
   0.15100000E+01           0.75466480E+00
   0.15200000E+01           0.75994960E+00
   0.15300000E+01           0.76543449E+00
   0.15400000E+01           0.76982951E+00
   0.15500000E+01           0.77522462E+00
   0.15600000E+01           0.77982089E+00
   0.15700000E+01           0.78483511E+00
   0.15800000E+01           0.78976480E+00
   0.15900000E+01           0.79494551E+00
   0.16000000E+01           0.80021760E+00
   0.16100000E+01           0.80502302E+00
   0.16200000E+01           0.80993787E+00
   0.16300000E+01           0.81486844E+00
   0.16400000E+01           0.82006702E+00
   0.16500000E+01           0.82422613E+00
   0.16600000E+01           0.83011956E+00
   0.16700000E+01           0.83506204E+00
   0.16800000E+01           0.83978684E+00
   0.16900000E+01           0.84505982E+00
   0.17000000E+01           0.85042898E+00
   0.17100000E+01           0.85455289E+00
   0.17200000E+01           0.86040551E+00
   0.17300000E+01           0.86470542E+00
   0.17400000E+01           0.86942213E+00
   0.17500000E+01           0.87510667E+00
   0.17600000E+01           0.87968782E+00
   0.17700000E+01           0.88492658E+00
   0.17800000E+01           0.89026924E+00
   0.17900000E+01           0.89498791E+00
   0.18000000E+01           0.89994462E+00
   0.18100000E+01           0.90473716E+00
   0.18200000E+01           0.91047316E+00
   0.18300000E+01           0.91535511E+00
   0.18400000E+01           0.91996027E+00
   0.18500000E+01           0.92474204E+00
   0.18600000E+01           0.92985440E+00
   0.18700000E+01           0.93513396E+00
   0.18800000E+01           0.94022738E+00
   0.18900000E+01           0.94517671E+00
   0.19000000E+01           0.95006987E+00
   0.19100000E+01           0.95507164E+00
   0.19200000E+01           0.96001698E+00
   0.19300000E+01           0.96512391E+00
   0.19400000E+01           0.96927796E+00
   0.19500000E+01           0.97517040E+00
   0.19600000E+01           0.97975662E+00
   0.19700000E+01           0.98499796E+00
   0.19800000E+01           0.98999093E+00
   0.19900000E+01           0.99488827E+00
   0.20000000E+01           0.49936240E+00
 #T=    60.0000
  -0.20000000E+01           0.00000000E+00
  -0.19900000E+01           0.00000000E+00
  -0.19800000E+01           0.00000000E+00
  -0.19700000E+01           0.00000000E+00
  -0.19600000E+01           0.00000000E+00
  -0.19500000E+01           0.00000000E+00
  -0.19400000E+01           0.00000000E+00
  -0.19300000E+01           0.00000000E+00
  -0.19200000E+01           0.00000000E+00
  -0.19100000E+01           0.00000000E+00
  -0.19000000E+01           0.00000000E+00
  -0.18900000E+01           0.00000000E+00
  -0.18800000E+01           0.00000000E+00
  -0.18700000E+01           0.00000000E+00
  -0.18600000E+01           0.00000000E+00
  -0.18500000E+01           0.00000000E+00
  -0.18400000E+01           0.00000000E+00
  -0.18300000E+01           0.00000000E+00
  -0.18200000E+01           0.00000000E+00
  -0.18100000E+01           0.00000000E+00
  -0.18000000E+01           0.00000000E+00
  -0.17900000E+01           0.00000000E+00
  -0.17800000E+01           0.00000000E+00
  -0.17700000E+01           0.00000000E+00
  -0.17600000E+01           0.00000000E+00
  -0.17500000E+01           0.00000000E+00
  -0.17400000E+01           0.00000000E+00
  -0.17300000E+01           0.00000000E+00
  -0.17200000E+01           0.00000000E+00
  -0.17100000E+01           0.00000000E+00
  -0.17000000E+01           0.00000000E+00
  -0.16900000E+01           0.00000000E+00
  -0.16800000E+01           0.00000000E+00
  -0.16700000E+01           0.00000000E+00
  -0.16600000E+01           0.00000000E+00
  -0.16500000E+01           0.00000000E+00
  -0.16400000E+01           0.00000000E+00
  -0.16300000E+01           0.00000000E+00
  -0.16200000E+01           0.00000000E+00
  -0.16100000E+01           0.00000000E+00
  -0.16000000E+01           0.00000000E+00
  -0.15900000E+01           0.00000000E+00
  -0.15800000E+01           0.00000000E+00
  -0.15700000E+01           0.00000000E+00
  -0.15600000E+01           0.00000000E+00
  -0.15500000E+01           0.00000000E+00
  -0.15400000E+01           0.00000000E+00
  -0.15300000E+01           0.00000000E+00
  -0.15200000E+01           0.00000000E+00
  -0.15100000E+01           0.00000000E+00
  -0.15000000E+01           0.00000000E+00
  -0.14900000E+01           0.00000000E+00
  -0.14800000E+01           0.00000000E+00
  -0.14700000E+01           0.00000000E+00
  -0.14600000E+01           0.00000000E+00
  -0.14500000E+01           0.00000000E+00
  -0.14400000E+01           0.00000000E+00
  -0.14300000E+01           0.00000000E+00
  -0.14200000E+01           0.00000000E+00
  -0.14100000E+01           0.00000000E+00
  -0.14000000E+01           0.00000000E+00
  -0.13900000E+01           0.00000000E+00
  -0.13800000E+01           0.00000000E+00
  -0.13700000E+01           0.00000000E+00
  -0.13600000E+01           0.00000000E+00
  -0.13500000E+01           0.00000000E+00
  -0.13400000E+01           0.00000000E+00
  -0.13300000E+01           0.00000000E+00
  -0.13200000E+01           0.00000000E+00
  -0.13100000E+01           0.00000000E+00
  -0.13000000E+01           0.00000000E+00
  -0.12900000E+01           0.00000000E+00
  -0.12800000E+01           0.00000000E+00
  -0.12700000E+01           0.00000000E+00
  -0.12600000E+01           0.00000000E+00
  -0.12500000E+01           0.00000000E+00
  -0.12400000E+01           0.00000000E+00
  -0.12300000E+01           0.00000000E+00
  -0.12200000E+01           0.00000000E+00
  -0.12100000E+01           0.00000000E+00
  -0.12000000E+01           0.00000000E+00
  -0.11900000E+01           0.00000000E+00
  -0.11800000E+01           0.00000000E+00
  -0.11700000E+01           0.00000000E+00
  -0.11600000E+01           0.00000000E+00
  -0.11500000E+01           0.00000000E+00
  -0.11400000E+01           0.00000000E+00
  -0.11300000E+01           0.00000000E+00
  -0.11200000E+01           0.00000000E+00
  -0.11100000E+01           0.00000000E+00
  -0.11000000E+01           0.00000000E+00
  -0.10900000E+01           0.00000000E+00
  -0.10800000E+01           0.00000000E+00
  -0.10700000E+01           0.00000000E+00
  -0.10600000E+01           0.00000000E+00
  -0.10500000E+01           0.00000000E+00
  -0.10400000E+01           0.00000000E+00
  -0.10300000E+01           0.00000000E+00
  -0.10200000E+01           0.00000000E+00
  -0.10100000E+01           0.00000000E+00
  -0.10000000E+01           0.00000000E+00
  -0.99000000E+00           0.00000000E+00
  -0.98000000E+00           0.00000000E+00
  -0.97000000E+00           0.00000000E+00
  -0.96000000E+00           0.00000000E+00
  -0.95000000E+00           0.00000000E+00
  -0.94000000E+00           0.00000000E+00
  -0.93000000E+00           0.00000000E+00
  -0.92000000E+00           0.00000000E+00
  -0.91000000E+00           0.00000000E+00
  -0.90000000E+00           0.00000000E+00
  -0.89000000E+00           0.00000000E+00
  -0.88000000E+00           0.00000000E+00
  -0.87000000E+00           0.00000000E+00
  -0.86000000E+00           0.00000000E+00
  -0.85000000E+00           0.00000000E+00
  -0.84000000E+00           0.00000000E+00
  -0.83000000E+00           0.00000000E+00
  -0.82000000E+00           0.00000000E+00
  -0.81000000E+00           0.00000000E+00
  -0.80000000E+00           0.00000000E+00
  -0.79000000E+00           0.00000000E+00
  -0.78000000E+00           0.00000000E+00
  -0.77000000E+00           0.00000000E+00
  -0.76000000E+00           0.00000000E+00
  -0.75000000E+00           0.00000000E+00
  -0.74000000E+00           0.00000000E+00
  -0.73000000E+00           0.00000000E+00
  -0.72000000E+00           0.00000000E+00
  -0.71000000E+00           0.00000000E+00
  -0.70000000E+00           0.00000000E+00
  -0.69000000E+00           0.00000000E+00
  -0.68000000E+00           0.00000000E+00
  -0.67000000E+00           0.00000000E+00
  -0.66000000E+00           0.00000000E+00
  -0.65000000E+00           0.00000000E+00
  -0.64000000E+00           0.00000000E+00
  -0.63000000E+00           0.00000000E+00
  -0.62000000E+00           0.00000000E+00
  -0.61000000E+00           0.00000000E+00
  -0.60000000E+00           0.00000000E+00
  -0.59000000E+00           0.00000000E+00
  -0.58000000E+00           0.00000000E+00
  -0.57000000E+00           0.00000000E+00
  -0.56000000E+00           0.00000000E+00
  -0.55000000E+00           0.00000000E+00
  -0.54000000E+00           0.00000000E+00
  -0.53000000E+00           0.00000000E+00
  -0.52000000E+00           0.00000000E+00
  -0.51000000E+00           0.00000000E+00
  -0.50000000E+00           0.00000000E+00
  -0.49000000E+00           0.00000000E+00
  -0.48000000E+00           0.00000000E+00
  -0.47000000E+00           0.00000000E+00
  -0.46000000E+00           0.00000000E+00
  -0.45000000E+00           0.00000000E+00
  -0.44000000E+00           0.00000000E+00
  -0.43000000E+00           0.00000000E+00
  -0.42000000E+00           0.00000000E+00
  -0.41000000E+00           0.00000000E+00
  -0.40000000E+00           0.00000000E+00
  -0.39000000E+00           0.00000000E+00
  -0.38000000E+00           0.00000000E+00
  -0.37000000E+00           0.00000000E+00
  -0.36000000E+00           0.00000000E+00
  -0.35000000E+00           0.00000000E+00
  -0.34000000E+00           0.00000000E+00
  -0.33000000E+00           0.00000000E+00
  -0.32000000E+00           0.00000000E+00
  -0.31000000E+00           0.00000000E+00
  -0.30000000E+00           0.00000000E+00
  -0.29000000E+00           0.00000000E+00
  -0.28000000E+00           0.00000000E+00
  -0.27000000E+00           0.00000000E+00
  -0.26000000E+00           0.00000000E+00
  -0.25000000E+00           0.00000000E+00
  -0.24000000E+00           0.00000000E+00
  -0.23000000E+00           0.00000000E+00
  -0.22000000E+00           0.00000000E+00
  -0.21000000E+00           0.00000000E+00
  -0.20000000E+00           0.00000000E+00
  -0.19000000E+00           0.00000000E+00
  -0.18000000E+00           0.00000000E+00
  -0.17000000E+00           0.00000000E+00
  -0.16000000E+00           0.00000000E+00
  -0.15000000E+00           0.00000000E+00
  -0.14000000E+00           0.00000000E+00
  -0.13000000E+00           0.00000000E+00
  -0.12000000E+00           0.00000000E+00
  -0.11000000E+00           0.00000000E+00
  -0.10000000E+00           0.00000000E+00
  -0.90000000E-01           0.00000000E+00
  -0.80000000E-01           0.00000000E+00
  -0.70000000E-01           0.00000000E+00
  -0.60000000E-01           0.00000000E+00
  -0.50000000E-01           0.00000000E+00
  -0.40000000E-01           0.00000000E+00
  -0.30000000E-01           0.00000000E+00
  -0.20000000E-01           0.00000000E+00
  -0.10000000E-01           0.00000000E+00
   0.00000000E+00           0.61315556E-03
   0.10000000E-01           0.50172444E-02
   0.20000000E-01           0.10033244E-01
   0.30000000E-01           0.14983911E-01
   0.40000000E-01           0.19945689E-01
   0.50000000E-01           0.24982756E-01
   0.60000000E-01           0.30009778E-01
   0.70000000E-01           0.35011556E-01
   0.80000000E-01           0.39960978E-01
   0.90000000E-01           0.45046489E-01
   0.10000000E+00           0.50091022E-01
   0.11000000E+00           0.54985244E-01
   0.12000000E+00           0.59959022E-01
   0.13000000E+00           0.64951467E-01
   0.14000000E+00           0.69949067E-01
   0.15000000E+00           0.74978133E-01
   0.16000000E+00           0.80119111E-01
   0.17000000E+00           0.85018044E-01
   0.18000000E+00           0.90090311E-01
   0.19000000E+00           0.95044267E-01
   0.20000000E+00           0.99826400E-01
   0.21000000E+00           0.10502693E+00
   0.22000000E+00           0.11018684E+00
   0.23000000E+00           0.11487236E+00
   0.24000000E+00           0.12017013E+00
   0.25000000E+00           0.12509724E+00
   0.26000000E+00           0.12988347E+00
   0.27000000E+00           0.13486267E+00
   0.28000000E+00           0.13999156E+00
   0.29000000E+00           0.14493893E+00
   0.30000000E+00           0.14986284E+00
   0.31000000E+00           0.15509858E+00
   0.32000000E+00           0.16005387E+00
   0.33000000E+00           0.16499342E+00
   0.34000000E+00           0.16994711E+00
   0.35000000E+00           0.17516533E+00
   0.36000000E+00           0.18015120E+00
   0.37000000E+00           0.18497307E+00
   0.38000000E+00           0.19010560E+00
   0.39000000E+00           0.19504222E+00
   0.40000000E+00           0.20005138E+00
   0.41000000E+00           0.20495582E+00
   0.42000000E+00           0.20980133E+00
   0.43000000E+00           0.21507102E+00
   0.44000000E+00           0.22007378E+00
   0.45000000E+00           0.22488142E+00
   0.46000000E+00           0.23019956E+00
   0.47000000E+00           0.23502267E+00
   0.48000000E+00           0.23987031E+00
   0.49000000E+00           0.24501796E+00
   0.50000000E+00           0.24999493E+00
   0.51000000E+00           0.25502231E+00
   0.52000000E+00           0.26006569E+00
   0.53000000E+00           0.26503138E+00
   0.54000000E+00           0.26986427E+00
   0.55000000E+00           0.27521538E+00
   0.56000000E+00           0.27972684E+00
   0.57000000E+00           0.28497867E+00
   0.58000000E+00           0.28979947E+00
   0.59000000E+00           0.29490560E+00
   0.60000000E+00           0.29999013E+00
   0.61000000E+00           0.30486373E+00
   0.62000000E+00           0.30993031E+00
   0.63000000E+00           0.31497369E+00
   0.64000000E+00           0.32006978E+00
   0.65000000E+00           0.32486373E+00
   0.66000000E+00           0.32991298E+00
   0.67000000E+00           0.33501991E+00
   0.68000000E+00           0.33983698E+00
   0.69000000E+00           0.34505520E+00
   0.70000000E+00           0.35027173E+00
   0.71000000E+00           0.35465991E+00
   0.72000000E+00           0.35989778E+00
   0.73000000E+00           0.36500124E+00
   0.74000000E+00           0.37007031E+00
   0.75000000E+00           0.37464249E+00
   0.76000000E+00           0.37994062E+00
   0.77000000E+00           0.38463369E+00
   0.78000000E+00           0.39041484E+00
   0.79000000E+00           0.39488471E+00
   0.80000000E+00           0.40007893E+00
   0.81000000E+00           0.40505609E+00
   0.82000000E+00           0.40966960E+00
   0.83000000E+00           0.41499084E+00
   0.84000000E+00           0.41995164E+00
   0.85000000E+00           0.42496356E+00
   0.86000000E+00           0.42983493E+00
   0.87000000E+00           0.43517636E+00
   0.88000000E+00           0.43991769E+00
   0.89000000E+00           0.44471484E+00
   0.90000000E+00           0.44999342E+00
   0.91000000E+00           0.45475956E+00
   0.92000000E+00           0.46031582E+00
   0.93000000E+00           0.46507991E+00
   0.94000000E+00           0.46976533E+00
   0.95000000E+00           0.47487813E+00
   0.96000000E+00           0.48003858E+00
   0.97000000E+00           0.48461680E+00
   0.98000000E+00           0.49008169E+00
   0.99000000E+00           0.49501582E+00
   0.10000000E+01           0.49972071E+00
   0.10100000E+01           0.50492089E+00
   0.10200000E+01           0.50980827E+00
   0.10300000E+01           0.51490969E+00
   0.10400000E+01           0.52031476E+00
   0.10500000E+01           0.52476827E+00
   0.10600000E+01           0.53011324E+00
   0.10700000E+01           0.53532311E+00
   0.10800000E+01           0.53991022E+00
   0.10900000E+01           0.54493076E+00
   0.11000000E+01           0.55052924E+00
   0.11100000E+01           0.55477182E+00
   0.11200000E+01           0.56030347E+00
   0.11300000E+01           0.56535422E+00
   0.11400000E+01           0.57033440E+00
   0.11500000E+01           0.57478622E+00
   0.11600000E+01           0.57968053E+00
   0.11700000E+01           0.58506364E+00
   0.11800000E+01           0.58972560E+00
   0.11900000E+01           0.59494578E+00
   0.12000000E+01           0.60015013E+00
   0.12100000E+01           0.60462960E+00
   0.12200000E+01           0.60971102E+00
   0.12300000E+01           0.61524542E+00
   0.12400000E+01           0.62012116E+00
   0.12500000E+01           0.62510827E+00
   0.12600000E+01           0.62993760E+00
   0.12700000E+01           0.63516889E+00
   0.12800000E+01           0.64021920E+00
   0.12900000E+01           0.64477209E+00
   0.13000000E+01           0.65020027E+00
   0.13100000E+01           0.65430436E+00
   0.13200000E+01           0.66010169E+00
   0.13300000E+01           0.66550258E+00
   0.13400000E+01           0.67022027E+00
   0.13500000E+01           0.67536649E+00
   0.13600000E+01           0.68016142E+00
   0.13700000E+01           0.68506613E+00
   0.13800000E+01           0.68978702E+00
   0.13900000E+01           0.69497938E+00
   0.14000000E+01           0.69976604E+00
   0.14100000E+01           0.70558969E+00
   0.14200000E+01           0.71029618E+00
   0.14300000E+01           0.71498898E+00
   0.14400000E+01           0.71961822E+00
   0.14500000E+01           0.72482524E+00
   0.14600000E+01           0.72971573E+00
   0.14700000E+01           0.73454587E+00
   0.14800000E+01           0.73976364E+00
   0.14900000E+01           0.74535236E+00
   0.15000000E+01           0.75047422E+00
   0.15100000E+01           0.75481333E+00
   0.15200000E+01           0.76013849E+00
   0.15300000E+01           0.76522124E+00
   0.15400000E+01           0.76964480E+00
   0.15500000E+01           0.77485022E+00
   0.15600000E+01           0.77987991E+00
   0.15700000E+01           0.78497698E+00
   0.15800000E+01           0.79025689E+00
   0.15900000E+01           0.79496871E+00
   0.16000000E+01           0.79965271E+00
   0.16100000E+01           0.80452187E+00
   0.16200000E+01           0.81008364E+00
   0.16300000E+01           0.81552951E+00
   0.16400000E+01           0.82010738E+00
   0.16500000E+01           0.82501209E+00
   0.16600000E+01           0.82993538E+00
   0.16700000E+01           0.83456204E+00
   0.16800000E+01           0.83984258E+00
   0.16900000E+01           0.84474773E+00
   0.17000000E+01           0.85074533E+00
   0.17100000E+01           0.85498391E+00
   0.17200000E+01           0.85983973E+00
   0.17300000E+01           0.86472356E+00
   0.17400000E+01           0.87006302E+00
   0.17500000E+01           0.87534018E+00
   0.17600000E+01           0.88019956E+00
   0.17700000E+01           0.88553751E+00
   0.17800000E+01           0.88948249E+00
   0.17900000E+01           0.89457164E+00
   0.18000000E+01           0.90000204E+00
   0.18100000E+01           0.90492649E+00
   0.18200000E+01           0.90994258E+00
   0.18300000E+01           0.91501449E+00
   0.18400000E+01           0.91990160E+00
   0.18500000E+01           0.92576924E+00
   0.18600000E+01           0.93001173E+00
   0.18700000E+01           0.93465138E+00
   0.18800000E+01           0.93989271E+00
   0.18900000E+01           0.94503778E+00
   0.19000000E+01           0.94978747E+00
   0.19100000E+01           0.95494560E+00
   0.19200000E+01           0.96012542E+00
   0.19300000E+01           0.96500711E+00
   0.19400000E+01           0.97030373E+00
   0.19500000E+01           0.97548809E+00
   0.19600000E+01           0.98069769E+00
   0.19700000E+01           0.98526347E+00
   0.19800000E+01           0.98982204E+00
   0.19900000E+01           0.99524044E+00
   0.20000000E+01           0.49960907E+00
