 #written on 11Aug2024 at 15:20:44 
 #----------------- MONTECARLO -------------------#
 #        M                      P(M)             #
 #------------------------------------------------#
 #T=     1.0000
  -0.60000000E+01           0.00000000E+00
  -0.59900000E+01           0.00000000E+00
  -0.59800000E+01           0.00000000E+00
  -0.59700000E+01           0.00000000E+00
  -0.59600000E+01           0.00000000E+00
  -0.59500000E+01           0.00000000E+00
  -0.59400000E+01           0.00000000E+00
  -0.59300000E+01           0.00000000E+00
  -0.59200000E+01           0.00000000E+00
  -0.59100000E+01           0.00000000E+00
  -0.59000000E+01           0.00000000E+00
  -0.58900000E+01           0.00000000E+00
  -0.58800000E+01           0.00000000E+00
  -0.58700000E+01           0.00000000E+00
  -0.58600000E+01           0.00000000E+00
  -0.58500000E+01           0.00000000E+00
  -0.58400000E+01           0.00000000E+00
  -0.58300000E+01           0.00000000E+00
  -0.58200000E+01           0.00000000E+00
  -0.58100000E+01           0.00000000E+00
  -0.58000000E+01           0.00000000E+00
  -0.57900000E+01           0.00000000E+00
  -0.57800000E+01           0.00000000E+00
  -0.57700000E+01           0.00000000E+00
  -0.57600000E+01           0.00000000E+00
  -0.57500000E+01           0.00000000E+00
  -0.57400000E+01           0.00000000E+00
  -0.57300000E+01           0.00000000E+00
  -0.57200000E+01           0.00000000E+00
  -0.57100000E+01           0.00000000E+00
  -0.57000000E+01           0.00000000E+00
  -0.56900000E+01           0.00000000E+00
  -0.56800000E+01           0.00000000E+00
  -0.56700000E+01           0.00000000E+00
  -0.56600000E+01           0.00000000E+00
  -0.56500000E+01           0.00000000E+00
  -0.56400000E+01           0.00000000E+00
  -0.56300000E+01           0.00000000E+00
  -0.56200000E+01           0.00000000E+00
  -0.56100000E+01           0.00000000E+00
  -0.56000000E+01           0.00000000E+00
  -0.55900000E+01           0.00000000E+00
  -0.55800000E+01           0.00000000E+00
  -0.55700000E+01           0.00000000E+00
  -0.55600000E+01           0.00000000E+00
  -0.55500000E+01           0.00000000E+00
  -0.55400000E+01           0.00000000E+00
  -0.55300000E+01           0.00000000E+00
  -0.55200000E+01           0.00000000E+00
  -0.55100000E+01           0.00000000E+00
  -0.55000000E+01           0.00000000E+00
  -0.54900000E+01           0.00000000E+00
  -0.54800000E+01           0.00000000E+00
  -0.54700000E+01           0.00000000E+00
  -0.54600000E+01           0.00000000E+00
  -0.54500000E+01           0.00000000E+00
  -0.54400000E+01           0.00000000E+00
  -0.54300000E+01           0.00000000E+00
  -0.54200000E+01           0.00000000E+00
  -0.54100000E+01           0.00000000E+00
  -0.54000000E+01           0.00000000E+00
  -0.53900000E+01           0.00000000E+00
  -0.53800000E+01           0.00000000E+00
  -0.53700000E+01           0.00000000E+00
  -0.53600000E+01           0.00000000E+00
  -0.53500000E+01           0.00000000E+00
  -0.53400000E+01           0.00000000E+00
  -0.53300000E+01           0.00000000E+00
  -0.53200000E+01           0.00000000E+00
  -0.53100000E+01           0.00000000E+00
  -0.53000000E+01           0.00000000E+00
  -0.52900000E+01           0.00000000E+00
  -0.52800000E+01           0.00000000E+00
  -0.52700000E+01           0.00000000E+00
  -0.52600000E+01           0.00000000E+00
  -0.52500000E+01           0.00000000E+00
  -0.52400000E+01           0.00000000E+00
  -0.52300000E+01           0.00000000E+00
  -0.52200000E+01           0.00000000E+00
  -0.52100000E+01           0.00000000E+00
  -0.52000000E+01           0.00000000E+00
  -0.51900000E+01           0.00000000E+00
  -0.51800000E+01           0.00000000E+00
  -0.51700000E+01           0.00000000E+00
  -0.51600000E+01           0.00000000E+00
  -0.51500000E+01           0.00000000E+00
  -0.51400000E+01           0.00000000E+00
  -0.51300000E+01           0.00000000E+00
  -0.51200000E+01           0.00000000E+00
  -0.51100000E+01           0.00000000E+00
  -0.51000000E+01           0.00000000E+00
  -0.50900000E+01           0.00000000E+00
  -0.50800000E+01           0.00000000E+00
  -0.50700000E+01           0.00000000E+00
  -0.50600000E+01           0.00000000E+00
  -0.50500000E+01           0.00000000E+00
  -0.50400000E+01           0.00000000E+00
  -0.50300000E+01           0.00000000E+00
  -0.50200000E+01           0.00000000E+00
  -0.50100000E+01           0.00000000E+00
  -0.50000000E+01           0.00000000E+00
  -0.49900000E+01           0.00000000E+00
  -0.49800000E+01           0.00000000E+00
  -0.49700000E+01           0.00000000E+00
  -0.49600000E+01           0.00000000E+00
  -0.49500000E+01           0.00000000E+00
  -0.49400000E+01           0.00000000E+00
  -0.49300000E+01           0.00000000E+00
  -0.49200000E+01           0.00000000E+00
  -0.49100000E+01           0.00000000E+00
  -0.49000000E+01           0.00000000E+00
  -0.48900000E+01           0.00000000E+00
  -0.48800000E+01           0.00000000E+00
  -0.48700000E+01           0.00000000E+00
  -0.48600000E+01           0.00000000E+00
  -0.48500000E+01           0.00000000E+00
  -0.48400000E+01           0.00000000E+00
  -0.48300000E+01           0.00000000E+00
  -0.48200000E+01           0.00000000E+00
  -0.48100000E+01           0.00000000E+00
  -0.48000000E+01           0.00000000E+00
  -0.47900000E+01           0.00000000E+00
  -0.47800000E+01           0.00000000E+00
  -0.47700000E+01           0.00000000E+00
  -0.47600000E+01           0.00000000E+00
  -0.47500000E+01           0.00000000E+00
  -0.47400000E+01           0.00000000E+00
  -0.47300000E+01           0.00000000E+00
  -0.47200000E+01           0.00000000E+00
  -0.47100000E+01           0.00000000E+00
  -0.47000000E+01           0.00000000E+00
  -0.46900000E+01           0.00000000E+00
  -0.46800000E+01           0.00000000E+00
  -0.46700000E+01           0.00000000E+00
  -0.46600000E+01           0.00000000E+00
  -0.46500000E+01           0.00000000E+00
  -0.46400000E+01           0.00000000E+00
  -0.46300000E+01           0.00000000E+00
  -0.46200000E+01           0.00000000E+00
  -0.46100000E+01           0.00000000E+00
  -0.46000000E+01           0.00000000E+00
  -0.45900000E+01           0.00000000E+00
  -0.45800000E+01           0.00000000E+00
  -0.45700000E+01           0.00000000E+00
  -0.45600000E+01           0.00000000E+00
  -0.45500000E+01           0.00000000E+00
  -0.45400000E+01           0.00000000E+00
  -0.45300000E+01           0.00000000E+00
  -0.45200000E+01           0.00000000E+00
  -0.45100000E+01           0.00000000E+00
  -0.45000000E+01           0.00000000E+00
  -0.44900000E+01           0.00000000E+00
  -0.44800000E+01           0.00000000E+00
  -0.44700000E+01           0.00000000E+00
  -0.44600000E+01           0.00000000E+00
  -0.44500000E+01           0.00000000E+00
  -0.44400000E+01           0.00000000E+00
  -0.44300000E+01           0.00000000E+00
  -0.44200000E+01           0.00000000E+00
  -0.44100000E+01           0.00000000E+00
  -0.44000000E+01           0.00000000E+00
  -0.43900000E+01           0.00000000E+00
  -0.43800000E+01           0.00000000E+00
  -0.43700000E+01           0.00000000E+00
  -0.43600000E+01           0.00000000E+00
  -0.43500000E+01           0.00000000E+00
  -0.43400000E+01           0.00000000E+00
  -0.43300000E+01           0.00000000E+00
  -0.43200000E+01           0.00000000E+00
  -0.43100000E+01           0.00000000E+00
  -0.43000000E+01           0.00000000E+00
  -0.42900000E+01           0.00000000E+00
  -0.42800000E+01           0.00000000E+00
  -0.42700000E+01           0.00000000E+00
  -0.42600000E+01           0.00000000E+00
  -0.42500000E+01           0.00000000E+00
  -0.42400000E+01           0.00000000E+00
  -0.42300000E+01           0.00000000E+00
  -0.42200000E+01           0.00000000E+00
  -0.42100000E+01           0.00000000E+00
  -0.42000000E+01           0.00000000E+00
  -0.41900000E+01           0.00000000E+00
  -0.41800000E+01           0.00000000E+00
  -0.41700000E+01           0.00000000E+00
  -0.41600000E+01           0.00000000E+00
  -0.41500000E+01           0.00000000E+00
  -0.41400000E+01           0.00000000E+00
  -0.41300000E+01           0.00000000E+00
  -0.41200000E+01           0.00000000E+00
  -0.41100000E+01           0.00000000E+00
  -0.41000000E+01           0.00000000E+00
  -0.40900000E+01           0.00000000E+00
  -0.40800000E+01           0.00000000E+00
  -0.40700000E+01           0.00000000E+00
  -0.40600000E+01           0.00000000E+00
  -0.40500000E+01           0.00000000E+00
  -0.40400000E+01           0.00000000E+00
  -0.40300000E+01           0.00000000E+00
  -0.40200000E+01           0.00000000E+00
  -0.40100000E+01           0.00000000E+00
  -0.40000000E+01           0.00000000E+00
  -0.39900000E+01           0.00000000E+00
  -0.39800000E+01           0.00000000E+00
  -0.39700000E+01           0.00000000E+00
  -0.39600000E+01           0.00000000E+00
  -0.39500000E+01           0.00000000E+00
  -0.39400000E+01           0.00000000E+00
  -0.39300000E+01           0.00000000E+00
  -0.39200000E+01           0.00000000E+00
  -0.39100000E+01           0.00000000E+00
  -0.39000000E+01           0.00000000E+00
  -0.38900000E+01           0.00000000E+00
  -0.38800000E+01           0.00000000E+00
  -0.38700000E+01           0.00000000E+00
  -0.38600000E+01           0.00000000E+00
  -0.38500000E+01           0.00000000E+00
  -0.38400000E+01           0.00000000E+00
  -0.38300000E+01           0.00000000E+00
  -0.38200000E+01           0.00000000E+00
  -0.38100000E+01           0.00000000E+00
  -0.38000000E+01           0.00000000E+00
  -0.37900000E+01           0.00000000E+00
  -0.37800000E+01           0.00000000E+00
  -0.37700000E+01           0.00000000E+00
  -0.37600000E+01           0.00000000E+00
  -0.37500000E+01           0.00000000E+00
  -0.37400000E+01           0.00000000E+00
  -0.37300000E+01           0.00000000E+00
  -0.37200000E+01           0.00000000E+00
  -0.37100000E+01           0.00000000E+00
  -0.37000000E+01           0.00000000E+00
  -0.36900000E+01           0.00000000E+00
  -0.36800000E+01           0.00000000E+00
  -0.36700000E+01           0.00000000E+00
  -0.36600000E+01           0.00000000E+00
  -0.36500000E+01           0.00000000E+00
  -0.36400000E+01           0.00000000E+00
  -0.36300000E+01           0.00000000E+00
  -0.36200000E+01           0.00000000E+00
  -0.36100000E+01           0.00000000E+00
  -0.36000000E+01           0.00000000E+00
  -0.35900000E+01           0.00000000E+00
  -0.35800000E+01           0.00000000E+00
  -0.35700000E+01           0.00000000E+00
  -0.35600000E+01           0.00000000E+00
  -0.35500000E+01           0.00000000E+00
  -0.35400000E+01           0.00000000E+00
  -0.35300000E+01           0.00000000E+00
  -0.35200000E+01           0.00000000E+00
  -0.35100000E+01           0.00000000E+00
  -0.35000000E+01           0.00000000E+00
  -0.34900000E+01           0.00000000E+00
  -0.34800000E+01           0.00000000E+00
  -0.34700000E+01           0.00000000E+00
  -0.34600000E+01           0.00000000E+00
  -0.34500000E+01           0.00000000E+00
  -0.34400000E+01           0.00000000E+00
  -0.34300000E+01           0.00000000E+00
  -0.34200000E+01           0.00000000E+00
  -0.34100000E+01           0.00000000E+00
  -0.34000000E+01           0.00000000E+00
  -0.33900000E+01           0.00000000E+00
  -0.33800000E+01           0.00000000E+00
  -0.33700000E+01           0.00000000E+00
  -0.33600000E+01           0.00000000E+00
  -0.33500000E+01           0.00000000E+00
  -0.33400000E+01           0.00000000E+00
  -0.33300000E+01           0.00000000E+00
  -0.33200000E+01           0.00000000E+00
  -0.33100000E+01           0.00000000E+00
  -0.33000000E+01           0.00000000E+00
  -0.32900000E+01           0.00000000E+00
  -0.32800000E+01           0.00000000E+00
  -0.32700000E+01           0.00000000E+00
  -0.32600000E+01           0.00000000E+00
  -0.32500000E+01           0.00000000E+00
  -0.32400000E+01           0.00000000E+00
  -0.32300000E+01           0.00000000E+00
  -0.32200000E+01           0.00000000E+00
  -0.32100000E+01           0.00000000E+00
  -0.32000000E+01           0.00000000E+00
  -0.31900000E+01           0.00000000E+00
  -0.31800000E+01           0.00000000E+00
  -0.31700000E+01           0.00000000E+00
  -0.31600000E+01           0.00000000E+00
  -0.31500000E+01           0.00000000E+00
  -0.31400000E+01           0.00000000E+00
  -0.31300000E+01           0.00000000E+00
  -0.31200000E+01           0.00000000E+00
  -0.31100000E+01           0.00000000E+00
  -0.31000000E+01           0.00000000E+00
  -0.30900000E+01           0.00000000E+00
  -0.30800000E+01           0.00000000E+00
  -0.30700000E+01           0.00000000E+00
  -0.30600000E+01           0.00000000E+00
  -0.30500000E+01           0.00000000E+00
  -0.30400000E+01           0.00000000E+00
  -0.30300000E+01           0.00000000E+00
  -0.30200000E+01           0.00000000E+00
  -0.30100000E+01           0.00000000E+00
  -0.30000000E+01           0.00000000E+00
  -0.29900000E+01           0.00000000E+00
  -0.29800000E+01           0.00000000E+00
  -0.29700000E+01           0.00000000E+00
  -0.29600000E+01           0.00000000E+00
  -0.29500000E+01           0.00000000E+00
  -0.29400000E+01           0.00000000E+00
  -0.29300000E+01           0.00000000E+00
  -0.29200000E+01           0.00000000E+00
  -0.29100000E+01           0.00000000E+00
  -0.29000000E+01           0.00000000E+00
  -0.28900000E+01           0.00000000E+00
  -0.28800000E+01           0.00000000E+00
  -0.28700000E+01           0.00000000E+00
  -0.28600000E+01           0.00000000E+00
  -0.28500000E+01           0.00000000E+00
  -0.28400000E+01           0.00000000E+00
  -0.28300000E+01           0.00000000E+00
  -0.28200000E+01           0.00000000E+00
  -0.28100000E+01           0.00000000E+00
  -0.28000000E+01           0.00000000E+00
  -0.27900000E+01           0.00000000E+00
  -0.27800000E+01           0.00000000E+00
  -0.27700000E+01           0.00000000E+00
  -0.27600000E+01           0.00000000E+00
  -0.27500000E+01           0.00000000E+00
  -0.27400000E+01           0.00000000E+00
  -0.27300000E+01           0.00000000E+00
  -0.27200000E+01           0.00000000E+00
  -0.27100000E+01           0.00000000E+00
  -0.27000000E+01           0.00000000E+00
  -0.26900000E+01           0.00000000E+00
  -0.26800000E+01           0.00000000E+00
  -0.26700000E+01           0.00000000E+00
  -0.26600000E+01           0.00000000E+00
  -0.26500000E+01           0.00000000E+00
  -0.26400000E+01           0.00000000E+00
  -0.26300000E+01           0.00000000E+00
  -0.26200000E+01           0.00000000E+00
  -0.26100000E+01           0.00000000E+00
  -0.26000000E+01           0.00000000E+00
  -0.25900000E+01           0.00000000E+00
  -0.25800000E+01           0.00000000E+00
  -0.25700000E+01           0.00000000E+00
  -0.25600000E+01           0.00000000E+00
  -0.25500000E+01           0.00000000E+00
  -0.25400000E+01           0.00000000E+00
  -0.25300000E+01           0.00000000E+00
  -0.25200000E+01           0.00000000E+00
  -0.25100000E+01           0.00000000E+00
  -0.25000000E+01           0.00000000E+00
  -0.24900000E+01           0.00000000E+00
  -0.24800000E+01           0.00000000E+00
  -0.24700000E+01           0.00000000E+00
  -0.24600000E+01           0.00000000E+00
  -0.24500000E+01           0.00000000E+00
  -0.24400000E+01           0.00000000E+00
  -0.24300000E+01           0.00000000E+00
  -0.24200000E+01           0.00000000E+00
  -0.24100000E+01           0.00000000E+00
  -0.24000000E+01           0.00000000E+00
  -0.23900000E+01           0.00000000E+00
  -0.23800000E+01           0.00000000E+00
  -0.23700000E+01           0.00000000E+00
  -0.23600000E+01           0.00000000E+00
  -0.23500000E+01           0.00000000E+00
  -0.23400000E+01           0.00000000E+00
  -0.23300000E+01           0.00000000E+00
  -0.23200000E+01           0.00000000E+00
  -0.23100000E+01           0.00000000E+00
  -0.23000000E+01           0.00000000E+00
  -0.22900000E+01           0.00000000E+00
  -0.22800000E+01           0.00000000E+00
  -0.22700000E+01           0.00000000E+00
  -0.22600000E+01           0.00000000E+00
  -0.22500000E+01           0.00000000E+00
  -0.22400000E+01           0.00000000E+00
  -0.22300000E+01           0.00000000E+00
  -0.22200000E+01           0.00000000E+00
  -0.22100000E+01           0.00000000E+00
  -0.22000000E+01           0.00000000E+00
  -0.21900000E+01           0.00000000E+00
  -0.21800000E+01           0.00000000E+00
  -0.21700000E+01           0.00000000E+00
  -0.21600000E+01           0.00000000E+00
  -0.21500000E+01           0.00000000E+00
  -0.21400000E+01           0.00000000E+00
  -0.21300000E+01           0.00000000E+00
  -0.21200000E+01           0.00000000E+00
  -0.21100000E+01           0.00000000E+00
  -0.21000000E+01           0.00000000E+00
  -0.20900000E+01           0.00000000E+00
  -0.20800000E+01           0.00000000E+00
  -0.20700000E+01           0.00000000E+00
  -0.20600000E+01           0.00000000E+00
  -0.20500000E+01           0.00000000E+00
  -0.20400000E+01           0.00000000E+00
  -0.20300000E+01           0.00000000E+00
  -0.20200000E+01           0.00000000E+00
  -0.20100000E+01           0.00000000E+00
  -0.20000000E+01           0.00000000E+00
  -0.19900000E+01           0.00000000E+00
  -0.19800000E+01           0.00000000E+00
  -0.19700000E+01           0.00000000E+00
  -0.19600000E+01           0.00000000E+00
  -0.19500000E+01           0.00000000E+00
  -0.19400000E+01           0.00000000E+00
  -0.19300000E+01           0.00000000E+00
  -0.19200000E+01           0.00000000E+00
  -0.19100000E+01           0.00000000E+00
  -0.19000000E+01           0.00000000E+00
  -0.18900000E+01           0.00000000E+00
  -0.18800000E+01           0.00000000E+00
  -0.18700000E+01           0.00000000E+00
  -0.18600000E+01           0.00000000E+00
  -0.18500000E+01           0.00000000E+00
  -0.18400000E+01           0.00000000E+00
  -0.18300000E+01           0.00000000E+00
  -0.18200000E+01           0.00000000E+00
  -0.18100000E+01           0.00000000E+00
  -0.18000000E+01           0.00000000E+00
  -0.17900000E+01           0.00000000E+00
  -0.17800000E+01           0.00000000E+00
  -0.17700000E+01           0.00000000E+00
  -0.17600000E+01           0.00000000E+00
  -0.17500000E+01           0.00000000E+00
  -0.17400000E+01           0.00000000E+00
  -0.17300000E+01           0.00000000E+00
  -0.17200000E+01           0.00000000E+00
  -0.17100000E+01           0.00000000E+00
  -0.17000000E+01           0.00000000E+00
  -0.16900000E+01           0.00000000E+00
  -0.16800000E+01           0.00000000E+00
  -0.16700000E+01           0.00000000E+00
  -0.16600000E+01           0.00000000E+00
  -0.16500000E+01           0.00000000E+00
  -0.16400000E+01           0.00000000E+00
  -0.16300000E+01           0.00000000E+00
  -0.16200000E+01           0.00000000E+00
  -0.16100000E+01           0.00000000E+00
  -0.16000000E+01           0.00000000E+00
  -0.15900000E+01           0.00000000E+00
  -0.15800000E+01           0.00000000E+00
  -0.15700000E+01           0.00000000E+00
  -0.15600000E+01           0.00000000E+00
  -0.15500000E+01           0.00000000E+00
  -0.15400000E+01           0.00000000E+00
  -0.15300000E+01           0.00000000E+00
  -0.15200000E+01           0.00000000E+00
  -0.15100000E+01           0.00000000E+00
  -0.15000000E+01           0.00000000E+00
  -0.14900000E+01           0.00000000E+00
  -0.14800000E+01           0.00000000E+00
  -0.14700000E+01           0.00000000E+00
  -0.14600000E+01           0.00000000E+00
  -0.14500000E+01           0.00000000E+00
  -0.14400000E+01           0.00000000E+00
  -0.14300000E+01           0.00000000E+00
  -0.14200000E+01           0.00000000E+00
  -0.14100000E+01           0.00000000E+00
  -0.14000000E+01           0.00000000E+00
  -0.13900000E+01           0.00000000E+00
  -0.13800000E+01           0.00000000E+00
  -0.13700000E+01           0.00000000E+00
  -0.13600000E+01           0.00000000E+00
  -0.13500000E+01           0.00000000E+00
  -0.13400000E+01           0.00000000E+00
  -0.13300000E+01           0.00000000E+00
  -0.13200000E+01           0.00000000E+00
  -0.13100000E+01           0.00000000E+00
  -0.13000000E+01           0.00000000E+00
  -0.12900000E+01           0.00000000E+00
  -0.12800000E+01           0.00000000E+00
  -0.12700000E+01           0.00000000E+00
  -0.12600000E+01           0.00000000E+00
  -0.12500000E+01           0.00000000E+00
  -0.12400000E+01           0.00000000E+00
  -0.12300000E+01           0.00000000E+00
  -0.12200000E+01           0.00000000E+00
  -0.12100000E+01           0.00000000E+00
  -0.12000000E+01           0.00000000E+00
  -0.11900000E+01           0.00000000E+00
  -0.11800000E+01           0.00000000E+00
  -0.11700000E+01           0.00000000E+00
  -0.11600000E+01           0.00000000E+00
  -0.11500000E+01           0.00000000E+00
  -0.11400000E+01           0.00000000E+00
  -0.11300000E+01           0.00000000E+00
  -0.11200000E+01           0.00000000E+00
  -0.11100000E+01           0.00000000E+00
  -0.11000000E+01           0.00000000E+00
  -0.10900000E+01           0.00000000E+00
  -0.10800000E+01           0.00000000E+00
  -0.10700000E+01           0.00000000E+00
  -0.10600000E+01           0.00000000E+00
  -0.10500000E+01           0.00000000E+00
  -0.10400000E+01           0.00000000E+00
  -0.10300000E+01           0.00000000E+00
  -0.10200000E+01           0.00000000E+00
  -0.10100000E+01           0.00000000E+00
  -0.10000000E+01           0.00000000E+00
  -0.99000000E+00           0.00000000E+00
  -0.98000000E+00           0.00000000E+00
  -0.97000000E+00           0.00000000E+00
  -0.96000000E+00           0.00000000E+00
  -0.95000000E+00           0.00000000E+00
  -0.94000000E+00           0.00000000E+00
  -0.93000000E+00           0.00000000E+00
  -0.92000000E+00           0.00000000E+00
  -0.91000000E+00           0.00000000E+00
  -0.90000000E+00           0.00000000E+00
  -0.89000000E+00           0.00000000E+00
  -0.88000000E+00           0.00000000E+00
  -0.87000000E+00           0.00000000E+00
  -0.86000000E+00           0.00000000E+00
  -0.85000000E+00           0.00000000E+00
  -0.84000000E+00           0.00000000E+00
  -0.83000000E+00           0.00000000E+00
  -0.82000000E+00           0.00000000E+00
  -0.81000000E+00           0.00000000E+00
  -0.80000000E+00           0.00000000E+00
  -0.79000000E+00           0.00000000E+00
  -0.78000000E+00           0.00000000E+00
  -0.77000000E+00           0.00000000E+00
  -0.76000000E+00           0.00000000E+00
  -0.75000000E+00           0.00000000E+00
  -0.74000000E+00           0.00000000E+00
  -0.73000000E+00           0.00000000E+00
  -0.72000000E+00           0.00000000E+00
  -0.71000000E+00           0.00000000E+00
  -0.70000000E+00           0.00000000E+00
  -0.69000000E+00           0.00000000E+00
  -0.68000000E+00           0.00000000E+00
  -0.67000000E+00           0.00000000E+00
  -0.66000000E+00           0.00000000E+00
  -0.65000000E+00           0.00000000E+00
  -0.64000000E+00           0.00000000E+00
  -0.63000000E+00           0.00000000E+00
  -0.62000000E+00           0.00000000E+00
  -0.61000000E+00           0.00000000E+00
  -0.60000000E+00           0.00000000E+00
  -0.59000000E+00           0.00000000E+00
  -0.58000000E+00           0.00000000E+00
  -0.57000000E+00           0.00000000E+00
  -0.56000000E+00           0.00000000E+00
  -0.55000000E+00           0.00000000E+00
  -0.54000000E+00           0.00000000E+00
  -0.53000000E+00           0.00000000E+00
  -0.52000000E+00           0.00000000E+00
  -0.51000000E+00           0.00000000E+00
  -0.50000000E+00           0.00000000E+00
  -0.49000000E+00           0.00000000E+00
  -0.48000000E+00           0.00000000E+00
  -0.47000000E+00           0.00000000E+00
  -0.46000000E+00           0.00000000E+00
  -0.45000000E+00           0.00000000E+00
  -0.44000000E+00           0.00000000E+00
  -0.43000000E+00           0.00000000E+00
  -0.42000000E+00           0.00000000E+00
  -0.41000000E+00           0.00000000E+00
  -0.40000000E+00           0.00000000E+00
  -0.39000000E+00           0.00000000E+00
  -0.38000000E+00           0.00000000E+00
  -0.37000000E+00           0.00000000E+00
  -0.36000000E+00           0.00000000E+00
  -0.35000000E+00           0.00000000E+00
  -0.34000000E+00           0.00000000E+00
  -0.33000000E+00           0.00000000E+00
  -0.32000000E+00           0.00000000E+00
  -0.31000000E+00           0.00000000E+00
  -0.30000000E+00           0.00000000E+00
  -0.29000000E+00           0.00000000E+00
  -0.28000000E+00           0.00000000E+00
  -0.27000000E+00           0.00000000E+00
  -0.26000000E+00           0.00000000E+00
  -0.25000000E+00           0.00000000E+00
  -0.24000000E+00           0.00000000E+00
  -0.23000000E+00           0.00000000E+00
  -0.22000000E+00           0.00000000E+00
  -0.21000000E+00           0.00000000E+00
  -0.20000000E+00           0.00000000E+00
  -0.19000000E+00           0.00000000E+00
  -0.18000000E+00           0.00000000E+00
  -0.17000000E+00           0.00000000E+00
  -0.16000000E+00           0.00000000E+00
  -0.15000000E+00           0.00000000E+00
  -0.14000000E+00           0.00000000E+00
  -0.13000000E+00           0.00000000E+00
  -0.12000000E+00           0.00000000E+00
  -0.11000000E+00           0.00000000E+00
  -0.10000000E+00           0.00000000E+00
  -0.90000000E-01           0.00000000E+00
  -0.80000000E-01           0.00000000E+00
  -0.70000000E-01           0.00000000E+00
  -0.60000000E-01           0.00000000E+00
  -0.50000000E-01           0.00000000E+00
  -0.40000000E-01           0.00000000E+00
  -0.30000000E-01           0.00000000E+00
  -0.20000000E-01           0.00000000E+00
  -0.10000000E-01           0.00000000E+00
   0.00000000E+00           0.27481481E-02
   0.10000000E-01           0.64741975E-01
   0.20000000E-01           0.24236864E+00
   0.30000000E-01           0.52991679E+00
   0.40000000E-01           0.90309457E+00
   0.50000000E-01           0.13585054E+01
   0.60000000E-01           0.18693630E+01
   0.70000000E-01           0.23955000E+01
   0.80000000E-01           0.29373215E+01
   0.90000000E-01           0.34459160E+01
   0.10000000E+00           0.39247983E+01
   0.11000000E+00           0.43338235E+01
   0.12000000E+00           0.46656825E+01
   0.13000000E+00           0.49272010E+01
   0.14000000E+00           0.50917686E+01
   0.15000000E+00           0.51692373E+01
   0.16000000E+00           0.51610684E+01
   0.17000000E+00           0.50790449E+01
   0.18000000E+00           0.49291121E+01
   0.19000000E+00           0.47068531E+01
   0.20000000E+00           0.44354094E+01
   0.21000000E+00           0.41459442E+01
   0.22000000E+00           0.38214037E+01
   0.23000000E+00           0.34833321E+01
   0.24000000E+00           0.31449474E+01
   0.25000000E+00           0.28122249E+01
   0.26000000E+00           0.24900995E+01
   0.27000000E+00           0.21862509E+01
   0.28000000E+00           0.19066094E+01
   0.29000000E+00           0.16501193E+01
   0.30000000E+00           0.14083131E+01
   0.31000000E+00           0.11974849E+01
   0.32000000E+00           0.10125842E+01
   0.33000000E+00           0.84912840E+00
   0.34000000E+00           0.70591654E+00
   0.35000000E+00           0.58616420E+00
   0.36000000E+00           0.48122988E+00
   0.37000000E+00           0.39335802E+00
   0.38000000E+00           0.31885309E+00
   0.39000000E+00           0.25947333E+00
   0.40000000E+00           0.20967852E+00
   0.41000000E+00           0.16619284E+00
   0.42000000E+00           0.13217160E+00
   0.43000000E+00           0.10518642E+00
   0.44000000E+00           0.82449136E-01
   0.45000000E+00           0.64546914E-01
   0.46000000E+00           0.50276790E-01
   0.47000000E+00           0.39374074E-01
   0.48000000E+00           0.29641728E-01
   0.49000000E+00           0.23142963E-01
   0.50000000E+00           0.17781235E-01
   0.51000000E+00           0.12984198E-01
   0.52000000E+00           0.10026173E-01
   0.53000000E+00           0.76071605E-02
   0.54000000E+00           0.59701235E-02
   0.55000000E+00           0.43192593E-02
   0.56000000E+00           0.31903704E-02
   0.57000000E+00           0.23432099E-02
   0.58000000E+00           0.17464198E-02
   0.59000000E+00           0.13143210E-02
   0.60000000E+00           0.91703704E-03
   0.61000000E+00           0.58864198E-03
   0.62000000E+00           0.51530864E-03
   0.63000000E+00           0.32493827E-03
   0.64000000E+00           0.23851852E-03
   0.65000000E+00           0.13456790E-03
   0.66000000E+00           0.13654321E-03
   0.67000000E+00           0.10000000E-03
   0.68000000E+00           0.62716049E-04
   0.69000000E+00           0.28395062E-04
   0.70000000E+00           0.43950617E-04
   0.71000000E+00           0.64197531E-05
   0.72000000E+00           0.96296296E-05
   0.73000000E+00           0.11111111E-04
   0.74000000E+00           0.22222222E-05
   0.75000000E+00           0.39506173E-05
   0.76000000E+00           0.64197531E-05
   0.77000000E+00           0.17283951E-05
   0.78000000E+00           0.49382716E-05
   0.79000000E+00           0.51851852E-05
   0.80000000E+00           0.00000000E+00
   0.81000000E+00           0.24691358E-06
   0.82000000E+00           0.74074074E-06
   0.83000000E+00           0.00000000E+00
   0.84000000E+00           0.00000000E+00
   0.85000000E+00           0.00000000E+00
   0.86000000E+00           0.00000000E+00
   0.87000000E+00           0.00000000E+00
   0.88000000E+00           0.00000000E+00
   0.89000000E+00           0.00000000E+00
   0.90000000E+00           0.00000000E+00
   0.91000000E+00           0.00000000E+00
   0.92000000E+00           0.00000000E+00
   0.93000000E+00           0.00000000E+00
   0.94000000E+00           0.00000000E+00
   0.95000000E+00           0.00000000E+00
   0.96000000E+00           0.00000000E+00
   0.97000000E+00           0.00000000E+00
   0.98000000E+00           0.00000000E+00
   0.99000000E+00           0.00000000E+00
   0.10000000E+01           0.00000000E+00
   0.10100000E+01           0.00000000E+00
   0.10200000E+01           0.00000000E+00
   0.10300000E+01           0.00000000E+00
   0.10400000E+01           0.00000000E+00
   0.10500000E+01           0.74074074E-06
   0.10600000E+01           0.00000000E+00
   0.10700000E+01           0.00000000E+00
   0.10800000E+01           0.00000000E+00
   0.10900000E+01           0.00000000E+00
   0.11000000E+01           0.00000000E+00
   0.11100000E+01           0.00000000E+00
   0.11200000E+01           0.00000000E+00
   0.11300000E+01           0.00000000E+00
   0.11400000E+01           0.00000000E+00
   0.11500000E+01           0.00000000E+00
   0.11600000E+01           0.00000000E+00
   0.11700000E+01           0.24691358E-06
   0.11800000E+01           0.00000000E+00
   0.11900000E+01           0.00000000E+00
   0.12000000E+01           0.00000000E+00
   0.12100000E+01           0.00000000E+00
   0.12200000E+01           0.00000000E+00
   0.12300000E+01           0.00000000E+00
   0.12400000E+01           0.00000000E+00
   0.12500000E+01           0.00000000E+00
   0.12600000E+01           0.00000000E+00
   0.12700000E+01           0.00000000E+00
   0.12800000E+01           0.00000000E+00
   0.12900000E+01           0.00000000E+00
   0.13000000E+01           0.00000000E+00
   0.13100000E+01           0.00000000E+00
   0.13200000E+01           0.00000000E+00
   0.13300000E+01           0.00000000E+00
   0.13400000E+01           0.00000000E+00
   0.13500000E+01           0.00000000E+00
   0.13600000E+01           0.00000000E+00
   0.13700000E+01           0.00000000E+00
   0.13800000E+01           0.00000000E+00
   0.13900000E+01           0.00000000E+00
   0.14000000E+01           0.00000000E+00
   0.14100000E+01           0.00000000E+00
   0.14200000E+01           0.00000000E+00
   0.14300000E+01           0.00000000E+00
   0.14400000E+01           0.00000000E+00
   0.14500000E+01           0.00000000E+00
   0.14600000E+01           0.00000000E+00
   0.14700000E+01           0.24691358E-06
   0.14800000E+01           0.00000000E+00
   0.14900000E+01           0.00000000E+00
   0.15000000E+01           0.00000000E+00
   0.15100000E+01           0.00000000E+00
   0.15200000E+01           0.00000000E+00
   0.15300000E+01           0.00000000E+00
   0.15400000E+01           0.00000000E+00
   0.15500000E+01           0.00000000E+00
   0.15600000E+01           0.00000000E+00
   0.15700000E+01           0.00000000E+00
   0.15800000E+01           0.00000000E+00
   0.15900000E+01           0.00000000E+00
   0.16000000E+01           0.00000000E+00
   0.16100000E+01           0.00000000E+00
   0.16200000E+01           0.00000000E+00
   0.16300000E+01           0.00000000E+00
   0.16400000E+01           0.00000000E+00
   0.16500000E+01           0.00000000E+00
   0.16600000E+01           0.00000000E+00
   0.16700000E+01           0.00000000E+00
   0.16800000E+01           0.00000000E+00
   0.16900000E+01           0.00000000E+00
   0.17000000E+01           0.00000000E+00
   0.17100000E+01           0.00000000E+00
   0.17200000E+01           0.00000000E+00
   0.17300000E+01           0.00000000E+00
   0.17400000E+01           0.00000000E+00
   0.17500000E+01           0.00000000E+00
   0.17600000E+01           0.00000000E+00
   0.17700000E+01           0.00000000E+00
   0.17800000E+01           0.00000000E+00
   0.17900000E+01           0.00000000E+00
   0.18000000E+01           0.00000000E+00
   0.18100000E+01           0.00000000E+00
   0.18200000E+01           0.00000000E+00
   0.18300000E+01           0.00000000E+00
   0.18400000E+01           0.00000000E+00
   0.18500000E+01           0.00000000E+00
   0.18600000E+01           0.00000000E+00
   0.18700000E+01           0.00000000E+00
   0.18800000E+01           0.00000000E+00
   0.18900000E+01           0.00000000E+00
   0.19000000E+01           0.00000000E+00
   0.19100000E+01           0.00000000E+00
   0.19200000E+01           0.00000000E+00
   0.19300000E+01           0.00000000E+00
   0.19400000E+01           0.00000000E+00
   0.19500000E+01           0.00000000E+00
   0.19600000E+01           0.00000000E+00
   0.19700000E+01           0.00000000E+00
   0.19800000E+01           0.00000000E+00
   0.19900000E+01           0.00000000E+00
   0.20000000E+01           0.00000000E+00
   0.20100000E+01           0.00000000E+00
   0.20200000E+01           0.00000000E+00
   0.20300000E+01           0.00000000E+00
   0.20400000E+01           0.00000000E+00
   0.20500000E+01           0.00000000E+00
   0.20600000E+01           0.00000000E+00
   0.20700000E+01           0.00000000E+00
   0.20800000E+01           0.00000000E+00
   0.20900000E+01           0.00000000E+00
   0.21000000E+01           0.00000000E+00
   0.21100000E+01           0.00000000E+00
   0.21200000E+01           0.00000000E+00
   0.21300000E+01           0.00000000E+00
   0.21400000E+01           0.00000000E+00
   0.21500000E+01           0.00000000E+00
   0.21600000E+01           0.00000000E+00
   0.21700000E+01           0.00000000E+00
   0.21800000E+01           0.00000000E+00
   0.21900000E+01           0.00000000E+00
   0.22000000E+01           0.00000000E+00
   0.22100000E+01           0.00000000E+00
   0.22200000E+01           0.00000000E+00
   0.22300000E+01           0.00000000E+00
   0.22400000E+01           0.00000000E+00
   0.22500000E+01           0.00000000E+00
   0.22600000E+01           0.00000000E+00
   0.22700000E+01           0.00000000E+00
   0.22800000E+01           0.00000000E+00
   0.22900000E+01           0.00000000E+00
   0.23000000E+01           0.00000000E+00
   0.23100000E+01           0.00000000E+00
   0.23200000E+01           0.00000000E+00
   0.23300000E+01           0.00000000E+00
   0.23400000E+01           0.00000000E+00
   0.23500000E+01           0.00000000E+00
   0.23600000E+01           0.00000000E+00
   0.23700000E+01           0.00000000E+00
   0.23800000E+01           0.00000000E+00
   0.23900000E+01           0.00000000E+00
   0.24000000E+01           0.00000000E+00
   0.24100000E+01           0.00000000E+00
   0.24200000E+01           0.00000000E+00
   0.24300000E+01           0.00000000E+00
   0.24400000E+01           0.00000000E+00
   0.24500000E+01           0.00000000E+00
   0.24600000E+01           0.00000000E+00
   0.24700000E+01           0.00000000E+00
   0.24800000E+01           0.00000000E+00
   0.24900000E+01           0.00000000E+00
   0.25000000E+01           0.00000000E+00
   0.25100000E+01           0.00000000E+00
   0.25200000E+01           0.00000000E+00
   0.25300000E+01           0.00000000E+00
   0.25400000E+01           0.00000000E+00
   0.25500000E+01           0.00000000E+00
   0.25600000E+01           0.00000000E+00
   0.25700000E+01           0.00000000E+00
   0.25800000E+01           0.00000000E+00
   0.25900000E+01           0.00000000E+00
   0.26000000E+01           0.00000000E+00
   0.26100000E+01           0.00000000E+00
   0.26200000E+01           0.00000000E+00
   0.26300000E+01           0.00000000E+00
   0.26400000E+01           0.00000000E+00
   0.26500000E+01           0.00000000E+00
   0.26600000E+01           0.00000000E+00
   0.26700000E+01           0.00000000E+00
   0.26800000E+01           0.00000000E+00
   0.26900000E+01           0.00000000E+00
   0.27000000E+01           0.00000000E+00
   0.27100000E+01           0.00000000E+00
   0.27200000E+01           0.00000000E+00
   0.27300000E+01           0.00000000E+00
   0.27400000E+01           0.00000000E+00
   0.27500000E+01           0.00000000E+00
   0.27600000E+01           0.00000000E+00
   0.27700000E+01           0.00000000E+00
   0.27800000E+01           0.00000000E+00
   0.27900000E+01           0.00000000E+00
   0.28000000E+01           0.00000000E+00
   0.28100000E+01           0.00000000E+00
   0.28200000E+01           0.00000000E+00
   0.28300000E+01           0.00000000E+00
   0.28400000E+01           0.00000000E+00
   0.28500000E+01           0.00000000E+00
   0.28600000E+01           0.00000000E+00
   0.28700000E+01           0.00000000E+00
   0.28800000E+01           0.00000000E+00
   0.28900000E+01           0.00000000E+00
   0.29000000E+01           0.00000000E+00
   0.29100000E+01           0.00000000E+00
   0.29200000E+01           0.00000000E+00
   0.29300000E+01           0.00000000E+00
   0.29400000E+01           0.00000000E+00
   0.29500000E+01           0.00000000E+00
   0.29600000E+01           0.00000000E+00
   0.29700000E+01           0.00000000E+00
   0.29800000E+01           0.00000000E+00
   0.29900000E+01           0.00000000E+00
   0.30000000E+01           0.00000000E+00
   0.30100000E+01           0.00000000E+00
   0.30200000E+01           0.00000000E+00
   0.30300000E+01           0.00000000E+00
   0.30400000E+01           0.00000000E+00
   0.30500000E+01           0.00000000E+00
   0.30600000E+01           0.00000000E+00
   0.30700000E+01           0.00000000E+00
   0.30800000E+01           0.00000000E+00
   0.30900000E+01           0.00000000E+00
   0.31000000E+01           0.00000000E+00
   0.31100000E+01           0.00000000E+00
   0.31200000E+01           0.00000000E+00
   0.31300000E+01           0.00000000E+00
   0.31400000E+01           0.00000000E+00
   0.31500000E+01           0.00000000E+00
   0.31600000E+01           0.00000000E+00
   0.31700000E+01           0.00000000E+00
   0.31800000E+01           0.00000000E+00
   0.31900000E+01           0.00000000E+00
   0.32000000E+01           0.00000000E+00
   0.32100000E+01           0.00000000E+00
   0.32200000E+01           0.00000000E+00
   0.32300000E+01           0.00000000E+00
   0.32400000E+01           0.00000000E+00
   0.32500000E+01           0.00000000E+00
   0.32600000E+01           0.00000000E+00
   0.32700000E+01           0.00000000E+00
   0.32800000E+01           0.00000000E+00
   0.32900000E+01           0.00000000E+00
   0.33000000E+01           0.00000000E+00
   0.33100000E+01           0.00000000E+00
   0.33200000E+01           0.00000000E+00
   0.33300000E+01           0.00000000E+00
   0.33400000E+01           0.00000000E+00
   0.33500000E+01           0.00000000E+00
   0.33600000E+01           0.00000000E+00
   0.33700000E+01           0.00000000E+00
   0.33800000E+01           0.00000000E+00
   0.33900000E+01           0.00000000E+00
   0.34000000E+01           0.00000000E+00
   0.34100000E+01           0.00000000E+00
   0.34200000E+01           0.00000000E+00
   0.34300000E+01           0.00000000E+00
   0.34400000E+01           0.00000000E+00
   0.34500000E+01           0.00000000E+00
   0.34600000E+01           0.00000000E+00
   0.34700000E+01           0.00000000E+00
   0.34800000E+01           0.00000000E+00
   0.34900000E+01           0.00000000E+00
   0.35000000E+01           0.00000000E+00
   0.35100000E+01           0.00000000E+00
   0.35200000E+01           0.00000000E+00
   0.35300000E+01           0.00000000E+00
   0.35400000E+01           0.00000000E+00
   0.35500000E+01           0.00000000E+00
   0.35600000E+01           0.00000000E+00
   0.35700000E+01           0.00000000E+00
   0.35800000E+01           0.00000000E+00
   0.35900000E+01           0.00000000E+00
   0.36000000E+01           0.00000000E+00
   0.36100000E+01           0.00000000E+00
   0.36200000E+01           0.00000000E+00
   0.36300000E+01           0.00000000E+00
   0.36400000E+01           0.00000000E+00
   0.36500000E+01           0.00000000E+00
   0.36600000E+01           0.00000000E+00
   0.36700000E+01           0.00000000E+00
   0.36800000E+01           0.00000000E+00
   0.36900000E+01           0.00000000E+00
   0.37000000E+01           0.00000000E+00
   0.37100000E+01           0.00000000E+00
   0.37200000E+01           0.00000000E+00
   0.37300000E+01           0.00000000E+00
   0.37400000E+01           0.00000000E+00
   0.37500000E+01           0.00000000E+00
   0.37600000E+01           0.00000000E+00
   0.37700000E+01           0.00000000E+00
   0.37800000E+01           0.00000000E+00
   0.37900000E+01           0.00000000E+00
   0.38000000E+01           0.00000000E+00
   0.38100000E+01           0.00000000E+00
   0.38200000E+01           0.00000000E+00
   0.38300000E+01           0.00000000E+00
   0.38400000E+01           0.00000000E+00
   0.38500000E+01           0.00000000E+00
   0.38600000E+01           0.00000000E+00
   0.38700000E+01           0.00000000E+00
   0.38800000E+01           0.00000000E+00
   0.38900000E+01           0.00000000E+00
   0.39000000E+01           0.00000000E+00
   0.39100000E+01           0.00000000E+00
   0.39200000E+01           0.00000000E+00
   0.39300000E+01           0.00000000E+00
   0.39400000E+01           0.00000000E+00
   0.39500000E+01           0.00000000E+00
   0.39600000E+01           0.00000000E+00
   0.39700000E+01           0.00000000E+00
   0.39800000E+01           0.00000000E+00
   0.39900000E+01           0.00000000E+00
   0.40000000E+01           0.00000000E+00
   0.40100000E+01           0.00000000E+00
   0.40200000E+01           0.00000000E+00
   0.40300000E+01           0.00000000E+00
   0.40400000E+01           0.00000000E+00
   0.40500000E+01           0.00000000E+00
   0.40600000E+01           0.00000000E+00
   0.40700000E+01           0.00000000E+00
   0.40800000E+01           0.00000000E+00
   0.40900000E+01           0.00000000E+00
   0.41000000E+01           0.00000000E+00
   0.41100000E+01           0.00000000E+00
   0.41200000E+01           0.00000000E+00
   0.41300000E+01           0.00000000E+00
   0.41400000E+01           0.00000000E+00
   0.41500000E+01           0.00000000E+00
   0.41600000E+01           0.00000000E+00
   0.41700000E+01           0.00000000E+00
   0.41800000E+01           0.00000000E+00
   0.41900000E+01           0.00000000E+00
   0.42000000E+01           0.00000000E+00
   0.42100000E+01           0.00000000E+00
   0.42200000E+01           0.00000000E+00
   0.42300000E+01           0.00000000E+00
   0.42400000E+01           0.00000000E+00
   0.42500000E+01           0.00000000E+00
   0.42600000E+01           0.00000000E+00
   0.42700000E+01           0.00000000E+00
   0.42800000E+01           0.00000000E+00
   0.42900000E+01           0.00000000E+00
   0.43000000E+01           0.00000000E+00
   0.43100000E+01           0.00000000E+00
   0.43200000E+01           0.00000000E+00
   0.43300000E+01           0.00000000E+00
   0.43400000E+01           0.00000000E+00
   0.43500000E+01           0.00000000E+00
   0.43600000E+01           0.00000000E+00
   0.43700000E+01           0.00000000E+00
   0.43800000E+01           0.00000000E+00
   0.43900000E+01           0.00000000E+00
   0.44000000E+01           0.00000000E+00
   0.44100000E+01           0.00000000E+00
   0.44200000E+01           0.00000000E+00
   0.44300000E+01           0.00000000E+00
   0.44400000E+01           0.00000000E+00
   0.44500000E+01           0.00000000E+00
   0.44600000E+01           0.00000000E+00
   0.44700000E+01           0.00000000E+00
   0.44800000E+01           0.00000000E+00
   0.44900000E+01           0.00000000E+00
   0.45000000E+01           0.00000000E+00
   0.45100000E+01           0.00000000E+00
   0.45200000E+01           0.00000000E+00
   0.45300000E+01           0.00000000E+00
   0.45400000E+01           0.00000000E+00
   0.45500000E+01           0.00000000E+00
   0.45600000E+01           0.00000000E+00
   0.45700000E+01           0.00000000E+00
   0.45800000E+01           0.00000000E+00
   0.45900000E+01           0.00000000E+00
   0.46000000E+01           0.00000000E+00
   0.46100000E+01           0.00000000E+00
   0.46200000E+01           0.00000000E+00
   0.46300000E+01           0.00000000E+00
   0.46400000E+01           0.00000000E+00
   0.46500000E+01           0.00000000E+00
   0.46600000E+01           0.00000000E+00
   0.46700000E+01           0.00000000E+00
   0.46800000E+01           0.00000000E+00
   0.46900000E+01           0.00000000E+00
   0.47000000E+01           0.00000000E+00
   0.47100000E+01           0.00000000E+00
   0.47200000E+01           0.00000000E+00
   0.47300000E+01           0.00000000E+00
   0.47400000E+01           0.00000000E+00
   0.47500000E+01           0.00000000E+00
   0.47600000E+01           0.00000000E+00
   0.47700000E+01           0.00000000E+00
   0.47800000E+01           0.00000000E+00
   0.47900000E+01           0.00000000E+00
   0.48000000E+01           0.00000000E+00
   0.48100000E+01           0.00000000E+00
   0.48200000E+01           0.00000000E+00
   0.48300000E+01           0.00000000E+00
   0.48400000E+01           0.00000000E+00
   0.48500000E+01           0.00000000E+00
   0.48600000E+01           0.00000000E+00
   0.48700000E+01           0.00000000E+00
   0.48800000E+01           0.00000000E+00
   0.48900000E+01           0.00000000E+00
   0.49000000E+01           0.00000000E+00
   0.49100000E+01           0.00000000E+00
   0.49200000E+01           0.00000000E+00
   0.49300000E+01           0.00000000E+00
   0.49400000E+01           0.00000000E+00
   0.49500000E+01           0.00000000E+00
   0.49600000E+01           0.00000000E+00
   0.49700000E+01           0.00000000E+00
   0.49800000E+01           0.00000000E+00
   0.49900000E+01           0.00000000E+00
   0.50000000E+01           0.00000000E+00
   0.50100000E+01           0.00000000E+00
   0.50200000E+01           0.00000000E+00
   0.50300000E+01           0.00000000E+00
   0.50400000E+01           0.00000000E+00
   0.50500000E+01           0.00000000E+00
   0.50600000E+01           0.00000000E+00
   0.50700000E+01           0.00000000E+00
   0.50800000E+01           0.00000000E+00
   0.50900000E+01           0.00000000E+00
   0.51000000E+01           0.00000000E+00
   0.51100000E+01           0.00000000E+00
   0.51200000E+01           0.00000000E+00
   0.51300000E+01           0.00000000E+00
   0.51400000E+01           0.00000000E+00
   0.51500000E+01           0.00000000E+00
   0.51600000E+01           0.00000000E+00
   0.51700000E+01           0.00000000E+00
   0.51800000E+01           0.00000000E+00
   0.51900000E+01           0.00000000E+00
   0.52000000E+01           0.00000000E+00
   0.52100000E+01           0.00000000E+00
   0.52200000E+01           0.00000000E+00
   0.52300000E+01           0.00000000E+00
   0.52400000E+01           0.00000000E+00
   0.52500000E+01           0.00000000E+00
   0.52600000E+01           0.00000000E+00
   0.52700000E+01           0.00000000E+00
   0.52800000E+01           0.00000000E+00
   0.52900000E+01           0.00000000E+00
   0.53000000E+01           0.00000000E+00
   0.53100000E+01           0.00000000E+00
   0.53200000E+01           0.00000000E+00
   0.53300000E+01           0.00000000E+00
   0.53400000E+01           0.00000000E+00
   0.53500000E+01           0.00000000E+00
   0.53600000E+01           0.00000000E+00
   0.53700000E+01           0.00000000E+00
   0.53800000E+01           0.00000000E+00
   0.53900000E+01           0.00000000E+00
   0.54000000E+01           0.00000000E+00
   0.54100000E+01           0.00000000E+00
   0.54200000E+01           0.00000000E+00
   0.54300000E+01           0.00000000E+00
   0.54400000E+01           0.00000000E+00
   0.54500000E+01           0.00000000E+00
   0.54600000E+01           0.00000000E+00
   0.54700000E+01           0.00000000E+00
   0.54800000E+01           0.00000000E+00
   0.54900000E+01           0.00000000E+00
   0.55000000E+01           0.00000000E+00
   0.55100000E+01           0.00000000E+00
   0.55200000E+01           0.00000000E+00
   0.55300000E+01           0.00000000E+00
   0.55400000E+01           0.00000000E+00
   0.55500000E+01           0.00000000E+00
   0.55600000E+01           0.00000000E+00
   0.55700000E+01           0.00000000E+00
   0.55800000E+01           0.00000000E+00
   0.55900000E+01           0.00000000E+00
   0.56000000E+01           0.00000000E+00
   0.56100000E+01           0.00000000E+00
   0.56200000E+01           0.00000000E+00
   0.56300000E+01           0.00000000E+00
   0.56400000E+01           0.00000000E+00
   0.56500000E+01           0.00000000E+00
   0.56600000E+01           0.00000000E+00
   0.56700000E+01           0.00000000E+00
   0.56800000E+01           0.00000000E+00
   0.56900000E+01           0.00000000E+00
   0.57000000E+01           0.00000000E+00
   0.57100000E+01           0.00000000E+00
   0.57200000E+01           0.00000000E+00
   0.57300000E+01           0.00000000E+00
   0.57400000E+01           0.00000000E+00
   0.57500000E+01           0.00000000E+00
   0.57600000E+01           0.00000000E+00
   0.57700000E+01           0.00000000E+00
   0.57800000E+01           0.00000000E+00
   0.57900000E+01           0.00000000E+00
   0.58000000E+01           0.00000000E+00
   0.58100000E+01           0.00000000E+00
   0.58200000E+01           0.00000000E+00
   0.58300000E+01           0.00000000E+00
   0.58400000E+01           0.00000000E+00
   0.58500000E+01           0.00000000E+00
   0.58600000E+01           0.00000000E+00
   0.58700000E+01           0.00000000E+00
   0.58800000E+01           0.00000000E+00
   0.58900000E+01           0.00000000E+00
   0.59000000E+01           0.00000000E+00
   0.59100000E+01           0.00000000E+00
   0.59200000E+01           0.00000000E+00
   0.59300000E+01           0.00000000E+00
   0.59400000E+01           0.00000000E+00
   0.59500000E+01           0.00000000E+00
   0.59600000E+01           0.00000000E+00
   0.59700000E+01           0.00000000E+00
   0.59800000E+01           0.00000000E+00
   0.59900000E+01           0.00000000E+00
   0.60000000E+01           0.00000000E+00
 #T=     2.0000
  -0.60000000E+01           0.00000000E+00
  -0.59900000E+01           0.00000000E+00
  -0.59800000E+01           0.00000000E+00
  -0.59700000E+01           0.00000000E+00
  -0.59600000E+01           0.00000000E+00
  -0.59500000E+01           0.00000000E+00
  -0.59400000E+01           0.00000000E+00
  -0.59300000E+01           0.00000000E+00
  -0.59200000E+01           0.00000000E+00
  -0.59100000E+01           0.00000000E+00
  -0.59000000E+01           0.00000000E+00
  -0.58900000E+01           0.00000000E+00
  -0.58800000E+01           0.00000000E+00
  -0.58700000E+01           0.00000000E+00
  -0.58600000E+01           0.00000000E+00
  -0.58500000E+01           0.00000000E+00
  -0.58400000E+01           0.00000000E+00
  -0.58300000E+01           0.00000000E+00
  -0.58200000E+01           0.00000000E+00
  -0.58100000E+01           0.00000000E+00
  -0.58000000E+01           0.00000000E+00
  -0.57900000E+01           0.00000000E+00
  -0.57800000E+01           0.00000000E+00
  -0.57700000E+01           0.00000000E+00
  -0.57600000E+01           0.00000000E+00
  -0.57500000E+01           0.00000000E+00
  -0.57400000E+01           0.00000000E+00
  -0.57300000E+01           0.00000000E+00
  -0.57200000E+01           0.00000000E+00
  -0.57100000E+01           0.00000000E+00
  -0.57000000E+01           0.00000000E+00
  -0.56900000E+01           0.00000000E+00
  -0.56800000E+01           0.00000000E+00
  -0.56700000E+01           0.00000000E+00
  -0.56600000E+01           0.00000000E+00
  -0.56500000E+01           0.00000000E+00
  -0.56400000E+01           0.00000000E+00
  -0.56300000E+01           0.00000000E+00
  -0.56200000E+01           0.00000000E+00
  -0.56100000E+01           0.00000000E+00
  -0.56000000E+01           0.00000000E+00
  -0.55900000E+01           0.00000000E+00
  -0.55800000E+01           0.00000000E+00
  -0.55700000E+01           0.00000000E+00
  -0.55600000E+01           0.00000000E+00
  -0.55500000E+01           0.00000000E+00
  -0.55400000E+01           0.00000000E+00
  -0.55300000E+01           0.00000000E+00
  -0.55200000E+01           0.00000000E+00
  -0.55100000E+01           0.00000000E+00
  -0.55000000E+01           0.00000000E+00
  -0.54900000E+01           0.00000000E+00
  -0.54800000E+01           0.00000000E+00
  -0.54700000E+01           0.00000000E+00
  -0.54600000E+01           0.00000000E+00
  -0.54500000E+01           0.00000000E+00
  -0.54400000E+01           0.00000000E+00
  -0.54300000E+01           0.00000000E+00
  -0.54200000E+01           0.00000000E+00
  -0.54100000E+01           0.00000000E+00
  -0.54000000E+01           0.00000000E+00
  -0.53900000E+01           0.00000000E+00
  -0.53800000E+01           0.00000000E+00
  -0.53700000E+01           0.00000000E+00
  -0.53600000E+01           0.00000000E+00
  -0.53500000E+01           0.00000000E+00
  -0.53400000E+01           0.00000000E+00
  -0.53300000E+01           0.00000000E+00
  -0.53200000E+01           0.00000000E+00
  -0.53100000E+01           0.00000000E+00
  -0.53000000E+01           0.00000000E+00
  -0.52900000E+01           0.00000000E+00
  -0.52800000E+01           0.00000000E+00
  -0.52700000E+01           0.00000000E+00
  -0.52600000E+01           0.00000000E+00
  -0.52500000E+01           0.00000000E+00
  -0.52400000E+01           0.00000000E+00
  -0.52300000E+01           0.00000000E+00
  -0.52200000E+01           0.00000000E+00
  -0.52100000E+01           0.00000000E+00
  -0.52000000E+01           0.00000000E+00
  -0.51900000E+01           0.00000000E+00
  -0.51800000E+01           0.00000000E+00
  -0.51700000E+01           0.00000000E+00
  -0.51600000E+01           0.00000000E+00
  -0.51500000E+01           0.00000000E+00
  -0.51400000E+01           0.00000000E+00
  -0.51300000E+01           0.00000000E+00
  -0.51200000E+01           0.00000000E+00
  -0.51100000E+01           0.00000000E+00
  -0.51000000E+01           0.00000000E+00
  -0.50900000E+01           0.00000000E+00
  -0.50800000E+01           0.00000000E+00
  -0.50700000E+01           0.00000000E+00
  -0.50600000E+01           0.00000000E+00
  -0.50500000E+01           0.00000000E+00
  -0.50400000E+01           0.00000000E+00
  -0.50300000E+01           0.00000000E+00
  -0.50200000E+01           0.00000000E+00
  -0.50100000E+01           0.00000000E+00
  -0.50000000E+01           0.00000000E+00
  -0.49900000E+01           0.00000000E+00
  -0.49800000E+01           0.00000000E+00
  -0.49700000E+01           0.00000000E+00
  -0.49600000E+01           0.00000000E+00
  -0.49500000E+01           0.00000000E+00
  -0.49400000E+01           0.00000000E+00
  -0.49300000E+01           0.00000000E+00
  -0.49200000E+01           0.00000000E+00
  -0.49100000E+01           0.00000000E+00
  -0.49000000E+01           0.00000000E+00
  -0.48900000E+01           0.00000000E+00
  -0.48800000E+01           0.00000000E+00
  -0.48700000E+01           0.00000000E+00
  -0.48600000E+01           0.00000000E+00
  -0.48500000E+01           0.00000000E+00
  -0.48400000E+01           0.00000000E+00
  -0.48300000E+01           0.00000000E+00
  -0.48200000E+01           0.00000000E+00
  -0.48100000E+01           0.00000000E+00
  -0.48000000E+01           0.00000000E+00
  -0.47900000E+01           0.00000000E+00
  -0.47800000E+01           0.00000000E+00
  -0.47700000E+01           0.00000000E+00
  -0.47600000E+01           0.00000000E+00
  -0.47500000E+01           0.00000000E+00
  -0.47400000E+01           0.00000000E+00
  -0.47300000E+01           0.00000000E+00
  -0.47200000E+01           0.00000000E+00
  -0.47100000E+01           0.00000000E+00
  -0.47000000E+01           0.00000000E+00
  -0.46900000E+01           0.00000000E+00
  -0.46800000E+01           0.00000000E+00
  -0.46700000E+01           0.00000000E+00
  -0.46600000E+01           0.00000000E+00
  -0.46500000E+01           0.00000000E+00
  -0.46400000E+01           0.00000000E+00
  -0.46300000E+01           0.00000000E+00
  -0.46200000E+01           0.00000000E+00
  -0.46100000E+01           0.00000000E+00
  -0.46000000E+01           0.00000000E+00
  -0.45900000E+01           0.00000000E+00
  -0.45800000E+01           0.00000000E+00
  -0.45700000E+01           0.00000000E+00
  -0.45600000E+01           0.00000000E+00
  -0.45500000E+01           0.00000000E+00
  -0.45400000E+01           0.00000000E+00
  -0.45300000E+01           0.00000000E+00
  -0.45200000E+01           0.00000000E+00
  -0.45100000E+01           0.00000000E+00
  -0.45000000E+01           0.00000000E+00
  -0.44900000E+01           0.00000000E+00
  -0.44800000E+01           0.00000000E+00
  -0.44700000E+01           0.00000000E+00
  -0.44600000E+01           0.00000000E+00
  -0.44500000E+01           0.00000000E+00
  -0.44400000E+01           0.00000000E+00
  -0.44300000E+01           0.00000000E+00
  -0.44200000E+01           0.00000000E+00
  -0.44100000E+01           0.00000000E+00
  -0.44000000E+01           0.00000000E+00
  -0.43900000E+01           0.00000000E+00
  -0.43800000E+01           0.00000000E+00
  -0.43700000E+01           0.00000000E+00
  -0.43600000E+01           0.00000000E+00
  -0.43500000E+01           0.00000000E+00
  -0.43400000E+01           0.00000000E+00
  -0.43300000E+01           0.00000000E+00
  -0.43200000E+01           0.00000000E+00
  -0.43100000E+01           0.00000000E+00
  -0.43000000E+01           0.00000000E+00
  -0.42900000E+01           0.00000000E+00
  -0.42800000E+01           0.00000000E+00
  -0.42700000E+01           0.00000000E+00
  -0.42600000E+01           0.00000000E+00
  -0.42500000E+01           0.00000000E+00
  -0.42400000E+01           0.00000000E+00
  -0.42300000E+01           0.00000000E+00
  -0.42200000E+01           0.00000000E+00
  -0.42100000E+01           0.00000000E+00
  -0.42000000E+01           0.00000000E+00
  -0.41900000E+01           0.00000000E+00
  -0.41800000E+01           0.00000000E+00
  -0.41700000E+01           0.00000000E+00
  -0.41600000E+01           0.00000000E+00
  -0.41500000E+01           0.00000000E+00
  -0.41400000E+01           0.00000000E+00
  -0.41300000E+01           0.00000000E+00
  -0.41200000E+01           0.00000000E+00
  -0.41100000E+01           0.00000000E+00
  -0.41000000E+01           0.00000000E+00
  -0.40900000E+01           0.00000000E+00
  -0.40800000E+01           0.00000000E+00
  -0.40700000E+01           0.00000000E+00
  -0.40600000E+01           0.00000000E+00
  -0.40500000E+01           0.00000000E+00
  -0.40400000E+01           0.00000000E+00
  -0.40300000E+01           0.00000000E+00
  -0.40200000E+01           0.00000000E+00
  -0.40100000E+01           0.00000000E+00
  -0.40000000E+01           0.00000000E+00
  -0.39900000E+01           0.00000000E+00
  -0.39800000E+01           0.00000000E+00
  -0.39700000E+01           0.00000000E+00
  -0.39600000E+01           0.00000000E+00
  -0.39500000E+01           0.00000000E+00
  -0.39400000E+01           0.00000000E+00
  -0.39300000E+01           0.00000000E+00
  -0.39200000E+01           0.00000000E+00
  -0.39100000E+01           0.00000000E+00
  -0.39000000E+01           0.00000000E+00
  -0.38900000E+01           0.00000000E+00
  -0.38800000E+01           0.00000000E+00
  -0.38700000E+01           0.00000000E+00
  -0.38600000E+01           0.00000000E+00
  -0.38500000E+01           0.00000000E+00
  -0.38400000E+01           0.00000000E+00
  -0.38300000E+01           0.00000000E+00
  -0.38200000E+01           0.00000000E+00
  -0.38100000E+01           0.00000000E+00
  -0.38000000E+01           0.00000000E+00
  -0.37900000E+01           0.00000000E+00
  -0.37800000E+01           0.00000000E+00
  -0.37700000E+01           0.00000000E+00
  -0.37600000E+01           0.00000000E+00
  -0.37500000E+01           0.00000000E+00
  -0.37400000E+01           0.00000000E+00
  -0.37300000E+01           0.00000000E+00
  -0.37200000E+01           0.00000000E+00
  -0.37100000E+01           0.00000000E+00
  -0.37000000E+01           0.00000000E+00
  -0.36900000E+01           0.00000000E+00
  -0.36800000E+01           0.00000000E+00
  -0.36700000E+01           0.00000000E+00
  -0.36600000E+01           0.00000000E+00
  -0.36500000E+01           0.00000000E+00
  -0.36400000E+01           0.00000000E+00
  -0.36300000E+01           0.00000000E+00
  -0.36200000E+01           0.00000000E+00
  -0.36100000E+01           0.00000000E+00
  -0.36000000E+01           0.00000000E+00
  -0.35900000E+01           0.00000000E+00
  -0.35800000E+01           0.00000000E+00
  -0.35700000E+01           0.00000000E+00
  -0.35600000E+01           0.00000000E+00
  -0.35500000E+01           0.00000000E+00
  -0.35400000E+01           0.00000000E+00
  -0.35300000E+01           0.00000000E+00
  -0.35200000E+01           0.00000000E+00
  -0.35100000E+01           0.00000000E+00
  -0.35000000E+01           0.00000000E+00
  -0.34900000E+01           0.00000000E+00
  -0.34800000E+01           0.00000000E+00
  -0.34700000E+01           0.00000000E+00
  -0.34600000E+01           0.00000000E+00
  -0.34500000E+01           0.00000000E+00
  -0.34400000E+01           0.00000000E+00
  -0.34300000E+01           0.00000000E+00
  -0.34200000E+01           0.00000000E+00
  -0.34100000E+01           0.00000000E+00
  -0.34000000E+01           0.00000000E+00
  -0.33900000E+01           0.00000000E+00
  -0.33800000E+01           0.00000000E+00
  -0.33700000E+01           0.00000000E+00
  -0.33600000E+01           0.00000000E+00
  -0.33500000E+01           0.00000000E+00
  -0.33400000E+01           0.00000000E+00
  -0.33300000E+01           0.00000000E+00
  -0.33200000E+01           0.00000000E+00
  -0.33100000E+01           0.00000000E+00
  -0.33000000E+01           0.00000000E+00
  -0.32900000E+01           0.00000000E+00
  -0.32800000E+01           0.00000000E+00
  -0.32700000E+01           0.00000000E+00
  -0.32600000E+01           0.00000000E+00
  -0.32500000E+01           0.00000000E+00
  -0.32400000E+01           0.00000000E+00
  -0.32300000E+01           0.00000000E+00
  -0.32200000E+01           0.00000000E+00
  -0.32100000E+01           0.00000000E+00
  -0.32000000E+01           0.00000000E+00
  -0.31900000E+01           0.00000000E+00
  -0.31800000E+01           0.00000000E+00
  -0.31700000E+01           0.00000000E+00
  -0.31600000E+01           0.00000000E+00
  -0.31500000E+01           0.00000000E+00
  -0.31400000E+01           0.00000000E+00
  -0.31300000E+01           0.00000000E+00
  -0.31200000E+01           0.00000000E+00
  -0.31100000E+01           0.00000000E+00
  -0.31000000E+01           0.00000000E+00
  -0.30900000E+01           0.00000000E+00
  -0.30800000E+01           0.00000000E+00
  -0.30700000E+01           0.00000000E+00
  -0.30600000E+01           0.00000000E+00
  -0.30500000E+01           0.00000000E+00
  -0.30400000E+01           0.00000000E+00
  -0.30300000E+01           0.00000000E+00
  -0.30200000E+01           0.00000000E+00
  -0.30100000E+01           0.00000000E+00
  -0.30000000E+01           0.00000000E+00
  -0.29900000E+01           0.00000000E+00
  -0.29800000E+01           0.00000000E+00
  -0.29700000E+01           0.00000000E+00
  -0.29600000E+01           0.00000000E+00
  -0.29500000E+01           0.00000000E+00
  -0.29400000E+01           0.00000000E+00
  -0.29300000E+01           0.00000000E+00
  -0.29200000E+01           0.00000000E+00
  -0.29100000E+01           0.00000000E+00
  -0.29000000E+01           0.00000000E+00
  -0.28900000E+01           0.00000000E+00
  -0.28800000E+01           0.00000000E+00
  -0.28700000E+01           0.00000000E+00
  -0.28600000E+01           0.00000000E+00
  -0.28500000E+01           0.00000000E+00
  -0.28400000E+01           0.00000000E+00
  -0.28300000E+01           0.00000000E+00
  -0.28200000E+01           0.00000000E+00
  -0.28100000E+01           0.00000000E+00
  -0.28000000E+01           0.00000000E+00
  -0.27900000E+01           0.00000000E+00
  -0.27800000E+01           0.00000000E+00
  -0.27700000E+01           0.00000000E+00
  -0.27600000E+01           0.00000000E+00
  -0.27500000E+01           0.00000000E+00
  -0.27400000E+01           0.00000000E+00
  -0.27300000E+01           0.00000000E+00
  -0.27200000E+01           0.00000000E+00
  -0.27100000E+01           0.00000000E+00
  -0.27000000E+01           0.00000000E+00
  -0.26900000E+01           0.00000000E+00
  -0.26800000E+01           0.00000000E+00
  -0.26700000E+01           0.00000000E+00
  -0.26600000E+01           0.00000000E+00
  -0.26500000E+01           0.00000000E+00
  -0.26400000E+01           0.00000000E+00
  -0.26300000E+01           0.00000000E+00
  -0.26200000E+01           0.00000000E+00
  -0.26100000E+01           0.00000000E+00
  -0.26000000E+01           0.00000000E+00
  -0.25900000E+01           0.00000000E+00
  -0.25800000E+01           0.00000000E+00
  -0.25700000E+01           0.00000000E+00
  -0.25600000E+01           0.00000000E+00
  -0.25500000E+01           0.00000000E+00
  -0.25400000E+01           0.00000000E+00
  -0.25300000E+01           0.00000000E+00
  -0.25200000E+01           0.00000000E+00
  -0.25100000E+01           0.00000000E+00
  -0.25000000E+01           0.00000000E+00
  -0.24900000E+01           0.00000000E+00
  -0.24800000E+01           0.00000000E+00
  -0.24700000E+01           0.00000000E+00
  -0.24600000E+01           0.00000000E+00
  -0.24500000E+01           0.00000000E+00
  -0.24400000E+01           0.00000000E+00
  -0.24300000E+01           0.00000000E+00
  -0.24200000E+01           0.00000000E+00
  -0.24100000E+01           0.00000000E+00
  -0.24000000E+01           0.00000000E+00
  -0.23900000E+01           0.00000000E+00
  -0.23800000E+01           0.00000000E+00
  -0.23700000E+01           0.00000000E+00
  -0.23600000E+01           0.00000000E+00
  -0.23500000E+01           0.00000000E+00
  -0.23400000E+01           0.00000000E+00
  -0.23300000E+01           0.00000000E+00
  -0.23200000E+01           0.00000000E+00
  -0.23100000E+01           0.00000000E+00
  -0.23000000E+01           0.00000000E+00
  -0.22900000E+01           0.00000000E+00
  -0.22800000E+01           0.00000000E+00
  -0.22700000E+01           0.00000000E+00
  -0.22600000E+01           0.00000000E+00
  -0.22500000E+01           0.00000000E+00
  -0.22400000E+01           0.00000000E+00
  -0.22300000E+01           0.00000000E+00
  -0.22200000E+01           0.00000000E+00
  -0.22100000E+01           0.00000000E+00
  -0.22000000E+01           0.00000000E+00
  -0.21900000E+01           0.00000000E+00
  -0.21800000E+01           0.00000000E+00
  -0.21700000E+01           0.00000000E+00
  -0.21600000E+01           0.00000000E+00
  -0.21500000E+01           0.00000000E+00
  -0.21400000E+01           0.00000000E+00
  -0.21300000E+01           0.00000000E+00
  -0.21200000E+01           0.00000000E+00
  -0.21100000E+01           0.00000000E+00
  -0.21000000E+01           0.00000000E+00
  -0.20900000E+01           0.00000000E+00
  -0.20800000E+01           0.00000000E+00
  -0.20700000E+01           0.00000000E+00
  -0.20600000E+01           0.00000000E+00
  -0.20500000E+01           0.00000000E+00
  -0.20400000E+01           0.00000000E+00
  -0.20300000E+01           0.00000000E+00
  -0.20200000E+01           0.00000000E+00
  -0.20100000E+01           0.00000000E+00
  -0.20000000E+01           0.00000000E+00
  -0.19900000E+01           0.00000000E+00
  -0.19800000E+01           0.00000000E+00
  -0.19700000E+01           0.00000000E+00
  -0.19600000E+01           0.00000000E+00
  -0.19500000E+01           0.00000000E+00
  -0.19400000E+01           0.00000000E+00
  -0.19300000E+01           0.00000000E+00
  -0.19200000E+01           0.00000000E+00
  -0.19100000E+01           0.00000000E+00
  -0.19000000E+01           0.00000000E+00
  -0.18900000E+01           0.00000000E+00
  -0.18800000E+01           0.00000000E+00
  -0.18700000E+01           0.00000000E+00
  -0.18600000E+01           0.00000000E+00
  -0.18500000E+01           0.00000000E+00
  -0.18400000E+01           0.00000000E+00
  -0.18300000E+01           0.00000000E+00
  -0.18200000E+01           0.00000000E+00
  -0.18100000E+01           0.00000000E+00
  -0.18000000E+01           0.00000000E+00
  -0.17900000E+01           0.00000000E+00
  -0.17800000E+01           0.00000000E+00
  -0.17700000E+01           0.00000000E+00
  -0.17600000E+01           0.00000000E+00
  -0.17500000E+01           0.00000000E+00
  -0.17400000E+01           0.00000000E+00
  -0.17300000E+01           0.00000000E+00
  -0.17200000E+01           0.00000000E+00
  -0.17100000E+01           0.00000000E+00
  -0.17000000E+01           0.00000000E+00
  -0.16900000E+01           0.00000000E+00
  -0.16800000E+01           0.00000000E+00
  -0.16700000E+01           0.00000000E+00
  -0.16600000E+01           0.00000000E+00
  -0.16500000E+01           0.00000000E+00
  -0.16400000E+01           0.00000000E+00
  -0.16300000E+01           0.00000000E+00
  -0.16200000E+01           0.00000000E+00
  -0.16100000E+01           0.00000000E+00
  -0.16000000E+01           0.00000000E+00
  -0.15900000E+01           0.00000000E+00
  -0.15800000E+01           0.00000000E+00
  -0.15700000E+01           0.00000000E+00
  -0.15600000E+01           0.00000000E+00
  -0.15500000E+01           0.00000000E+00
  -0.15400000E+01           0.00000000E+00
  -0.15300000E+01           0.00000000E+00
  -0.15200000E+01           0.00000000E+00
  -0.15100000E+01           0.00000000E+00
  -0.15000000E+01           0.00000000E+00
  -0.14900000E+01           0.00000000E+00
  -0.14800000E+01           0.00000000E+00
  -0.14700000E+01           0.00000000E+00
  -0.14600000E+01           0.00000000E+00
  -0.14500000E+01           0.00000000E+00
  -0.14400000E+01           0.00000000E+00
  -0.14300000E+01           0.00000000E+00
  -0.14200000E+01           0.00000000E+00
  -0.14100000E+01           0.00000000E+00
  -0.14000000E+01           0.00000000E+00
  -0.13900000E+01           0.00000000E+00
  -0.13800000E+01           0.00000000E+00
  -0.13700000E+01           0.00000000E+00
  -0.13600000E+01           0.00000000E+00
  -0.13500000E+01           0.00000000E+00
  -0.13400000E+01           0.00000000E+00
  -0.13300000E+01           0.00000000E+00
  -0.13200000E+01           0.00000000E+00
  -0.13100000E+01           0.00000000E+00
  -0.13000000E+01           0.00000000E+00
  -0.12900000E+01           0.00000000E+00
  -0.12800000E+01           0.00000000E+00
  -0.12700000E+01           0.00000000E+00
  -0.12600000E+01           0.00000000E+00
  -0.12500000E+01           0.00000000E+00
  -0.12400000E+01           0.00000000E+00
  -0.12300000E+01           0.00000000E+00
  -0.12200000E+01           0.00000000E+00
  -0.12100000E+01           0.00000000E+00
  -0.12000000E+01           0.00000000E+00
  -0.11900000E+01           0.00000000E+00
  -0.11800000E+01           0.00000000E+00
  -0.11700000E+01           0.00000000E+00
  -0.11600000E+01           0.00000000E+00
  -0.11500000E+01           0.00000000E+00
  -0.11400000E+01           0.00000000E+00
  -0.11300000E+01           0.00000000E+00
  -0.11200000E+01           0.00000000E+00
  -0.11100000E+01           0.00000000E+00
  -0.11000000E+01           0.00000000E+00
  -0.10900000E+01           0.00000000E+00
  -0.10800000E+01           0.00000000E+00
  -0.10700000E+01           0.00000000E+00
  -0.10600000E+01           0.00000000E+00
  -0.10500000E+01           0.00000000E+00
  -0.10400000E+01           0.00000000E+00
  -0.10300000E+01           0.00000000E+00
  -0.10200000E+01           0.00000000E+00
  -0.10100000E+01           0.00000000E+00
  -0.10000000E+01           0.00000000E+00
  -0.99000000E+00           0.00000000E+00
  -0.98000000E+00           0.00000000E+00
  -0.97000000E+00           0.00000000E+00
  -0.96000000E+00           0.00000000E+00
  -0.95000000E+00           0.00000000E+00
  -0.94000000E+00           0.00000000E+00
  -0.93000000E+00           0.00000000E+00
  -0.92000000E+00           0.00000000E+00
  -0.91000000E+00           0.00000000E+00
  -0.90000000E+00           0.00000000E+00
  -0.89000000E+00           0.00000000E+00
  -0.88000000E+00           0.00000000E+00
  -0.87000000E+00           0.00000000E+00
  -0.86000000E+00           0.00000000E+00
  -0.85000000E+00           0.00000000E+00
  -0.84000000E+00           0.00000000E+00
  -0.83000000E+00           0.00000000E+00
  -0.82000000E+00           0.00000000E+00
  -0.81000000E+00           0.00000000E+00
  -0.80000000E+00           0.00000000E+00
  -0.79000000E+00           0.00000000E+00
  -0.78000000E+00           0.00000000E+00
  -0.77000000E+00           0.00000000E+00
  -0.76000000E+00           0.00000000E+00
  -0.75000000E+00           0.00000000E+00
  -0.74000000E+00           0.00000000E+00
  -0.73000000E+00           0.00000000E+00
  -0.72000000E+00           0.00000000E+00
  -0.71000000E+00           0.00000000E+00
  -0.70000000E+00           0.00000000E+00
  -0.69000000E+00           0.00000000E+00
  -0.68000000E+00           0.00000000E+00
  -0.67000000E+00           0.00000000E+00
  -0.66000000E+00           0.00000000E+00
  -0.65000000E+00           0.00000000E+00
  -0.64000000E+00           0.00000000E+00
  -0.63000000E+00           0.00000000E+00
  -0.62000000E+00           0.00000000E+00
  -0.61000000E+00           0.00000000E+00
  -0.60000000E+00           0.00000000E+00
  -0.59000000E+00           0.00000000E+00
  -0.58000000E+00           0.00000000E+00
  -0.57000000E+00           0.00000000E+00
  -0.56000000E+00           0.00000000E+00
  -0.55000000E+00           0.00000000E+00
  -0.54000000E+00           0.00000000E+00
  -0.53000000E+00           0.00000000E+00
  -0.52000000E+00           0.00000000E+00
  -0.51000000E+00           0.00000000E+00
  -0.50000000E+00           0.00000000E+00
  -0.49000000E+00           0.00000000E+00
  -0.48000000E+00           0.00000000E+00
  -0.47000000E+00           0.00000000E+00
  -0.46000000E+00           0.00000000E+00
  -0.45000000E+00           0.00000000E+00
  -0.44000000E+00           0.00000000E+00
  -0.43000000E+00           0.00000000E+00
  -0.42000000E+00           0.00000000E+00
  -0.41000000E+00           0.00000000E+00
  -0.40000000E+00           0.00000000E+00
  -0.39000000E+00           0.00000000E+00
  -0.38000000E+00           0.00000000E+00
  -0.37000000E+00           0.00000000E+00
  -0.36000000E+00           0.00000000E+00
  -0.35000000E+00           0.00000000E+00
  -0.34000000E+00           0.00000000E+00
  -0.33000000E+00           0.00000000E+00
  -0.32000000E+00           0.00000000E+00
  -0.31000000E+00           0.00000000E+00
  -0.30000000E+00           0.00000000E+00
  -0.29000000E+00           0.00000000E+00
  -0.28000000E+00           0.00000000E+00
  -0.27000000E+00           0.00000000E+00
  -0.26000000E+00           0.00000000E+00
  -0.25000000E+00           0.00000000E+00
  -0.24000000E+00           0.00000000E+00
  -0.23000000E+00           0.00000000E+00
  -0.22000000E+00           0.00000000E+00
  -0.21000000E+00           0.00000000E+00
  -0.20000000E+00           0.00000000E+00
  -0.19000000E+00           0.00000000E+00
  -0.18000000E+00           0.00000000E+00
  -0.17000000E+00           0.00000000E+00
  -0.16000000E+00           0.00000000E+00
  -0.15000000E+00           0.00000000E+00
  -0.14000000E+00           0.00000000E+00
  -0.13000000E+00           0.00000000E+00
  -0.12000000E+00           0.00000000E+00
  -0.11000000E+00           0.00000000E+00
  -0.10000000E+00           0.00000000E+00
  -0.90000000E-01           0.00000000E+00
  -0.80000000E-01           0.00000000E+00
  -0.70000000E-01           0.00000000E+00
  -0.60000000E-01           0.00000000E+00
  -0.50000000E-01           0.00000000E+00
  -0.40000000E-01           0.00000000E+00
  -0.30000000E-01           0.00000000E+00
  -0.20000000E-01           0.00000000E+00
  -0.10000000E-01           0.00000000E+00
   0.00000000E+00           0.88246914E-03
   0.10000000E-01           0.22751111E-01
   0.20000000E-01           0.85433827E-01
   0.30000000E-01           0.18898074E+00
   0.40000000E-01           0.32915235E+00
   0.50000000E-01           0.50834568E+00
   0.60000000E-01           0.71235457E+00
   0.70000000E-01           0.94275383E+00
   0.80000000E-01           0.11882123E+01
   0.90000000E-01           0.14494444E+01
   0.10000000E+00           0.17136635E+01
   0.11000000E+00           0.19785067E+01
   0.12000000E+00           0.22418151E+01
   0.13000000E+00           0.24967274E+01
   0.14000000E+00           0.27268079E+01
   0.15000000E+00           0.29449467E+01
   0.16000000E+00           0.31317096E+01
   0.17000000E+00           0.33018565E+01
   0.18000000E+00           0.34358672E+01
   0.19000000E+00           0.35346914E+01
   0.20000000E+00           0.36053980E+01
   0.21000000E+00           0.36478857E+01
   0.22000000E+00           0.36574111E+01
   0.23000000E+00           0.36363795E+01
   0.24000000E+00           0.35861765E+01
   0.25000000E+00           0.35195588E+01
   0.26000000E+00           0.34301968E+01
   0.27000000E+00           0.33124951E+01
   0.28000000E+00           0.31860309E+01
   0.29000000E+00           0.30442474E+01
   0.30000000E+00           0.28891894E+01
   0.31000000E+00           0.27364827E+01
   0.32000000E+00           0.25649728E+01
   0.33000000E+00           0.23919879E+01
   0.34000000E+00           0.22177958E+01
   0.35000000E+00           0.20530348E+01
   0.36000000E+00           0.18928881E+01
   0.37000000E+00           0.17357343E+01
   0.38000000E+00           0.15798111E+01
   0.39000000E+00           0.14339151E+01
   0.40000000E+00           0.12973314E+01
   0.41000000E+00           0.11697331E+01
   0.42000000E+00           0.10470993E+01
   0.43000000E+00           0.93682691E+00
   0.44000000E+00           0.83537951E+00
   0.45000000E+00           0.74276444E+00
   0.46000000E+00           0.65826716E+00
   0.47000000E+00           0.57859802E+00
   0.48000000E+00           0.50651901E+00
   0.49000000E+00           0.44450741E+00
   0.50000000E+00           0.39002667E+00
   0.51000000E+00           0.33736691E+00
   0.52000000E+00           0.29436988E+00
   0.53000000E+00           0.25365975E+00
[...]
   0.13600000E+01           0.50399654E+00
   0.13700000E+01           0.50604988E+00
   0.13800000E+01           0.50713457E+00
   0.13900000E+01           0.50968519E+00
   0.14000000E+01           0.51170198E+00
   0.14100000E+01           0.51407654E+00
   0.14200000E+01           0.51491704E+00
   0.14300000E+01           0.51653679E+00
   0.14400000E+01           0.51839136E+00
   0.14500000E+01           0.52004914E+00
   0.14600000E+01           0.52080593E+00
   0.14700000E+01           0.52226321E+00
   0.14800000E+01           0.52311432E+00
   0.14900000E+01           0.52419383E+00
   0.15000000E+01           0.52558790E+00
   0.15100000E+01           0.52588864E+00
   0.15200000E+01           0.52580790E+00
   0.15300000E+01           0.52818617E+00
   0.15400000E+01           0.52810543E+00
   0.15500000E+01           0.52853605E+00
   0.15600000E+01           0.52939877E+00
   0.15700000E+01           0.52978049E+00
   0.15800000E+01           0.52944741E+00
   0.15900000E+01           0.53003210E+00
   0.16000000E+01           0.52990074E+00
   0.16100000E+01           0.53035012E+00
   0.16200000E+01           0.52965704E+00
   0.16300000E+01           0.53012247E+00
   0.16400000E+01           0.52976494E+00
   0.16500000E+01           0.52896938E+00
   0.16600000E+01           0.52892123E+00
   0.16700000E+01           0.52829012E+00
   0.16800000E+01           0.52775580E+00
   0.16900000E+01           0.52728494E+00
   0.17000000E+01           0.52654568E+00
   0.17100000E+01           0.52577160E+00
   0.17200000E+01           0.52511210E+00
   0.17300000E+01           0.52379062E+00
   0.17400000E+01           0.52270840E+00
   0.17500000E+01           0.52163654E+00
   0.17600000E+01           0.52027309E+00
   0.17700000E+01           0.51907457E+00
   0.17800000E+01           0.51699481E+00
   0.17900000E+01           0.51675160E+00
   0.18000000E+01           0.51497284E+00
   0.18100000E+01           0.51303037E+00
   0.18200000E+01           0.51146272E+00
   0.18300000E+01           0.50982494E+00
   0.18400000E+01           0.50806395E+00
   0.18500000E+01           0.50651062E+00
   0.18600000E+01           0.50401778E+00
   0.18700000E+01           0.50243506E+00
   0.18800000E+01           0.50079457E+00
   0.18900000E+01           0.49816222E+00
   0.19000000E+01           0.49559975E+00
   0.19100000E+01           0.49369185E+00
   0.19200000E+01           0.49115951E+00
   0.19300000E+01           0.48885951E+00
   0.19400000E+01           0.48611457E+00
   0.19500000E+01           0.48378988E+00
   0.19600000E+01           0.48177827E+00
   0.19700000E+01           0.47847383E+00
   0.19800000E+01           0.47591160E+00
   0.19900000E+01           0.47302543E+00
   0.20000000E+01           0.47079407E+00
   0.20100000E+01           0.46733111E+00
   0.20200000E+01           0.46567802E+00
   0.20300000E+01           0.46192741E+00
   0.20400000E+01           0.45971728E+00
   0.20500000E+01           0.45561630E+00
   0.20600000E+01           0.45327333E+00
   0.20700000E+01           0.45073333E+00
   0.20800000E+01           0.44730025E+00
   0.20900000E+01           0.44385136E+00
   0.21000000E+01           0.44120691E+00
   0.21100000E+01           0.43787827E+00
   0.21200000E+01           0.43460346E+00
   0.21300000E+01           0.43138963E+00
   0.21400000E+01           0.42809975E+00
   0.21500000E+01           0.42439877E+00
   0.21600000E+01           0.42149210E+00
   0.21700000E+01           0.41830444E+00
   0.21800000E+01           0.41409753E+00
   0.21900000E+01           0.41030049E+00
   0.22000000E+01           0.40771309E+00
   0.22100000E+01           0.40359827E+00
   0.22200000E+01           0.40059975E+00
   0.22300000E+01           0.39680494E+00
   0.22400000E+01           0.39342963E+00
   0.22500000E+01           0.39025111E+00
   0.22600000E+01           0.38696123E+00
   0.22700000E+01           0.38230444E+00
   0.22800000E+01           0.37931062E+00
   0.22900000E+01           0.37588642E+00
   0.23000000E+01           0.37171852E+00
   0.23100000E+01           0.36878988E+00
   0.23200000E+01           0.36496790E+00
   0.23300000E+01           0.36109753E+00
   0.23400000E+01           0.35779111E+00
   0.23500000E+01           0.35430494E+00
   0.23600000E+01           0.35025802E+00
   0.23700000E+01           0.34694099E+00
   0.23800000E+01           0.34328889E+00
   0.23900000E+01           0.33957506E+00
   0.24000000E+01           0.33580148E+00
   0.24100000E+01           0.33243185E+00
   0.24200000E+01           0.32852222E+00
   0.24300000E+01           0.32428469E+00
   0.24400000E+01           0.32098173E+00
   0.24500000E+01           0.31748395E+00
   0.24600000E+01           0.31407901E+00
   0.24700000E+01           0.30975210E+00
   0.24800000E+01           0.30661605E+00
   0.24900000E+01           0.30282741E+00
   0.25000000E+01           0.29938469E+00
   0.25100000E+01           0.29580988E+00
   0.25200000E+01           0.29233951E+00
   0.25300000E+01           0.28865037E+00
   0.25400000E+01           0.28499358E+00
   0.25500000E+01           0.28092395E+00
   0.25600000E+01           0.27761481E+00
   0.25700000E+01           0.27410840E+00
   0.25800000E+01           0.27009457E+00
   0.25900000E+01           0.26709235E+00
   0.26000000E+01           0.26379432E+00
   0.26100000E+01           0.26024815E+00
   0.26200000E+01           0.25682765E+00
   0.26300000E+01           0.25336889E+00
   0.26400000E+01           0.24979531E+00
   0.26500000E+01           0.24643704E+00
   0.26600000E+01           0.24286519E+00
   0.26700000E+01           0.23940346E+00
   0.26800000E+01           0.23601901E+00
   0.26900000E+01           0.23268716E+00
   0.27000000E+01           0.22950568E+00
   0.27100000E+01           0.22595654E+00
   0.27200000E+01           0.22240173E+00
   0.27300000E+01           0.21967531E+00
   0.27400000E+01           0.21624173E+00
   0.27500000E+01           0.21306198E+00
   0.27600000E+01           0.20996889E+00
   0.27700000E+01           0.20684469E+00
   0.27800000E+01           0.20360716E+00
   0.27900000E+01           0.20026296E+00
   0.28000000E+01           0.19755827E+00
   0.28100000E+01           0.19431531E+00
   0.28200000E+01           0.19115235E+00
   0.28300000E+01           0.18792420E+00
   0.28400000E+01           0.18503210E+00
   0.28500000E+01           0.18238815E+00
   0.28600000E+01           0.17931506E+00
   0.28700000E+01           0.17640420E+00
   0.28800000E+01           0.17343926E+00
   0.28900000E+01           0.17086395E+00
   0.29000000E+01           0.16766346E+00
   0.29100000E+01           0.16493728E+00
   0.29200000E+01           0.16238815E+00
   0.29300000E+01           0.15930914E+00
   0.29400000E+01           0.15657605E+00
   0.29500000E+01           0.15391901E+00
   0.29600000E+01           0.15138815E+00
   0.29700000E+01           0.14904222E+00
   0.29800000E+01           0.14603136E+00
   0.29900000E+01           0.14303901E+00
   0.30000000E+01           0.14069309E+00
   0.30100000E+01           0.13833753E+00
   0.30200000E+01           0.13547975E+00
   0.30300000E+01           0.13325235E+00
   0.30400000E+01           0.13084222E+00
   0.30500000E+01           0.12830642E+00
   0.30600000E+01           0.12592914E+00
   0.30700000E+01           0.12377654E+00
   0.30800000E+01           0.12152988E+00
   0.30900000E+01           0.11891926E+00
   0.31000000E+01           0.11665259E+00
   0.31100000E+01           0.11485728E+00
   0.31200000E+01           0.11229210E+00
   0.31300000E+01           0.11042519E+00
   0.31400000E+01           0.10801704E+00
   0.31500000E+01           0.10602988E+00
   0.31600000E+01           0.10389531E+00
   0.31700000E+01           0.10196444E+00
   0.31800000E+01           0.99820247E-01
   0.31900000E+01           0.97617778E-01
   0.32000000E+01           0.95710370E-01
   0.32100000E+01           0.93887654E-01
   0.32200000E+01           0.91889136E-01
   0.32300000E+01           0.89814074E-01
   0.32400000E+01           0.88161728E-01
   0.32500000E+01           0.86001728E-01
   0.32600000E+01           0.84506420E-01
   0.32700000E+01           0.82531852E-01
   0.32800000E+01           0.81293827E-01
   0.32900000E+01           0.78975802E-01
   0.33000000E+01           0.77358765E-01
   0.33100000E+01           0.75590617E-01
   0.33200000E+01           0.74365432E-01
   0.33300000E+01           0.72449136E-01
   0.33400000E+01           0.70855062E-01
   0.33500000E+01           0.69376543E-01
   0.33600000E+01           0.68086173E-01
   0.33700000E+01           0.66483210E-01
   0.33800000E+01           0.64848395E-01
   0.33900000E+01           0.63276543E-01
   0.34000000E+01           0.61973827E-01
   0.34100000E+01           0.60478765E-01
   0.34200000E+01           0.59076049E-01
   0.34300000E+01           0.57652099E-01
   0.34400000E+01           0.56528642E-01
   0.34500000E+01           0.55069877E-01
   0.34600000E+01           0.53724198E-01
   0.34700000E+01           0.52372840E-01
   0.34800000E+01           0.51245185E-01
   0.34900000E+01           0.49920247E-01
   0.35000000E+01           0.48776049E-01
   0.35100000E+01           0.47562469E-01
   0.35200000E+01           0.46100741E-01
   0.35300000E+01           0.45321975E-01
   0.35400000E+01           0.44126667E-01
   0.35500000E+01           0.43102963E-01
   0.35600000E+01           0.41892593E-01
   0.35700000E+01           0.40838025E-01
   0.35800000E+01           0.39832346E-01
   0.35900000E+01           0.38828148E-01
   0.36000000E+01           0.38027407E-01
   0.36100000E+01           0.36814074E-01
   0.36200000E+01           0.35980741E-01
   0.36300000E+01           0.34985679E-01
   0.36400000E+01           0.34118025E-01
   0.36500000E+01           0.33166173E-01
   0.36600000E+01           0.32212099E-01
   0.36700000E+01           0.31388395E-01
   0.36800000E+01           0.30584691E-01
   0.36900000E+01           0.29898519E-01
   0.37000000E+01           0.28889630E-01
   0.37100000E+01           0.28241481E-01
   0.37200000E+01           0.27498519E-01
   0.37300000E+01           0.26510123E-01
   0.37400000E+01           0.26035556E-01
   0.37500000E+01           0.25272840E-01
   0.37600000E+01           0.24663951E-01
   0.37700000E+01           0.23848889E-01
   0.37800000E+01           0.23173580E-01
   0.37900000E+01           0.22642963E-01
   0.38000000E+01           0.21898519E-01
   0.38100000E+01           0.21247407E-01
   0.38200000E+01           0.20839506E-01
   0.38300000E+01           0.20144938E-01
   0.38400000E+01           0.19570370E-01
   0.38500000E+01           0.18929383E-01
   0.38600000E+01           0.18433333E-01
   0.38700000E+01           0.17922963E-01
   0.38800000E+01           0.17290370E-01
   0.38900000E+01           0.16778519E-01
   0.39000000E+01           0.16424198E-01
   0.39100000E+01           0.15783951E-01
   0.39200000E+01           0.15324938E-01
   0.39300000E+01           0.15025679E-01
   0.39400000E+01           0.14533333E-01
   0.39500000E+01           0.14082963E-01
   0.39600000E+01           0.13673827E-01
   0.39700000E+01           0.13288889E-01
   0.39800000E+01           0.12750617E-01
   0.39900000E+01           0.12428889E-01
   0.40000000E+01           0.12025185E-01
   0.40100000E+01           0.11650123E-01
   0.40200000E+01           0.11268642E-01
   0.40300000E+01           0.10965432E-01
   0.40400000E+01           0.10533827E-01
   0.40500000E+01           0.10293086E-01
   0.40600000E+01           0.98182716E-02
   0.40700000E+01           0.96135802E-02
   0.40800000E+01           0.92923457E-02
   0.40900000E+01           0.89575309E-02
   0.41000000E+01           0.87306173E-02
   0.41100000E+01           0.84580247E-02
   0.41200000E+01           0.81666667E-02
   0.41300000E+01           0.80165432E-02
   0.41400000E+01           0.75711111E-02
   0.41500000E+01           0.73797531E-02
   0.41600000E+01           0.71232099E-02
   0.41700000E+01           0.68832099E-02
   0.41800000E+01           0.66350617E-02
   0.41900000E+01           0.64222222E-02
   0.42000000E+01           0.61955556E-02
   0.42100000E+01           0.59940741E-02
   0.42200000E+01           0.57975309E-02
   0.42300000E+01           0.56261728E-02
   0.42400000E+01           0.53804938E-02
   0.42500000E+01           0.52086420E-02
   0.42600000E+01           0.50523457E-02
   0.42700000E+01           0.48955556E-02
   0.42800000E+01           0.46980247E-02
   0.42900000E+01           0.45451852E-02
   0.43000000E+01           0.43390123E-02
   0.43100000E+01           0.42051852E-02
   0.43200000E+01           0.40313580E-02
   0.43300000E+01           0.39039506E-02
   0.43400000E+01           0.37837037E-02
   0.43500000E+01           0.36483951E-02
   0.43600000E+01           0.35422222E-02
   0.43700000E+01           0.33562963E-02
   0.43800000E+01           0.32271605E-02
   0.43900000E+01           0.31123457E-02
   0.44000000E+01           0.30046914E-02
   0.44100000E+01           0.29138272E-02
   0.44200000E+01           0.28471605E-02
   0.44300000E+01           0.26804938E-02
   0.44400000E+01           0.25632099E-02
   0.44500000E+01           0.24382716E-02
   0.44600000E+01           0.23792593E-02
   0.44700000E+01           0.22656790E-02
   0.44800000E+01           0.21745679E-02
   0.44900000E+01           0.20920988E-02
   0.45000000E+01           0.20390123E-02
   0.45100000E+01           0.19417284E-02
   0.45200000E+01           0.18607407E-02
   0.45300000E+01           0.17765432E-02
   0.45400000E+01           0.17229630E-02
   0.45500000E+01           0.16520988E-02
   0.45600000E+01           0.16306173E-02
   0.45700000E+01           0.15007407E-02
   0.45800000E+01           0.14691358E-02
   0.45900000E+01           0.14160494E-02
   0.46000000E+01           0.13096296E-02
   0.46100000E+01           0.12713580E-02
   0.46200000E+01           0.12479012E-02
   0.46300000E+01           0.11846914E-02
   0.46400000E+01           0.10903704E-02
   0.46500000E+01           0.10938272E-02
   0.46600000E+01           0.10407407E-02
   0.46700000E+01           0.98962963E-03
   0.46800000E+01           0.92222222E-03
   0.46900000E+01           0.88641975E-03
   0.47000000E+01           0.87308642E-03
   0.47100000E+01           0.82987654E-03
   0.47200000E+01           0.77358025E-03
   0.47300000E+01           0.74493827E-03
   0.47400000E+01           0.72691358E-03
   0.47500000E+01           0.70000000E-03
   0.47600000E+01           0.64987654E-03
   0.47700000E+01           0.62444444E-03
   0.47800000E+01           0.59382716E-03
   0.47900000E+01           0.56469136E-03
   0.48000000E+01           0.54913580E-03
   0.48100000E+01           0.51111111E-03
   0.48200000E+01           0.49728395E-03
   0.48300000E+01           0.46246914E-03
   0.48400000E+01           0.45629630E-03
   0.48500000E+01           0.43333333E-03
   0.48600000E+01           0.41259259E-03
   0.48700000E+01           0.39950617E-03
   0.48800000E+01           0.37234568E-03
   0.48900000E+01           0.35530864E-03
   0.49000000E+01           0.34000000E-03
   0.49100000E+01           0.32666667E-03
   0.49200000E+01           0.32271605E-03
   0.49300000E+01           0.28518519E-03
   0.49400000E+01           0.25407407E-03
   0.49500000E+01           0.26543210E-03
   0.49600000E+01           0.25061728E-03
   0.49700000E+01           0.22716049E-03
   0.49800000E+01           0.21382716E-03
   0.49900000E+01           0.20888889E-03
   0.50000000E+01           0.19901235E-03
   0.50100000E+01           0.17728395E-03
   0.50200000E+01           0.17827160E-03
   0.50300000E+01           0.15728395E-03
   0.50400000E+01           0.15308642E-03
   0.50500000E+01           0.13851852E-03
   0.50600000E+01           0.13061728E-03
   0.50700000E+01           0.14148148E-03
   0.50800000E+01           0.13086420E-03
   0.50900000E+01           0.10271605E-03
   0.51000000E+01           0.10814815E-03
   0.51100000E+01           0.87654321E-04
   0.51200000E+01           0.10024691E-03
   0.51300000E+01           0.85185185E-04
   0.51400000E+01           0.76790123E-04
   0.51500000E+01           0.81728395E-04
   0.51600000E+01           0.81975309E-04
   0.51700000E+01           0.73827160E-04
   0.51800000E+01           0.68641975E-04
   0.51900000E+01           0.65432099E-04
   0.52000000E+01           0.54320988E-04
   0.52100000E+01           0.48888889E-04
   0.52200000E+01           0.50864198E-04
   0.52300000E+01           0.50864198E-04
   0.52400000E+01           0.45432099E-04
   0.52500000E+01           0.42962963E-04
   0.52600000E+01           0.35802469E-04
   0.52700000E+01           0.38518519E-04
   0.52800000E+01           0.28395062E-04
   0.52900000E+01           0.29629630E-04
   0.53000000E+01           0.33827160E-04
   0.53100000E+01           0.23456790E-04
   0.53200000E+01           0.22469136E-04
   0.53300000E+01           0.21728395E-04
   0.53400000E+01           0.22222222E-04
   0.53500000E+01           0.17037037E-04
   0.53600000E+01           0.17777778E-04
   0.53700000E+01           0.15061728E-04
   0.53800000E+01           0.14074074E-04
   0.53900000E+01           0.11358025E-04
   0.54000000E+01           0.14074074E-04
   0.54100000E+01           0.96296296E-05
   0.54200000E+01           0.11111111E-04
   0.54300000E+01           0.11604938E-04
   0.54400000E+01           0.10370370E-04
   0.54500000E+01           0.51851852E-05
   0.54600000E+01           0.81481481E-05
   0.54700000E+01           0.61728395E-05
   0.54800000E+01           0.49382716E-05
   0.54900000E+01           0.59259259E-05
   0.55000000E+01           0.41975309E-05
   0.55100000E+01           0.32098765E-05
   0.55200000E+01           0.51851852E-05
   0.55300000E+01           0.64197531E-05
   0.55400000E+01           0.24691358E-05
   0.55500000E+01           0.39506173E-05
   0.55600000E+01           0.14814815E-05
   0.55700000E+01           0.22222222E-05
   0.55800000E+01           0.19753086E-05
   0.55900000E+01           0.14814815E-05
   0.56000000E+01           0.74074074E-06
   0.56100000E+01           0.49382716E-06
   0.56200000E+01           0.19753086E-05
   0.56300000E+01           0.74074074E-06
   0.56400000E+01           0.74074074E-06
   0.56500000E+01           0.14814815E-05
   0.56600000E+01           0.14814815E-05
   0.56700000E+01           0.98765432E-06
   0.56800000E+01           0.98765432E-06
   0.56900000E+01           0.49382716E-06
   0.57000000E+01           0.00000000E+00
   0.57100000E+01           0.00000000E+00
   0.57200000E+01           0.24691358E-06
   0.57300000E+01           0.24691358E-06
   0.57400000E+01           0.49382716E-06
   0.57500000E+01           0.98765432E-06
   0.57600000E+01           0.00000000E+00
   0.57700000E+01           0.49382716E-06
   0.57800000E+01           0.24691358E-06
   0.57900000E+01           0.00000000E+00
   0.58000000E+01           0.00000000E+00
   0.58100000E+01           0.00000000E+00
   0.58200000E+01           0.00000000E+00
   0.58300000E+01           0.00000000E+00
   0.58400000E+01           0.24691358E-06
   0.58500000E+01           0.00000000E+00
   0.58600000E+01           0.00000000E+00
   0.58700000E+01           0.00000000E+00
   0.58800000E+01           0.00000000E+00
   0.58900000E+01           0.00000000E+00
   0.59000000E+01           0.00000000E+00
   0.59100000E+01           0.00000000E+00
   0.59200000E+01           0.00000000E+00
   0.59300000E+01           0.00000000E+00
   0.59400000E+01           0.00000000E+00
   0.59500000E+01           0.00000000E+00
   0.59600000E+01           0.00000000E+00
   0.59700000E+01           0.00000000E+00
   0.59800000E+01           0.00000000E+00
   0.59900000E+01           0.00000000E+00
   0.60000000E+01           0.00000000E+00
