 #written on 28Nov2024 at 17:22:11 
 #----------------- MONTECARLO -------------------#
 #        M                      P(M)             #
 #------------------------------------------------#
 #T=     5.0000
  -0.30000000E+01           0.00000000E+00
  -0.29900000E+01           0.00000000E+00
  -0.29800000E+01           0.00000000E+00
  -0.29700000E+01           0.00000000E+00
  -0.29600000E+01           0.00000000E+00
  -0.29500000E+01           0.00000000E+00
  -0.29400000E+01           0.00000000E+00
  -0.29300000E+01           0.00000000E+00
  -0.29200000E+01           0.00000000E+00
  -0.29100000E+01           0.00000000E+00
  -0.29000000E+01           0.00000000E+00
  -0.28900000E+01           0.00000000E+00
  -0.28800000E+01           0.00000000E+00
  -0.28700000E+01           0.00000000E+00
  -0.28600000E+01           0.00000000E+00
  -0.28500000E+01           0.00000000E+00
  -0.28400000E+01           0.00000000E+00
  -0.28300000E+01           0.00000000E+00
  -0.28200000E+01           0.00000000E+00
  -0.28100000E+01           0.00000000E+00
  -0.28000000E+01           0.00000000E+00
  -0.27900000E+01           0.00000000E+00
  -0.27800000E+01           0.00000000E+00
  -0.27700000E+01           0.00000000E+00
  -0.27600000E+01           0.00000000E+00
  -0.27500000E+01           0.00000000E+00
  -0.27400000E+01           0.00000000E+00
  -0.27300000E+01           0.00000000E+00
  -0.27200000E+01           0.00000000E+00
  -0.27100000E+01           0.00000000E+00
  -0.27000000E+01           0.00000000E+00
  -0.26900000E+01           0.00000000E+00
  -0.26800000E+01           0.00000000E+00
  -0.26700000E+01           0.00000000E+00
  -0.26600000E+01           0.00000000E+00
  -0.26500000E+01           0.00000000E+00
  -0.26400000E+01           0.00000000E+00
  -0.26300000E+01           0.00000000E+00
  -0.26200000E+01           0.00000000E+00
  -0.26100000E+01           0.00000000E+00
  -0.26000000E+01           0.00000000E+00
  -0.25900000E+01           0.00000000E+00
  -0.25800000E+01           0.00000000E+00
  -0.25700000E+01           0.00000000E+00
  -0.25600000E+01           0.00000000E+00
  -0.25500000E+01           0.00000000E+00
  -0.25400000E+01           0.00000000E+00
  -0.25300000E+01           0.00000000E+00
  -0.25200000E+01           0.00000000E+00
  -0.25100000E+01           0.00000000E+00
  -0.25000000E+01           0.00000000E+00
  -0.24900000E+01           0.00000000E+00
  -0.24800000E+01           0.00000000E+00
  -0.24700000E+01           0.00000000E+00
  -0.24600000E+01           0.00000000E+00
  -0.24500000E+01           0.00000000E+00
  -0.24400000E+01           0.00000000E+00
  -0.24300000E+01           0.00000000E+00
  -0.24200000E+01           0.00000000E+00
  -0.24100000E+01           0.00000000E+00
  -0.24000000E+01           0.00000000E+00
  -0.23900000E+01           0.00000000E+00
  -0.23800000E+01           0.00000000E+00
  -0.23700000E+01           0.00000000E+00
  -0.23600000E+01           0.00000000E+00
  -0.23500000E+01           0.00000000E+00
  -0.23400000E+01           0.00000000E+00
  -0.23300000E+01           0.00000000E+00
  -0.23200000E+01           0.00000000E+00
  -0.23100000E+01           0.00000000E+00
  -0.23000000E+01           0.00000000E+00
  -0.22900000E+01           0.00000000E+00
  -0.22800000E+01           0.00000000E+00
  -0.22700000E+01           0.00000000E+00
  -0.22600000E+01           0.00000000E+00
  -0.22500000E+01           0.00000000E+00
  -0.22400000E+01           0.00000000E+00
  -0.22300000E+01           0.00000000E+00
  -0.22200000E+01           0.00000000E+00
  -0.22100000E+01           0.00000000E+00
  -0.22000000E+01           0.00000000E+00
  -0.21900000E+01           0.00000000E+00
  -0.21800000E+01           0.00000000E+00
  -0.21700000E+01           0.00000000E+00
  -0.21600000E+01           0.00000000E+00
  -0.21500000E+01           0.00000000E+00
  -0.21400000E+01           0.00000000E+00
  -0.21300000E+01           0.00000000E+00
  -0.21200000E+01           0.00000000E+00
  -0.21100000E+01           0.00000000E+00
  -0.21000000E+01           0.00000000E+00
  -0.20900000E+01           0.00000000E+00
  -0.20800000E+01           0.00000000E+00
  -0.20700000E+01           0.00000000E+00
  -0.20600000E+01           0.00000000E+00
  -0.20500000E+01           0.00000000E+00
  -0.20400000E+01           0.00000000E+00
  -0.20300000E+01           0.00000000E+00
  -0.20200000E+01           0.00000000E+00
  -0.20100000E+01           0.00000000E+00
  -0.20000000E+01           0.00000000E+00
  -0.19900000E+01           0.00000000E+00
  -0.19800000E+01           0.00000000E+00
  -0.19700000E+01           0.00000000E+00
  -0.19600000E+01           0.00000000E+00
  -0.19500000E+01           0.00000000E+00
  -0.19400000E+01           0.00000000E+00
  -0.19300000E+01           0.00000000E+00
  -0.19200000E+01           0.00000000E+00
  -0.19100000E+01           0.00000000E+00
  -0.19000000E+01           0.00000000E+00
  -0.18900000E+01           0.00000000E+00
  -0.18800000E+01           0.00000000E+00
  -0.18700000E+01           0.00000000E+00
  -0.18600000E+01           0.00000000E+00
  -0.18500000E+01           0.00000000E+00
  -0.18400000E+01           0.00000000E+00
  -0.18300000E+01           0.00000000E+00
  -0.18200000E+01           0.00000000E+00
  -0.18100000E+01           0.00000000E+00
  -0.18000000E+01           0.00000000E+00
  -0.17900000E+01           0.00000000E+00
  -0.17800000E+01           0.00000000E+00
  -0.17700000E+01           0.00000000E+00
  -0.17600000E+01           0.00000000E+00
  -0.17500000E+01           0.00000000E+00
  -0.17400000E+01           0.00000000E+00
  -0.17300000E+01           0.00000000E+00
  -0.17200000E+01           0.00000000E+00
  -0.17100000E+01           0.00000000E+00
  -0.17000000E+01           0.00000000E+00
  -0.16900000E+01           0.00000000E+00
  -0.16800000E+01           0.00000000E+00
  -0.16700000E+01           0.00000000E+00
  -0.16600000E+01           0.00000000E+00
  -0.16500000E+01           0.00000000E+00
  -0.16400000E+01           0.00000000E+00
  -0.16300000E+01           0.00000000E+00
  -0.16200000E+01           0.00000000E+00
  -0.16100000E+01           0.00000000E+00
  -0.16000000E+01           0.00000000E+00
  -0.15900000E+01           0.00000000E+00
  -0.15800000E+01           0.00000000E+00
  -0.15700000E+01           0.00000000E+00
  -0.15600000E+01           0.00000000E+00
  -0.15500000E+01           0.00000000E+00
  -0.15400000E+01           0.00000000E+00
  -0.15300000E+01           0.00000000E+00
  -0.15200000E+01           0.00000000E+00
  -0.15100000E+01           0.00000000E+00
  -0.15000000E+01           0.00000000E+00
  -0.14900000E+01           0.00000000E+00
  -0.14800000E+01           0.00000000E+00
  -0.14700000E+01           0.00000000E+00
  -0.14600000E+01           0.00000000E+00
  -0.14500000E+01           0.00000000E+00
  -0.14400000E+01           0.00000000E+00
  -0.14300000E+01           0.00000000E+00
  -0.14200000E+01           0.00000000E+00
  -0.14100000E+01           0.00000000E+00
  -0.14000000E+01           0.00000000E+00
  -0.13900000E+01           0.00000000E+00
  -0.13800000E+01           0.00000000E+00
  -0.13700000E+01           0.00000000E+00
  -0.13600000E+01           0.00000000E+00
  -0.13500000E+01           0.00000000E+00
  -0.13400000E+01           0.00000000E+00
  -0.13300000E+01           0.00000000E+00
  -0.13200000E+01           0.00000000E+00
  -0.13100000E+01           0.00000000E+00
  -0.13000000E+01           0.00000000E+00
  -0.12900000E+01           0.00000000E+00
  -0.12800000E+01           0.00000000E+00
  -0.12700000E+01           0.00000000E+00
  -0.12600000E+01           0.00000000E+00
  -0.12500000E+01           0.00000000E+00
  -0.12400000E+01           0.00000000E+00
  -0.12300000E+01           0.00000000E+00
  -0.12200000E+01           0.00000000E+00
  -0.12100000E+01           0.00000000E+00
  -0.12000000E+01           0.00000000E+00
  -0.11900000E+01           0.00000000E+00
  -0.11800000E+01           0.00000000E+00
  -0.11700000E+01           0.00000000E+00
  -0.11600000E+01           0.00000000E+00
  -0.11500000E+01           0.00000000E+00
  -0.11400000E+01           0.00000000E+00
  -0.11300000E+01           0.00000000E+00
  -0.11200000E+01           0.00000000E+00
  -0.11100000E+01           0.00000000E+00
  -0.11000000E+01           0.00000000E+00
  -0.10900000E+01           0.00000000E+00
  -0.10800000E+01           0.00000000E+00
  -0.10700000E+01           0.00000000E+00
  -0.10600000E+01           0.00000000E+00
  -0.10500000E+01           0.00000000E+00
  -0.10400000E+01           0.00000000E+00
  -0.10300000E+01           0.00000000E+00
  -0.10200000E+01           0.00000000E+00
  -0.10100000E+01           0.00000000E+00
  -0.10000000E+01           0.00000000E+00
  -0.99000000E+00           0.00000000E+00
  -0.98000000E+00           0.00000000E+00
  -0.97000000E+00           0.00000000E+00
  -0.96000000E+00           0.00000000E+00
  -0.95000000E+00           0.00000000E+00
  -0.94000000E+00           0.00000000E+00
  -0.93000000E+00           0.00000000E+00
  -0.92000000E+00           0.00000000E+00
  -0.91000000E+00           0.00000000E+00
  -0.90000000E+00           0.00000000E+00
  -0.89000000E+00           0.00000000E+00
  -0.88000000E+00           0.00000000E+00
  -0.87000000E+00           0.00000000E+00
  -0.86000000E+00           0.00000000E+00
  -0.85000000E+00           0.00000000E+00
  -0.84000000E+00           0.00000000E+00
  -0.83000000E+00           0.00000000E+00
  -0.82000000E+00           0.00000000E+00
  -0.81000000E+00           0.00000000E+00
  -0.80000000E+00           0.00000000E+00
  -0.79000000E+00           0.00000000E+00
  -0.78000000E+00           0.00000000E+00
  -0.77000000E+00           0.00000000E+00
  -0.76000000E+00           0.00000000E+00
  -0.75000000E+00           0.00000000E+00
  -0.74000000E+00           0.00000000E+00
  -0.73000000E+00           0.00000000E+00
  -0.72000000E+00           0.00000000E+00
  -0.71000000E+00           0.00000000E+00
  -0.70000000E+00           0.00000000E+00
  -0.69000000E+00           0.00000000E+00
  -0.68000000E+00           0.00000000E+00
  -0.67000000E+00           0.00000000E+00
  -0.66000000E+00           0.00000000E+00
  -0.65000000E+00           0.00000000E+00
  -0.64000000E+00           0.00000000E+00
  -0.63000000E+00           0.00000000E+00
  -0.62000000E+00           0.00000000E+00
  -0.61000000E+00           0.00000000E+00
  -0.60000000E+00           0.00000000E+00
  -0.59000000E+00           0.00000000E+00
  -0.58000000E+00           0.00000000E+00
  -0.57000000E+00           0.00000000E+00
  -0.56000000E+00           0.00000000E+00
  -0.55000000E+00           0.00000000E+00
  -0.54000000E+00           0.00000000E+00
  -0.53000000E+00           0.00000000E+00
  -0.52000000E+00           0.00000000E+00
  -0.51000000E+00           0.00000000E+00
  -0.50000000E+00           0.00000000E+00
  -0.49000000E+00           0.00000000E+00
  -0.48000000E+00           0.00000000E+00
  -0.47000000E+00           0.00000000E+00
  -0.46000000E+00           0.00000000E+00
  -0.45000000E+00           0.00000000E+00
  -0.44000000E+00           0.00000000E+00
  -0.43000000E+00           0.00000000E+00
  -0.42000000E+00           0.00000000E+00
  -0.41000000E+00           0.00000000E+00
  -0.40000000E+00           0.00000000E+00
  -0.39000000E+00           0.00000000E+00
  -0.38000000E+00           0.00000000E+00
  -0.37000000E+00           0.00000000E+00
  -0.36000000E+00           0.00000000E+00
  -0.35000000E+00           0.00000000E+00
  -0.34000000E+00           0.00000000E+00
  -0.33000000E+00           0.00000000E+00
  -0.32000000E+00           0.00000000E+00
  -0.31000000E+00           0.00000000E+00
  -0.30000000E+00           0.00000000E+00
  -0.29000000E+00           0.00000000E+00
  -0.28000000E+00           0.00000000E+00
  -0.27000000E+00           0.00000000E+00
  -0.26000000E+00           0.00000000E+00
  -0.25000000E+00           0.00000000E+00
  -0.24000000E+00           0.00000000E+00
  -0.23000000E+00           0.00000000E+00
  -0.22000000E+00           0.00000000E+00
  -0.21000000E+00           0.00000000E+00
  -0.20000000E+00           0.00000000E+00
  -0.19000000E+00           0.00000000E+00
  -0.18000000E+00           0.00000000E+00
  -0.17000000E+00           0.00000000E+00
  -0.16000000E+00           0.00000000E+00
  -0.15000000E+00           0.00000000E+00
  -0.14000000E+00           0.00000000E+00
  -0.13000000E+00           0.00000000E+00
  -0.12000000E+00           0.00000000E+00
  -0.11000000E+00           0.00000000E+00
  -0.10000000E+00           0.00000000E+00
  -0.90000000E-01           0.00000000E+00
  -0.80000000E-01           0.00000000E+00
  -0.70000000E-01           0.00000000E+00
  -0.60000000E-01           0.00000000E+00
  -0.50000000E-01           0.00000000E+00
  -0.40000000E-01           0.00000000E+00
  -0.30000000E-01           0.00000000E+00
  -0.20000000E-01           0.00000000E+00
  -0.10000000E-01           0.00000000E+00
   0.00000000E+00           0.00000000E+00
   0.10000000E-01           0.29629630E-06
   0.20000000E-01           0.63703704E-05
   0.30000000E-01           0.11555556E-04
   0.40000000E-01           0.24888889E-04
   0.50000000E-01           0.31407407E-04
   0.60000000E-01           0.49777778E-04
   0.70000000E-01           0.63407407E-04
   0.80000000E-01           0.10903704E-03
   0.90000000E-01           0.11111111E-03
   0.10000000E+00           0.15348148E-03
   0.11000000E+00           0.20000000E-03
   0.12000000E+00           0.25911111E-03
   0.13000000E+00           0.32103704E-03
   0.14000000E+00           0.36859259E-03
   0.15000000E+00           0.44562963E-03
   0.16000000E+00           0.58696296E-03
   0.17000000E+00           0.67985185E-03
   0.18000000E+00           0.81377778E-03
   0.19000000E+00           0.97200000E-03
   0.20000000E+00           0.11075556E-02
   0.21000000E+00           0.13177778E-02
   0.22000000E+00           0.15325926E-02
   0.23000000E+00           0.18517037E-02
   0.24000000E+00           0.20597037E-02
   0.25000000E+00           0.25214815E-02
   0.26000000E+00           0.28524444E-02
   0.27000000E+00           0.33321481E-02
   0.28000000E+00           0.38802963E-02
   0.29000000E+00           0.45722963E-02
   0.30000000E+00           0.52140741E-02
   0.31000000E+00           0.60586667E-02
   0.32000000E+00           0.68875556E-02
   0.33000000E+00           0.80240000E-02
   0.34000000E+00           0.91308148E-02
   0.35000000E+00           0.10530519E-01
   0.36000000E+00           0.11893630E-01
   0.37000000E+00           0.13748444E-01
   0.38000000E+00           0.15676444E-01
   0.39000000E+00           0.17731556E-01
   0.40000000E+00           0.20314074E-01
   0.41000000E+00           0.23075556E-01
   0.42000000E+00           0.26306074E-01
   0.43000000E+00           0.29667407E-01
   0.44000000E+00           0.33628741E-01
   0.45000000E+00           0.38117185E-01
   0.46000000E+00           0.43116741E-01
   0.47000000E+00           0.48665333E-01
   0.48000000E+00           0.54711111E-01
   0.49000000E+00           0.61450519E-01
   0.50000000E+00           0.69426370E-01
   0.51000000E+00           0.77748444E-01
   0.52000000E+00           0.87030519E-01
   0.53000000E+00           0.97743556E-01
   0.54000000E+00           0.10874370E+00
   0.55000000E+00           0.12229407E+00
   0.56000000E+00           0.13647007E+00
   0.57000000E+00           0.15234489E+00
   0.58000000E+00           0.16964741E+00
   0.59000000E+00           0.18849126E+00
   0.60000000E+00           0.20941778E+00
   0.61000000E+00           0.23292326E+00
   0.62000000E+00           0.25746000E+00
   0.63000000E+00           0.28579378E+00
   0.64000000E+00           0.31652400E+00
   0.65000000E+00           0.34750889E+00
   0.66000000E+00           0.38421481E+00
   0.67000000E+00           0.42364415E+00
   0.68000000E+00           0.46467511E+00
   0.69000000E+00           0.50941911E+00
   0.70000000E+00           0.56053126E+00
   0.71000000E+00           0.61446385E+00
   0.72000000E+00           0.67107156E+00
   0.73000000E+00           0.73149348E+00
   0.74000000E+00           0.79779867E+00
   0.75000000E+00           0.86912474E+00
   0.76000000E+00           0.94417185E+00
   0.77000000E+00           0.10230590E+01
   0.78000000E+00           0.11063364E+01
   0.79000000E+00           0.11959452E+01
   0.80000000E+00           0.12892281E+01
   0.81000000E+00           0.13871455E+01
   0.82000000E+00           0.14883061E+01
   0.83000000E+00           0.15947089E+01
   0.84000000E+00           0.17043142E+01
   0.85000000E+00           0.18161440E+01
   0.86000000E+00           0.19308477E+01
   0.87000000E+00           0.20480034E+01
   0.88000000E+00           0.21654673E+01
   0.89000000E+00           0.22858560E+01
   0.90000000E+00           0.24031673E+01
   0.91000000E+00           0.25156351E+01
   0.92000000E+00           0.26206893E+01
   0.93000000E+00           0.27276255E+01
   0.94000000E+00           0.28194935E+01
   0.95000000E+00           0.29038096E+01
   0.96000000E+00           0.29755837E+01
   0.97000000E+00           0.30280434E+01
   0.98000000E+00           0.30637099E+01
   0.99000000E+00           0.30769637E+01
   0.10000000E+01           0.30422077E+01
   0.10100000E+01           0.28659834E+01
   0.10200000E+01           0.26744681E+01
   0.10300000E+01           0.24937484E+01
   0.10400000E+01           0.23258862E+01
   0.10500000E+01           0.21637862E+01
   0.10600000E+01           0.20096778E+01
   0.10700000E+01           0.18699375E+01
   0.10800000E+01           0.17340277E+01
   0.10900000E+01           0.16066883E+01
   0.11000000E+01           0.14896207E+01
   0.11100000E+01           0.13775724E+01
   0.11200000E+01           0.12721944E+01
   0.11300000E+01           0.11750055E+01
   0.11400000E+01           0.10850794E+01
   0.11500000E+01           0.10004047E+01
   0.11600000E+01           0.91882593E+00
   0.11700000E+01           0.84617422E+00
   0.11800000E+01           0.77723793E+00
   0.11900000E+01           0.71243822E+00
   0.12000000E+01           0.65392370E+00
   0.12100000E+01           0.59814385E+00
   0.12200000E+01           0.54755674E+00
   0.12300000E+01           0.50071289E+00
   0.12400000E+01           0.45731615E+00
   0.12500000E+01           0.41708237E+00
   0.12600000E+01           0.37963556E+00
   0.12700000E+01           0.34593763E+00
   0.12800000E+01           0.31482133E+00
   0.12900000E+01           0.28579837E+00
   0.13000000E+01           0.25955867E+00
   0.13100000E+01           0.23465956E+00
   0.13200000E+01           0.21257363E+00
   0.13300000E+01           0.19248711E+00
   0.13400000E+01           0.17383348E+00
   0.13500000E+01           0.15660074E+00
   0.13600000E+01           0.14127215E+00
   0.13700000E+01           0.12730889E+00
   0.13800000E+01           0.11501659E+00
   0.13900000E+01           0.10289348E+00
   0.14000000E+01           0.92114370E-01
   0.14100000E+01           0.83059407E-01
   0.14200000E+01           0.73909630E-01
   0.14300000E+01           0.66360148E-01
   0.14400000E+01           0.59122519E-01
   0.14500000E+01           0.52617926E-01
   0.14600000E+01           0.46991259E-01
   0.14700000E+01           0.41789037E-01
   0.14800000E+01           0.37352889E-01
   0.14900000E+01           0.32864444E-01
   0.15000000E+01           0.29447852E-01
   0.15100000E+01           0.25990815E-01
   0.15200000E+01           0.23045778E-01
   0.15300000E+01           0.20163852E-01
   0.15400000E+01           0.17883259E-01
   0.15500000E+01           0.15916296E-01
   0.15600000E+01           0.14041926E-01
   0.15700000E+01           0.12165185E-01
   0.15800000E+01           0.10840889E-01
   0.15900000E+01           0.94234074E-02
   0.16000000E+01           0.82540741E-02
   0.16100000E+01           0.72045926E-02
   0.16200000E+01           0.63296296E-02
   0.16300000E+01           0.54364444E-02
   0.16400000E+01           0.48185185E-02
   0.16500000E+01           0.41965926E-02
   0.16600000E+01           0.36032593E-02
   0.16700000E+01           0.32032593E-02
   0.16800000E+01           0.27982222E-02
   0.16900000E+01           0.23626667E-02
   0.17000000E+01           0.20462222E-02
   0.17100000E+01           0.17478519E-02
   0.17200000E+01           0.15296296E-02
   0.17300000E+01           0.13114074E-02
   0.17400000E+01           0.11328889E-02
   0.17500000E+01           0.97733333E-03
   0.17600000E+01           0.82622222E-03
   0.17700000E+01           0.69614815E-03
   0.17800000E+01           0.58385185E-03
   0.17900000E+01           0.50711111E-03
   0.18000000E+01           0.44029630E-03
   0.18100000E+01           0.38844444E-03
   0.18200000E+01           0.30162963E-03
   0.18300000E+01           0.27318519E-03
   0.18400000E+01           0.21807407E-03
   0.18500000E+01           0.19555556E-03
   0.18600000E+01           0.16192593E-03
   0.18700000E+01           0.12888889E-03
   0.18800000E+01           0.11377778E-03
   0.18900000E+01           0.98518519E-04
   0.19000000E+01           0.78222222E-04
   0.19100000E+01           0.62222222E-04
   0.19200000E+01           0.51111111E-04
   0.19300000E+01           0.51407407E-04
   0.19400000E+01           0.32444444E-04
   0.19500000E+01           0.37185185E-04
   0.19600000E+01           0.29481481E-04
   0.19700000E+01           0.24000000E-04
   0.19800000E+01           0.18370370E-04
   0.19900000E+01           0.17481481E-04
   0.20000000E+01           0.11407407E-04
   0.20100000E+01           0.87407407E-05
   0.20200000E+01           0.11407407E-04
   0.20300000E+01           0.41481481E-05
   0.20400000E+01           0.53333333E-05
   0.20500000E+01           0.51851852E-05
   0.20600000E+01           0.51851852E-05
   0.20700000E+01           0.35555556E-05
   0.20800000E+01           0.26666667E-05
   0.20900000E+01           0.17777778E-05
   0.21000000E+01           0.13333333E-05
   0.21100000E+01           0.20740741E-05
   0.21200000E+01           0.11851852E-05
   0.21300000E+01           0.11851852E-05
   0.21400000E+01           0.74074074E-06
   0.21500000E+01           0.00000000E+00
   0.21600000E+01           0.29629630E-06
   0.21700000E+01           0.14814815E-06
   0.21800000E+01           0.74074074E-06
   0.21900000E+01           0.14814815E-06
   0.22000000E+01           0.00000000E+00
   0.22100000E+01           0.13333333E-05
   0.22200000E+01           0.00000000E+00
   0.22300000E+01           0.00000000E+00
   0.22400000E+01           0.00000000E+00
   0.22500000E+01           0.00000000E+00
   0.22600000E+01           0.00000000E+00
   0.22700000E+01           0.00000000E+00
   0.22800000E+01           0.29629630E-06
   0.22900000E+01           0.14814815E-06
   0.23000000E+01           0.00000000E+00
   0.23100000E+01           0.00000000E+00
   0.23200000E+01           0.00000000E+00
   0.23300000E+01           0.00000000E+00
   0.23400000E+01           0.00000000E+00
   0.23500000E+01           0.00000000E+00
   0.23600000E+01           0.00000000E+00
   0.23700000E+01           0.00000000E+00
   0.23800000E+01           0.00000000E+00
   0.23900000E+01           0.00000000E+00
   0.24000000E+01           0.00000000E+00
   0.24100000E+01           0.00000000E+00
   0.24200000E+01           0.00000000E+00
   0.24300000E+01           0.00000000E+00
   0.24400000E+01           0.00000000E+00
   0.24500000E+01           0.00000000E+00
   0.24600000E+01           0.00000000E+00
   0.24700000E+01           0.00000000E+00
   0.24800000E+01           0.00000000E+00
   0.24900000E+01           0.00000000E+00
   0.25000000E+01           0.00000000E+00
   0.25100000E+01           0.00000000E+00
   0.25200000E+01           0.00000000E+00
   0.25300000E+01           0.00000000E+00
   0.25400000E+01           0.00000000E+00
   0.25500000E+01           0.00000000E+00
   0.25600000E+01           0.00000000E+00
   0.25700000E+01           0.00000000E+00
   0.25800000E+01           0.00000000E+00
   0.25900000E+01           0.00000000E+00
   0.26000000E+01           0.00000000E+00
   0.26100000E+01           0.00000000E+00
   0.26200000E+01           0.00000000E+00
   0.26300000E+01           0.00000000E+00
   0.26400000E+01           0.00000000E+00
   0.26500000E+01           0.00000000E+00
   0.26600000E+01           0.00000000E+00
   0.26700000E+01           0.00000000E+00
   0.26800000E+01           0.00000000E+00
   0.26900000E+01           0.00000000E+00
   0.27000000E+01           0.00000000E+00
   0.27100000E+01           0.00000000E+00
   0.27200000E+01           0.00000000E+00
   0.27300000E+01           0.00000000E+00
   0.27400000E+01           0.00000000E+00
   0.27500000E+01           0.00000000E+00
   0.27600000E+01           0.00000000E+00
   0.27700000E+01           0.00000000E+00
   0.27800000E+01           0.00000000E+00
   0.27900000E+01           0.00000000E+00
   0.28000000E+01           0.00000000E+00
   0.28100000E+01           0.00000000E+00
   0.28200000E+01           0.00000000E+00
   0.28300000E+01           0.00000000E+00
   0.28400000E+01           0.00000000E+00
   0.28500000E+01           0.00000000E+00
   0.28600000E+01           0.00000000E+00
   0.28700000E+01           0.00000000E+00
   0.28800000E+01           0.00000000E+00
   0.28900000E+01           0.00000000E+00
   0.29000000E+01           0.00000000E+00
   0.29100000E+01           0.00000000E+00
   0.29200000E+01           0.00000000E+00
   0.29300000E+01           0.00000000E+00
   0.29400000E+01           0.00000000E+00
   0.29500000E+01           0.00000000E+00
   0.29600000E+01           0.00000000E+00
   0.29700000E+01           0.00000000E+00
   0.29800000E+01           0.00000000E+00
   0.29900000E+01           0.00000000E+00
   0.30000000E+01           0.00000000E+00
 #T=     6.0000
  -0.30000000E+01           0.00000000E+00
  -0.29900000E+01           0.00000000E+00
  -0.29800000E+01           0.00000000E+00
  -0.29700000E+01           0.00000000E+00
  -0.29600000E+01           0.00000000E+00
  -0.29500000E+01           0.00000000E+00
  -0.29400000E+01           0.00000000E+00
  -0.29300000E+01           0.00000000E+00
  -0.29200000E+01           0.00000000E+00
  -0.29100000E+01           0.00000000E+00
  -0.29000000E+01           0.00000000E+00
  -0.28900000E+01           0.00000000E+00
  -0.28800000E+01           0.00000000E+00
  -0.28700000E+01           0.00000000E+00
  -0.28600000E+01           0.00000000E+00
  -0.28500000E+01           0.00000000E+00
  -0.28400000E+01           0.00000000E+00
  -0.28300000E+01           0.00000000E+00
  -0.28200000E+01           0.00000000E+00
  -0.28100000E+01           0.00000000E+00
  -0.28000000E+01           0.00000000E+00
  -0.27900000E+01           0.00000000E+00
  -0.27800000E+01           0.00000000E+00
  -0.27700000E+01           0.00000000E+00
  -0.27600000E+01           0.00000000E+00
  -0.27500000E+01           0.00000000E+00
  -0.27400000E+01           0.00000000E+00
  -0.27300000E+01           0.00000000E+00
  -0.27200000E+01           0.00000000E+00
  -0.27100000E+01           0.00000000E+00
  -0.27000000E+01           0.00000000E+00
  -0.26900000E+01           0.00000000E+00
  -0.26800000E+01           0.00000000E+00
  -0.26700000E+01           0.00000000E+00
  -0.26600000E+01           0.00000000E+00
  -0.26500000E+01           0.00000000E+00
  -0.26400000E+01           0.00000000E+00
  -0.26300000E+01           0.00000000E+00
  -0.26200000E+01           0.00000000E+00
  -0.26100000E+01           0.00000000E+00
  -0.26000000E+01           0.00000000E+00
  -0.25900000E+01           0.00000000E+00
  -0.25800000E+01           0.00000000E+00
  -0.25700000E+01           0.00000000E+00
  -0.25600000E+01           0.00000000E+00
  -0.25500000E+01           0.00000000E+00
  -0.25400000E+01           0.00000000E+00
  -0.25300000E+01           0.00000000E+00
  -0.25200000E+01           0.00000000E+00
  -0.25100000E+01           0.00000000E+00
  -0.25000000E+01           0.00000000E+00
  -0.24900000E+01           0.00000000E+00
  -0.24800000E+01           0.00000000E+00
  -0.24700000E+01           0.00000000E+00
  -0.24600000E+01           0.00000000E+00
  -0.24500000E+01           0.00000000E+00
  -0.24400000E+01           0.00000000E+00
  -0.24300000E+01           0.00000000E+00
  -0.24200000E+01           0.00000000E+00
  -0.24100000E+01           0.00000000E+00
  -0.24000000E+01           0.00000000E+00
  -0.23900000E+01           0.00000000E+00
  -0.23800000E+01           0.00000000E+00
  -0.23700000E+01           0.00000000E+00
  -0.23600000E+01           0.00000000E+00
  -0.23500000E+01           0.00000000E+00
  -0.23400000E+01           0.00000000E+00
  -0.23300000E+01           0.00000000E+00
  -0.23200000E+01           0.00000000E+00
  -0.23100000E+01           0.00000000E+00
  -0.23000000E+01           0.00000000E+00
  -0.22900000E+01           0.00000000E+00
  -0.22800000E+01           0.00000000E+00
  -0.22700000E+01           0.00000000E+00
  -0.22600000E+01           0.00000000E+00
  -0.22500000E+01           0.00000000E+00
  -0.22400000E+01           0.00000000E+00
  -0.22300000E+01           0.00000000E+00
  -0.22200000E+01           0.00000000E+00
  -0.22100000E+01           0.00000000E+00
  -0.22000000E+01           0.00000000E+00
  -0.21900000E+01           0.00000000E+00
  -0.21800000E+01           0.00000000E+00
  -0.21700000E+01           0.00000000E+00
  -0.21600000E+01           0.00000000E+00
  -0.21500000E+01           0.00000000E+00
  -0.21400000E+01           0.00000000E+00
  -0.21300000E+01           0.00000000E+00
  -0.21200000E+01           0.00000000E+00
  -0.21100000E+01           0.00000000E+00
  -0.21000000E+01           0.00000000E+00
  -0.20900000E+01           0.00000000E+00
  -0.20800000E+01           0.00000000E+00
  -0.20700000E+01           0.00000000E+00
  -0.20600000E+01           0.00000000E+00
  -0.20500000E+01           0.00000000E+00
  -0.20400000E+01           0.00000000E+00
  -0.20300000E+01           0.00000000E+00
  -0.20200000E+01           0.00000000E+00
  -0.20100000E+01           0.00000000E+00
  -0.20000000E+01           0.00000000E+00
  -0.19900000E+01           0.00000000E+00
  -0.19800000E+01           0.00000000E+00
  -0.19700000E+01           0.00000000E+00
  -0.19600000E+01           0.00000000E+00
  -0.19500000E+01           0.00000000E+00
  -0.19400000E+01           0.00000000E+00
  -0.19300000E+01           0.00000000E+00
  -0.19200000E+01           0.00000000E+00
  -0.19100000E+01           0.00000000E+00
  -0.19000000E+01           0.00000000E+00
  -0.18900000E+01           0.00000000E+00
  -0.18800000E+01           0.00000000E+00
  -0.18700000E+01           0.00000000E+00
  -0.18600000E+01           0.00000000E+00
  -0.18500000E+01           0.00000000E+00
  -0.18400000E+01           0.00000000E+00
  -0.18300000E+01           0.00000000E+00
  -0.18200000E+01           0.00000000E+00
  -0.18100000E+01           0.00000000E+00
  -0.18000000E+01           0.00000000E+00
  -0.17900000E+01           0.00000000E+00
  -0.17800000E+01           0.00000000E+00
  -0.17700000E+01           0.00000000E+00
  -0.17600000E+01           0.00000000E+00
  -0.17500000E+01           0.00000000E+00
  -0.17400000E+01           0.00000000E+00
  -0.17300000E+01           0.00000000E+00
  -0.17200000E+01           0.00000000E+00
  -0.17100000E+01           0.00000000E+00
  -0.17000000E+01           0.00000000E+00
  -0.16900000E+01           0.00000000E+00
  -0.16800000E+01           0.00000000E+00
  -0.16700000E+01           0.00000000E+00
  -0.16600000E+01           0.00000000E+00
  -0.16500000E+01           0.00000000E+00
  -0.16400000E+01           0.00000000E+00
  -0.16300000E+01           0.00000000E+00
  -0.16200000E+01           0.00000000E+00
  -0.16100000E+01           0.00000000E+00
  -0.16000000E+01           0.00000000E+00
  -0.15900000E+01           0.00000000E+00
  -0.15800000E+01           0.00000000E+00
  -0.15700000E+01           0.00000000E+00
  -0.15600000E+01           0.00000000E+00
  -0.15500000E+01           0.00000000E+00
  -0.15400000E+01           0.00000000E+00
  -0.15300000E+01           0.00000000E+00
  -0.15200000E+01           0.00000000E+00
  -0.15100000E+01           0.00000000E+00
  -0.15000000E+01           0.00000000E+00
  -0.14900000E+01           0.00000000E+00
  -0.14800000E+01           0.00000000E+00
  -0.14700000E+01           0.00000000E+00
  -0.14600000E+01           0.00000000E+00
  -0.14500000E+01           0.00000000E+00
  -0.14400000E+01           0.00000000E+00
  -0.14300000E+01           0.00000000E+00
  -0.14200000E+01           0.00000000E+00
  -0.14100000E+01           0.00000000E+00
  -0.14000000E+01           0.00000000E+00
  -0.13900000E+01           0.00000000E+00
  -0.13800000E+01           0.00000000E+00
  -0.13700000E+01           0.00000000E+00
  -0.13600000E+01           0.00000000E+00
  -0.13500000E+01           0.00000000E+00
  -0.13400000E+01           0.00000000E+00
  -0.13300000E+01           0.00000000E+00
  -0.13200000E+01           0.00000000E+00
  -0.13100000E+01           0.00000000E+00
  -0.13000000E+01           0.00000000E+00
  -0.12900000E+01           0.00000000E+00
  -0.12800000E+01           0.00000000E+00
  -0.12700000E+01           0.00000000E+00
  -0.12600000E+01           0.00000000E+00
  -0.12500000E+01           0.00000000E+00
  -0.12400000E+01           0.00000000E+00
  -0.12300000E+01           0.00000000E+00
  -0.12200000E+01           0.00000000E+00
  -0.12100000E+01           0.00000000E+00
  -0.12000000E+01           0.00000000E+00
  -0.11900000E+01           0.00000000E+00
  -0.11800000E+01           0.00000000E+00
  -0.11700000E+01           0.00000000E+00
  -0.11600000E+01           0.00000000E+00
  -0.11500000E+01           0.00000000E+00
  -0.11400000E+01           0.00000000E+00
  -0.11300000E+01           0.00000000E+00
  -0.11200000E+01           0.00000000E+00
  -0.11100000E+01           0.00000000E+00
  -0.11000000E+01           0.00000000E+00
  -0.10900000E+01           0.00000000E+00
  -0.10800000E+01           0.00000000E+00
  -0.10700000E+01           0.00000000E+00
  -0.10600000E+01           0.00000000E+00
  -0.10500000E+01           0.00000000E+00
  -0.10400000E+01           0.00000000E+00
  -0.10300000E+01           0.00000000E+00
  -0.10200000E+01           0.00000000E+00
  -0.10100000E+01           0.00000000E+00
  -0.10000000E+01           0.00000000E+00
  -0.99000000E+00           0.00000000E+00
  -0.98000000E+00           0.00000000E+00
  -0.97000000E+00           0.00000000E+00
  -0.96000000E+00           0.00000000E+00
  -0.95000000E+00           0.00000000E+00
  -0.94000000E+00           0.00000000E+00
  -0.93000000E+00           0.00000000E+00
  -0.92000000E+00           0.00000000E+00
  -0.91000000E+00           0.00000000E+00
  -0.90000000E+00           0.00000000E+00
  -0.89000000E+00           0.00000000E+00
  -0.88000000E+00           0.00000000E+00
  -0.87000000E+00           0.00000000E+00
  -0.86000000E+00           0.00000000E+00
  -0.85000000E+00           0.00000000E+00
  -0.84000000E+00           0.00000000E+00
  -0.83000000E+00           0.00000000E+00
  -0.82000000E+00           0.00000000E+00
  -0.81000000E+00           0.00000000E+00
  -0.80000000E+00           0.00000000E+00
  -0.79000000E+00           0.00000000E+00
  -0.78000000E+00           0.00000000E+00
  -0.77000000E+00           0.00000000E+00
  -0.76000000E+00           0.00000000E+00
  -0.75000000E+00           0.00000000E+00
  -0.74000000E+00           0.00000000E+00
  -0.73000000E+00           0.00000000E+00
  -0.72000000E+00           0.00000000E+00
  -0.71000000E+00           0.00000000E+00
  -0.70000000E+00           0.00000000E+00
  -0.69000000E+00           0.00000000E+00
  -0.68000000E+00           0.00000000E+00
  -0.67000000E+00           0.00000000E+00
  -0.66000000E+00           0.00000000E+00
  -0.65000000E+00           0.00000000E+00
  -0.64000000E+00           0.00000000E+00
  -0.63000000E+00           0.00000000E+00
  -0.62000000E+00           0.00000000E+00
  -0.61000000E+00           0.00000000E+00
  -0.60000000E+00           0.00000000E+00
  -0.59000000E+00           0.00000000E+00
  -0.58000000E+00           0.00000000E+00
  -0.57000000E+00           0.00000000E+00
  -0.56000000E+00           0.00000000E+00
  -0.55000000E+00           0.00000000E+00
  -0.54000000E+00           0.00000000E+00
  -0.53000000E+00           0.00000000E+00
  -0.52000000E+00           0.00000000E+00
  -0.51000000E+00           0.00000000E+00
  -0.50000000E+00           0.00000000E+00
  -0.49000000E+00           0.00000000E+00
  -0.48000000E+00           0.00000000E+00
  -0.47000000E+00           0.00000000E+00
  -0.46000000E+00           0.00000000E+00
  -0.45000000E+00           0.00000000E+00
  -0.44000000E+00           0.00000000E+00
  -0.43000000E+00           0.00000000E+00
  -0.42000000E+00           0.00000000E+00
  -0.41000000E+00           0.00000000E+00
  -0.40000000E+00           0.00000000E+00
  -0.39000000E+00           0.00000000E+00
  -0.38000000E+00           0.00000000E+00
  -0.37000000E+00           0.00000000E+00
  -0.36000000E+00           0.00000000E+00
  -0.35000000E+00           0.00000000E+00
  -0.34000000E+00           0.00000000E+00
  -0.33000000E+00           0.00000000E+00
  -0.32000000E+00           0.00000000E+00
  -0.31000000E+00           0.00000000E+00
  -0.30000000E+00           0.00000000E+00
  -0.29000000E+00           0.00000000E+00
  -0.28000000E+00           0.00000000E+00
  -0.27000000E+00           0.00000000E+00
  -0.26000000E+00           0.00000000E+00
  -0.25000000E+00           0.00000000E+00
  -0.24000000E+00           0.00000000E+00
  -0.23000000E+00           0.00000000E+00
  -0.22000000E+00           0.00000000E+00
  -0.21000000E+00           0.00000000E+00
  -0.20000000E+00           0.00000000E+00
  -0.19000000E+00           0.00000000E+00
  -0.18000000E+00           0.00000000E+00
  -0.17000000E+00           0.00000000E+00
  -0.16000000E+00           0.00000000E+00
  -0.15000000E+00           0.00000000E+00
  -0.14000000E+00           0.00000000E+00
  -0.13000000E+00           0.00000000E+00
  -0.12000000E+00           0.00000000E+00
  -0.11000000E+00           0.00000000E+00
  -0.10000000E+00           0.00000000E+00
  -0.90000000E-01           0.00000000E+00
  -0.80000000E-01           0.00000000E+00
  -0.70000000E-01           0.00000000E+00
  -0.60000000E-01           0.00000000E+00
  -0.50000000E-01           0.00000000E+00
  -0.40000000E-01           0.00000000E+00
  -0.30000000E-01           0.00000000E+00
  -0.20000000E-01           0.00000000E+00
  -0.10000000E-01           0.00000000E+00
   0.00000000E+00           0.14814815E-06
   0.10000000E-01           0.38518519E-05
   0.20000000E-01           0.19851852E-04
   0.30000000E-01           0.37333333E-04
   0.40000000E-01           0.69629630E-04
   0.50000000E-01           0.10177778E-03
   0.60000000E-01           0.14370370E-03
   0.70000000E-01           0.18992593E-03
   0.80000000E-01           0.29377778E-03
   0.90000000E-01           0.35555556E-03
   0.10000000E+00           0.45244444E-03
   0.11000000E+00           0.57200000E-03
   0.12000000E+00           0.67940741E-03
   0.13000000E+00           0.82725926E-03
   0.14000000E+00           0.10088889E-02
   0.15000000E+00           0.12066667E-02
   0.16000000E+00           0.14290370E-02
   0.17000000E+00           0.16386667E-02
   0.18000000E+00           0.19327407E-02
   0.19000000E+00           0.22841481E-02
   0.20000000E+00           0.26094815E-02
   0.21000000E+00           0.29911111E-02
   0.22000000E+00           0.35520000E-02
   0.23000000E+00           0.41229630E-02
   0.24000000E+00           0.46367407E-02
   0.25000000E+00           0.53660741E-02
   0.26000000E+00           0.60665185E-02
   0.27000000E+00           0.69266667E-02
   0.28000000E+00           0.79851852E-02
   0.29000000E+00           0.89542222E-02
   0.30000000E+00           0.10244444E-01
   0.31000000E+00           0.11470963E-01
   0.32000000E+00           0.12940000E-01
   0.33000000E+00           0.14615556E-01
   0.34000000E+00           0.16682222E-01
   0.35000000E+00           0.18749630E-01
   0.36000000E+00           0.20877333E-01
   0.37000000E+00           0.23399852E-01
   0.38000000E+00           0.26376000E-01
   0.39000000E+00           0.29396444E-01
   0.40000000E+00           0.32755259E-01
   0.41000000E+00           0.36453630E-01
   0.42000000E+00           0.40866222E-01
   0.43000000E+00           0.45540148E-01
   0.44000000E+00           0.50736889E-01
   0.45000000E+00           0.56454519E-01
   0.46000000E+00           0.62793185E-01
   0.47000000E+00           0.69538815E-01
   0.48000000E+00           0.77027259E-01
   0.49000000E+00           0.85758667E-01
   0.50000000E+00           0.94486815E-01
   0.51000000E+00           0.10450548E+00
   0.52000000E+00           0.11521526E+00
   0.53000000E+00           0.12726030E+00
   0.54000000E+00           0.13978741E+00
   0.55000000E+00           0.15392341E+00
   0.56000000E+00           0.16990681E+00
   0.57000000E+00           0.18621156E+00
   0.58000000E+00           0.20421096E+00
   0.59000000E+00           0.22461141E+00
   0.60000000E+00           0.24550163E+00
   0.61000000E+00           0.26822193E+00
   0.62000000E+00           0.29301496E+00
   0.63000000E+00           0.32073022E+00
   0.64000000E+00           0.34942696E+00
   0.65000000E+00           0.38055941E+00
   0.66000000E+00           0.41442711E+00
   0.67000000E+00           0.45071452E+00
   0.68000000E+00           0.48823052E+00
   0.69000000E+00           0.53050163E+00
   0.70000000E+00           0.57466785E+00
   0.71000000E+00           0.62146222E+00
   0.72000000E+00           0.67260785E+00
   0.73000000E+00           0.72609793E+00
   0.74000000E+00           0.78166267E+00
   0.75000000E+00           0.84169911E+00
   0.76000000E+00           0.90574311E+00
   0.77000000E+00           0.97256489E+00
   0.78000000E+00           0.10424221E+01
   0.79000000E+00           0.11179905E+01
   0.80000000E+00           0.11943361E+01
   0.81000000E+00           0.12757219E+01
   0.82000000E+00           0.13576844E+01
   0.83000000E+00           0.14469511E+01
   0.84000000E+00           0.15336861E+01
   0.85000000E+00           0.16269619E+01
   0.86000000E+00           0.17199433E+01
   0.87000000E+00           0.18190889E+01
   0.88000000E+00           0.19134019E+01
   0.89000000E+00           0.20144982E+01
   0.90000000E+00           0.21108421E+01
   0.91000000E+00           0.22085910E+01
   0.92000000E+00           0.23056941E+01
   0.93000000E+00           0.23989061E+01
   0.94000000E+00           0.24858856E+01
   0.95000000E+00           0.25684816E+01
   0.96000000E+00           0.26468759E+01
   0.97000000E+00           0.27124945E+01
   0.98000000E+00           0.27723532E+01
   0.99000000E+00           0.28167873E+01
   0.10000000E+01           0.28241249E+01
   0.10100000E+01           0.26955772E+01
   0.10200000E+01           0.25507996E+01
   0.10300000E+01           0.24088920E+01
   0.10400000E+01           0.22778939E+01
   0.10500000E+01           0.21492957E+01
   0.10600000E+01           0.20254753E+01
   0.10700000E+01           0.19078624E+01
   0.10800000E+01           0.17948843E+01
   0.10900000E+01           0.16876670E+01
   0.11000000E+01           0.15862950E+01
   0.11100000E+01           0.14904633E+01
   0.11200000E+01           0.13968116E+01
   0.11300000E+01           0.13072210E+01
   0.11400000E+01           0.12258372E+01
   0.11500000E+01           0.11468404E+01
   0.11600000E+01           0.10708627E+01
   0.11700000E+01           0.10007410E+01
   0.11800000E+01           0.93450459E+00
   0.11900000E+01           0.87113348E+00
   0.12000000E+01           0.81069407E+00
   0.12100000E+01           0.75564993E+00
   0.12200000E+01           0.70231141E+00
   0.12300000E+01           0.65279319E+00
   0.12400000E+01           0.60686059E+00
   0.12500000E+01           0.56232444E+00
   0.12600000E+01           0.52172030E+00
   0.12700000E+01           0.48193956E+00
   0.12800000E+01           0.44621644E+00
   0.12900000E+01           0.41154815E+00
   0.13000000E+01           0.38153881E+00
   0.13100000E+01           0.35034000E+00
   0.13200000E+01           0.32377956E+00
   0.13300000E+01           0.29820015E+00
   0.13400000E+01           0.27416933E+00
   0.13500000E+01           0.25226756E+00
   0.13600000E+01           0.23221096E+00
   0.13700000E+01           0.21286311E+00
   0.13800000E+01           0.19479570E+00
   0.13900000E+01           0.17852563E+00
   0.14000000E+01           0.16331467E+00
   0.14100000E+01           0.14947911E+00
   0.14200000E+01           0.13695600E+00
   0.14300000E+01           0.12462237E+00
   0.14400000E+01           0.11314519E+00
   0.14500000E+01           0.10332830E+00
   0.14600000E+01           0.93802815E-01
   0.14700000E+01           0.85523704E-01
   0.14800000E+01           0.77290963E-01
   0.14900000E+01           0.70281926E-01
   0.15000000E+01           0.63734667E-01
   0.15100000E+01           0.57713778E-01
   0.15200000E+01           0.52470519E-01
   0.15300000E+01           0.47014370E-01
   0.15400000E+01           0.42734519E-01
   0.15500000E+01           0.38245333E-01
   0.15600000E+01           0.34504000E-01
   0.15700000E+01           0.30959407E-01
   0.15800000E+01           0.28083259E-01
   0.15900000E+01           0.25098815E-01
   0.16000000E+01           0.22289481E-01
   0.16100000E+01           0.20204148E-01
   0.16200000E+01           0.18169037E-01
   0.16300000E+01           0.16102815E-01
   0.16400000E+01           0.14435407E-01
   0.16500000E+01           0.12800889E-01
   0.16600000E+01           0.11304444E-01
   0.16700000E+01           0.10126963E-01
   0.16800000E+01           0.90011852E-02
   0.16900000E+01           0.80714074E-02
   0.17000000E+01           0.70358519E-02
   0.17100000E+01           0.63325926E-02
   0.17200000E+01           0.55946667E-02
   0.17300000E+01           0.49417778E-02
   0.17400000E+01           0.44368889E-02
   0.17500000E+01           0.39148148E-02
   0.17600000E+01           0.33555556E-02
   0.17700000E+01           0.29743704E-02
   0.17800000E+01           0.26170370E-02
   0.17900000E+01           0.23115556E-02
   0.18000000E+01           0.20008889E-02
   0.18100000E+01           0.17611852E-02
   0.18200000E+01           0.15448889E-02
   0.18300000E+01           0.12967407E-02
   0.18400000E+01           0.11742222E-02
   0.18500000E+01           0.99925926E-03
   0.18600000E+01           0.88755556E-03
   0.18700000E+01           0.76340741E-03
   0.18800000E+01           0.62622222E-03
   0.18900000E+01           0.56755556E-03
   0.19000000E+01           0.50977778E-03
   0.19100000E+01           0.43214815E-03
   0.19200000E+01           0.34962963E-03
   0.19300000E+01           0.33407407E-03
   0.19400000E+01           0.27037037E-03
   0.19500000E+01           0.22859259E-03
   0.19600000E+01           0.19066667E-03
   0.19700000E+01           0.17185185E-03
   0.19800000E+01           0.14474074E-03
   0.19900000E+01           0.11807407E-03
   0.20000000E+01           0.10948148E-03
   0.20100000E+01           0.89037037E-04
   0.20200000E+01           0.82518519E-04
   0.20300000E+01           0.59111111E-04
   0.20400000E+01           0.53777778E-04
   0.20500000E+01           0.47259259E-04
   0.20600000E+01           0.37185185E-04
   0.20700000E+01           0.33777778E-04
   0.20800000E+01           0.25925926E-04
   0.20900000E+01           0.23851852E-04
   0.21000000E+01           0.20148148E-04
   0.21100000E+01           0.19259259E-04
   0.21200000E+01           0.16740741E-04
   0.21300000E+01           0.96296296E-05
   0.21400000E+01           0.96296296E-05
   0.21500000E+01           0.87407407E-05
   0.21600000E+01           0.54814815E-05
   0.21700000E+01           0.74074074E-05
   0.21800000E+01           0.62222222E-05
   0.21900000E+01           0.59259259E-05
   0.22000000E+01           0.29629630E-05
   0.22100000E+01           0.34074074E-05
   0.22200000E+01           0.10370370E-05
   0.22300000E+01           0.88888889E-06
   0.22400000E+01           0.88888889E-06
   0.22500000E+01           0.11851852E-05
   0.22600000E+01           0.19259259E-05
   0.22700000E+01           0.44444444E-06
   0.22800000E+01           0.59259259E-06
   0.22900000E+01           0.29629630E-06
   0.23000000E+01           0.00000000E+00
   0.23100000E+01           0.44444444E-06
   0.23200000E+01           0.14814815E-06
   0.23300000E+01           0.00000000E+00
   0.23400000E+01           0.14814815E-06
   0.23500000E+01           0.00000000E+00
   0.23600000E+01           0.00000000E+00
   0.23700000E+01           0.00000000E+00
   0.23800000E+01           0.14814815E-06
   0.23900000E+01           0.00000000E+00
   0.24000000E+01           0.00000000E+00
   0.24100000E+01           0.00000000E+00
   0.24200000E+01           0.14814815E-06
   0.24300000E+01           0.00000000E+00
   0.24400000E+01           0.00000000E+00
   0.24500000E+01           0.00000000E+00
   0.24600000E+01           0.00000000E+00
   0.24700000E+01           0.00000000E+00
   0.24800000E+01           0.00000000E+00
   0.24900000E+01           0.00000000E+00
   0.25000000E+01           0.00000000E+00
   0.25100000E+01           0.00000000E+00
   0.25200000E+01           0.00000000E+00
   0.25300000E+01           0.00000000E+00
   0.25400000E+01           0.00000000E+00
   0.25500000E+01           0.00000000E+00
   0.25600000E+01           0.00000000E+00
   0.25700000E+01           0.00000000E+00
   0.25800000E+01           0.00000000E+00
   0.25900000E+01           0.00000000E+00
   0.26000000E+01           0.00000000E+00
   0.26100000E+01           0.00000000E+00
   0.26200000E+01           0.00000000E+00
   0.26300000E+01           0.00000000E+00
   0.26400000E+01           0.00000000E+00
   0.26500000E+01           0.00000000E+00
   0.26600000E+01           0.00000000E+00
   0.26700000E+01           0.00000000E+00
   0.26800000E+01           0.00000000E+00
   0.26900000E+01           0.00000000E+00
   0.27000000E+01           0.00000000E+00
   0.27100000E+01           0.00000000E+00
   0.27200000E+01           0.00000000E+00
   0.27300000E+01           0.00000000E+00
   0.27400000E+01           0.00000000E+00
   0.27500000E+01           0.00000000E+00
   0.27600000E+01           0.00000000E+00
   0.27700000E+01           0.00000000E+00
   0.27800000E+01           0.00000000E+00
   0.27900000E+01           0.00000000E+00
   0.28000000E+01           0.00000000E+00
   0.28100000E+01           0.00000000E+00
   0.28200000E+01           0.00000000E+00
   0.28300000E+01           0.00000000E+00
   0.28400000E+01           0.00000000E+00
   0.28500000E+01           0.00000000E+00
   0.28600000E+01           0.00000000E+00
   0.28700000E+01           0.00000000E+00
   0.28800000E+01           0.00000000E+00
   0.28900000E+01           0.00000000E+00
   0.29000000E+01           0.00000000E+00
   0.29100000E+01           0.00000000E+00
   0.29200000E+01           0.00000000E+00
   0.29300000E+01           0.00000000E+00
   0.29400000E+01           0.00000000E+00
   0.29500000E+01           0.00000000E+00
   0.29600000E+01           0.00000000E+00
   0.29700000E+01           0.00000000E+00
   0.29800000E+01           0.00000000E+00
   0.29900000E+01           0.00000000E+00
   0.30000000E+01           0.00000000E+00
 #T=     7.0000
  -0.30000000E+01           0.00000000E+00
  -0.29900000E+01           0.00000000E+00
  -0.29800000E+01           0.00000000E+00
  -0.29700000E+01           0.00000000E+00
  -0.29600000E+01           0.00000000E+00
  -0.29500000E+01           0.00000000E+00
  -0.29400000E+01           0.00000000E+00
  -0.29300000E+01           0.00000000E+00
  -0.29200000E+01           0.00000000E+00
  -0.29100000E+01           0.00000000E+00
  -0.29000000E+01           0.00000000E+00
  -0.28900000E+01           0.00000000E+00
  -0.28800000E+01           0.00000000E+00
  -0.28700000E+01           0.00000000E+00
  -0.28600000E+01           0.00000000E+00
  -0.28500000E+01           0.00000000E+00
  -0.28400000E+01           0.00000000E+00
  -0.28300000E+01           0.00000000E+00
  -0.28200000E+01           0.00000000E+00
  -0.28100000E+01           0.00000000E+00
  -0.28000000E+01           0.00000000E+00
  -0.27900000E+01           0.00000000E+00
  -0.27800000E+01           0.00000000E+00
  -0.27700000E+01           0.00000000E+00
  -0.27600000E+01           0.00000000E+00
  -0.27500000E+01           0.00000000E+00
  -0.27400000E+01           0.00000000E+00
  -0.27300000E+01           0.00000000E+00
  -0.27200000E+01           0.00000000E+00
  -0.27100000E+01           0.00000000E+00
  -0.27000000E+01           0.00000000E+00
  -0.26900000E+01           0.00000000E+00
  -0.26800000E+01           0.00000000E+00
  -0.26700000E+01           0.00000000E+00
  -0.26600000E+01           0.00000000E+00
  -0.26500000E+01           0.00000000E+00
  -0.26400000E+01           0.00000000E+00
  -0.26300000E+01           0.00000000E+00
  -0.26200000E+01           0.00000000E+00
  -0.26100000E+01           0.00000000E+00
  -0.26000000E+01           0.00000000E+00
  -0.25900000E+01           0.00000000E+00
  -0.25800000E+01           0.00000000E+00
  -0.25700000E+01           0.00000000E+00
  -0.25600000E+01           0.00000000E+00
  -0.25500000E+01           0.00000000E+00
  -0.25400000E+01           0.00000000E+00
  -0.25300000E+01           0.00000000E+00
  -0.25200000E+01           0.00000000E+00
  -0.25100000E+01           0.00000000E+00
  -0.25000000E+01           0.00000000E+00
  -0.24900000E+01           0.00000000E+00
  -0.24800000E+01           0.00000000E+00
  -0.24700000E+01           0.00000000E+00
  -0.24600000E+01           0.00000000E+00
  -0.24500000E+01           0.00000000E+00
  -0.24400000E+01           0.00000000E+00
  -0.24300000E+01           0.00000000E+00
  -0.24200000E+01           0.00000000E+00
  -0.24100000E+01           0.00000000E+00
  -0.24000000E+01           0.00000000E+00
  -0.23900000E+01           0.00000000E+00
  -0.23800000E+01           0.00000000E+00
  -0.23700000E+01           0.00000000E+00
  -0.23600000E+01           0.00000000E+00
  -0.23500000E+01           0.00000000E+00
  -0.23400000E+01           0.00000000E+00
  -0.23300000E+01           0.00000000E+00
  -0.23200000E+01           0.00000000E+00
  -0.23100000E+01           0.00000000E+00
  -0.23000000E+01           0.00000000E+00
  -0.22900000E+01           0.00000000E+00
  -0.22800000E+01           0.00000000E+00
  -0.22700000E+01           0.00000000E+00
  -0.22600000E+01           0.00000000E+00
  -0.22500000E+01           0.00000000E+00
  -0.22400000E+01           0.00000000E+00
  -0.22300000E+01           0.00000000E+00
  -0.22200000E+01           0.00000000E+00
  -0.22100000E+01           0.00000000E+00
  -0.22000000E+01           0.00000000E+00
  -0.21900000E+01           0.00000000E+00
  -0.21800000E+01           0.00000000E+00
  -0.21700000E+01           0.00000000E+00
  -0.21600000E+01           0.00000000E+00
  -0.21500000E+01           0.00000000E+00
  -0.21400000E+01           0.00000000E+00
  -0.21300000E+01           0.00000000E+00
  -0.21200000E+01           0.00000000E+00
  -0.21100000E+01           0.00000000E+00
  -0.21000000E+01           0.00000000E+00
  -0.20900000E+01           0.00000000E+00
  -0.20800000E+01           0.00000000E+00
  -0.20700000E+01           0.00000000E+00
  -0.20600000E+01           0.00000000E+00
  -0.20500000E+01           0.00000000E+00
  -0.20400000E+01           0.00000000E+00
  -0.20300000E+01           0.00000000E+00
  -0.20200000E+01           0.00000000E+00
  -0.20100000E+01           0.00000000E+00
  -0.20000000E+01           0.00000000E+00
  -0.19900000E+01           0.00000000E+00
  -0.19800000E+01           0.00000000E+00
  -0.19700000E+01           0.00000000E+00
  -0.19600000E+01           0.00000000E+00
  -0.19500000E+01           0.00000000E+00
  -0.19400000E+01           0.00000000E+00
  -0.19300000E+01           0.00000000E+00
  -0.19200000E+01           0.00000000E+00
  -0.19100000E+01           0.00000000E+00
  -0.19000000E+01           0.00000000E+00
  -0.18900000E+01           0.00000000E+00
  -0.18800000E+01           0.00000000E+00
  -0.18700000E+01           0.00000000E+00
  -0.18600000E+01           0.00000000E+00
  -0.18500000E+01           0.00000000E+00
  -0.18400000E+01           0.00000000E+00
  -0.18300000E+01           0.00000000E+00
  -0.18200000E+01           0.00000000E+00
  -0.18100000E+01           0.00000000E+00
  -0.18000000E+01           0.00000000E+00
  -0.17900000E+01           0.00000000E+00
  -0.17800000E+01           0.00000000E+00
  -0.17700000E+01           0.00000000E+00
  -0.17600000E+01           0.00000000E+00
  -0.17500000E+01           0.00000000E+00
  -0.17400000E+01           0.00000000E+00
  -0.17300000E+01           0.00000000E+00
  -0.17200000E+01           0.00000000E+00
  -0.17100000E+01           0.00000000E+00
  -0.17000000E+01           0.00000000E+00
  -0.16900000E+01           0.00000000E+00
  -0.16800000E+01           0.00000000E+00
  -0.16700000E+01           0.00000000E+00
  -0.16600000E+01           0.00000000E+00
  -0.16500000E+01           0.00000000E+00
  -0.16400000E+01           0.00000000E+00
  -0.16300000E+01           0.00000000E+00
  -0.16200000E+01           0.00000000E+00
  -0.16100000E+01           0.00000000E+00
  -0.16000000E+01           0.00000000E+00
  -0.15900000E+01           0.00000000E+00
  -0.15800000E+01           0.00000000E+00
  -0.15700000E+01           0.00000000E+00
  -0.15600000E+01           0.00000000E+00
  -0.15500000E+01           0.00000000E+00
  -0.15400000E+01           0.00000000E+00
  -0.15300000E+01           0.00000000E+00
  -0.15200000E+01           0.00000000E+00
  -0.15100000E+01           0.00000000E+00
  -0.15000000E+01           0.00000000E+00
  -0.14900000E+01           0.00000000E+00
  -0.14800000E+01           0.00000000E+00
  -0.14700000E+01           0.00000000E+00
  -0.14600000E+01           0.00000000E+00
  -0.14500000E+01           0.00000000E+00
  -0.14400000E+01           0.00000000E+00
  -0.14300000E+01           0.00000000E+00
  -0.14200000E+01           0.00000000E+00
  -0.14100000E+01           0.00000000E+00
  -0.14000000E+01           0.00000000E+00
  -0.13900000E+01           0.00000000E+00
  -0.13800000E+01           0.00000000E+00
  -0.13700000E+01           0.00000000E+00
  -0.13600000E+01           0.00000000E+00
  -0.13500000E+01           0.00000000E+00
  -0.13400000E+01           0.00000000E+00
  -0.13300000E+01           0.00000000E+00
  -0.13200000E+01           0.00000000E+00
  -0.13100000E+01           0.00000000E+00
  -0.13000000E+01           0.00000000E+00
  -0.12900000E+01           0.00000000E+00
  -0.12800000E+01           0.00000000E+00
  -0.12700000E+01           0.00000000E+00
  -0.12600000E+01           0.00000000E+00
  -0.12500000E+01           0.00000000E+00
  -0.12400000E+01           0.00000000E+00
  -0.12300000E+01           0.00000000E+00
  -0.12200000E+01           0.00000000E+00
  -0.12100000E+01           0.00000000E+00
  -0.12000000E+01           0.00000000E+00
  -0.11900000E+01           0.00000000E+00
  -0.11800000E+01           0.00000000E+00
  -0.11700000E+01           0.00000000E+00
  -0.11600000E+01           0.00000000E+00
  -0.11500000E+01           0.00000000E+00
  -0.11400000E+01           0.00000000E+00
  -0.11300000E+01           0.00000000E+00
  -0.11200000E+01           0.00000000E+00
  -0.11100000E+01           0.00000000E+00
  -0.11000000E+01           0.00000000E+00
  -0.10900000E+01           0.00000000E+00
  -0.10800000E+01           0.00000000E+00
  -0.10700000E+01           0.00000000E+00
  -0.10600000E+01           0.00000000E+00
  -0.10500000E+01           0.00000000E+00
  -0.10400000E+01           0.00000000E+00
  -0.10300000E+01           0.00000000E+00
  -0.10200000E+01           0.00000000E+00
  -0.10100000E+01           0.00000000E+00
  -0.10000000E+01           0.00000000E+00
  -0.99000000E+00           0.00000000E+00
  -0.98000000E+00           0.00000000E+00
  -0.97000000E+00           0.00000000E+00
  -0.96000000E+00           0.00000000E+00
  -0.95000000E+00           0.00000000E+00
  -0.94000000E+00           0.00000000E+00
  -0.93000000E+00           0.00000000E+00
  -0.92000000E+00           0.00000000E+00
  -0.91000000E+00           0.00000000E+00
  -0.90000000E+00           0.00000000E+00
  -0.89000000E+00           0.00000000E+00
  -0.88000000E+00           0.00000000E+00
  -0.87000000E+00           0.00000000E+00
  -0.86000000E+00           0.00000000E+00
  -0.85000000E+00           0.00000000E+00
  -0.84000000E+00           0.00000000E+00
  -0.83000000E+00           0.00000000E+00
  -0.82000000E+00           0.00000000E+00
  -0.81000000E+00           0.00000000E+00
  -0.80000000E+00           0.00000000E+00
  -0.79000000E+00           0.00000000E+00
  -0.78000000E+00           0.00000000E+00
  -0.77000000E+00           0.00000000E+00
  -0.76000000E+00           0.00000000E+00
  -0.75000000E+00           0.00000000E+00
  -0.74000000E+00           0.00000000E+00
  -0.73000000E+00           0.00000000E+00
  -0.72000000E+00           0.00000000E+00
  -0.71000000E+00           0.00000000E+00
  -0.70000000E+00           0.00000000E+00
  -0.69000000E+00           0.00000000E+00
  -0.68000000E+00           0.00000000E+00
  -0.67000000E+00           0.00000000E+00
  -0.66000000E+00           0.00000000E+00
  -0.65000000E+00           0.00000000E+00
  -0.64000000E+00           0.00000000E+00
  -0.63000000E+00           0.00000000E+00
  -0.62000000E+00           0.00000000E+00
  -0.61000000E+00           0.00000000E+00
  -0.60000000E+00           0.00000000E+00
  -0.59000000E+00           0.00000000E+00
  -0.58000000E+00           0.00000000E+00
  -0.57000000E+00           0.00000000E+00
  -0.56000000E+00           0.00000000E+00
  -0.55000000E+00           0.00000000E+00
  -0.54000000E+00           0.00000000E+00
  -0.53000000E+00           0.00000000E+00
  -0.52000000E+00           0.00000000E+00
  -0.51000000E+00           0.00000000E+00
  -0.50000000E+00           0.00000000E+00
  -0.49000000E+00           0.00000000E+00
  -0.48000000E+00           0.00000000E+00
  -0.47000000E+00           0.00000000E+00
  -0.46000000E+00           0.00000000E+00
  -0.45000000E+00           0.00000000E+00
  -0.44000000E+00           0.00000000E+00
  -0.43000000E+00           0.00000000E+00
  -0.42000000E+00           0.00000000E+00
  -0.41000000E+00           0.00000000E+00
  -0.40000000E+00           0.00000000E+00
  -0.39000000E+00           0.00000000E+00
  -0.38000000E+00           0.00000000E+00
  -0.37000000E+00           0.00000000E+00
  -0.36000000E+00           0.00000000E+00
  -0.35000000E+00           0.00000000E+00
  -0.34000000E+00           0.00000000E+00
  -0.33000000E+00           0.00000000E+00
  -0.32000000E+00           0.00000000E+00
  -0.31000000E+00           0.00000000E+00
  -0.30000000E+00           0.00000000E+00
  -0.29000000E+00           0.00000000E+00
  -0.28000000E+00           0.00000000E+00
  -0.27000000E+00           0.00000000E+00
  -0.26000000E+00           0.00000000E+00
  -0.25000000E+00           0.00000000E+00
  -0.24000000E+00           0.00000000E+00
  -0.23000000E+00           0.00000000E+00
  -0.22000000E+00           0.00000000E+00
  -0.21000000E+00           0.00000000E+00
  -0.20000000E+00           0.00000000E+00
  -0.19000000E+00           0.00000000E+00
  -0.18000000E+00           0.00000000E+00
  -0.17000000E+00           0.00000000E+00
  -0.16000000E+00           0.00000000E+00
  -0.15000000E+00           0.00000000E+00
  -0.14000000E+00           0.00000000E+00
  -0.13000000E+00           0.00000000E+00
  -0.12000000E+00           0.00000000E+00
  -0.11000000E+00           0.00000000E+00
  -0.10000000E+00           0.00000000E+00
  -0.90000000E-01           0.00000000E+00
  -0.80000000E-01           0.00000000E+00
  -0.70000000E-01           0.00000000E+00
  -0.60000000E-01           0.00000000E+00
  -0.50000000E-01           0.00000000E+00
  -0.40000000E-01           0.00000000E+00
  -0.30000000E-01           0.00000000E+00
  -0.20000000E-01           0.00000000E+00
  -0.10000000E-01           0.00000000E+00
   0.00000000E+00           0.29629630E-06
   0.10000000E-01           0.59259259E-05
   0.20000000E-01           0.34814815E-04
   0.30000000E-01           0.76000000E-04
   0.40000000E-01           0.13392593E-03
   0.50000000E-01           0.20133333E-03
   0.60000000E-01           0.31496296E-03
   0.70000000E-01           0.42207407E-03
   0.80000000E-01           0.55822222E-03
   0.90000000E-01           0.72711111E-03
   0.10000000E+00           0.90400000E-03
   0.11000000E+00           0.10949630E-02
   0.12000000E+00           0.13854815E-02
   0.13000000E+00           0.16437037E-02
   0.14000000E+00           0.19432593E-02
   0.15000000E+00           0.22997037E-02
   0.16000000E+00           0.26548148E-02
   0.17000000E+00           0.30567407E-02
   0.18000000E+00           0.36094815E-02
   0.19000000E+00           0.42065185E-02
   0.20000000E+00           0.47736296E-02
   0.21000000E+00           0.54047407E-02
   0.22000000E+00           0.62297778E-02
   0.23000000E+00           0.70708148E-02
   0.24000000E+00           0.80918519E-02
   0.25000000E+00           0.92306667E-02
   0.26000000E+00           0.10139704E-01
   0.27000000E+00           0.11456444E-01
   0.28000000E+00           0.12891852E-01
   0.29000000E+00           0.14567259E-01
   0.30000000E+00           0.16173926E-01
   0.31000000E+00           0.18029037E-01
   0.32000000E+00           0.20218370E-01
   0.33000000E+00           0.22431556E-01
   0.34000000E+00           0.24879852E-01
   0.35000000E+00           0.27697630E-01
   0.36000000E+00           0.30524593E-01
   0.37000000E+00           0.34016593E-01
   0.38000000E+00           0.37627556E-01
   0.39000000E+00           0.41398815E-01
   0.40000000E+00           0.45820593E-01
   0.41000000E+00           0.50240296E-01
   0.42000000E+00           0.55620444E-01
   0.43000000E+00           0.61222370E-01
   0.44000000E+00           0.66984593E-01
   0.45000000E+00           0.74020444E-01
   0.46000000E+00           0.81024593E-01
   0.47000000E+00           0.88951407E-01
   0.48000000E+00           0.97337185E-01
   0.49000000E+00           0.10643437E+00
   0.50000000E+00           0.11621452E+00
   0.51000000E+00           0.12756489E+00
   0.52000000E+00           0.13888415E+00
   0.53000000E+00           0.15120874E+00
   0.54000000E+00           0.16492030E+00
   0.55000000E+00           0.17997822E+00
   0.56000000E+00           0.19484874E+00
   0.57000000E+00           0.21262104E+00
   0.58000000E+00           0.23039807E+00
   0.59000000E+00           0.25009807E+00
   0.60000000E+00           0.27054074E+00
   0.61000000E+00           0.29380919E+00
   0.62000000E+00           0.31696222E+00
   0.63000000E+00           0.34303230E+00
   0.64000000E+00           0.37081259E+00
   0.65000000E+00           0.39969748E+00
   0.66000000E+00           0.43100459E+00
   0.67000000E+00           0.46511526E+00
   0.68000000E+00           0.50038222E+00
   0.69000000E+00           0.53675052E+00
   0.70000000E+00           0.57768711E+00
   0.71000000E+00           0.62017526E+00
   0.72000000E+00           0.66481452E+00
   0.73000000E+00           0.71142207E+00
   0.74000000E+00           0.76166015E+00
   0.75000000E+00           0.81325378E+00
   0.76000000E+00           0.86726430E+00
   0.77000000E+00           0.92529970E+00
   0.78000000E+00           0.98499496E+00
   0.79000000E+00           0.10497719E+01
   0.80000000E+00           0.11154379E+01
   0.81000000E+00           0.11834132E+01
   0.82000000E+00           0.12542975E+01
   0.83000000E+00           0.13277692E+01
   0.84000000E+00           0.14034197E+01
   0.85000000E+00           0.14827671E+01
   0.86000000E+00           0.15607973E+01
   0.87000000E+00           0.16422564E+01
   0.88000000E+00           0.17257080E+01
   0.89000000E+00           0.18098084E+01
   0.90000000E+00           0.18955024E+01
   0.91000000E+00           0.19791434E+01
   0.92000000E+00           0.20645917E+01
   0.93000000E+00           0.21494744E+01
   0.94000000E+00           0.22318947E+01
   0.95000000E+00           0.23113022E+01
   0.96000000E+00           0.23892636E+01
   0.97000000E+00           0.24616716E+01
   0.98000000E+00           0.25283604E+01
   0.99000000E+00           0.25870612E+01
   0.10000000E+01           0.26186535E+01
   0.10100000E+01           0.25244252E+01
   0.10200000E+01           0.24096719E+01
   0.10300000E+01           0.22988724E+01
   0.10400000E+01           0.21911222E+01
   0.10500000E+01           0.20880690E+01
   0.10600000E+01           0.19880219E+01
   0.10700000E+01           0.18908401E+01
   0.10800000E+01           0.17986190E+01
   0.10900000E+01           0.17085871E+01
   0.11000000E+01           0.16220215E+01
   0.11100000E+01           0.15395040E+01
   0.11200000E+01           0.14591123E+01
   0.11300000E+01           0.13818123E+01
   0.11400000E+01           0.13090456E+01
   0.11500000E+01           0.12371859E+01
   0.11600000E+01           0.11699760E+01
   0.11700000E+01           0.11047130E+01
   0.11800000E+01           0.10428292E+01
   0.11900000E+01           0.98419822E+00
   0.12000000E+01           0.92615719E+00
   0.12100000E+01           0.87266281E+00
   0.12200000E+01           0.82035259E+00
   0.12300000E+01           0.77134681E+00
   0.12400000E+01           0.72539748E+00
   0.12500000E+01           0.68109674E+00
   0.12600000E+01           0.63910978E+00
   0.12700000E+01           0.59763259E+00
   0.12800000E+01           0.55970044E+00
   0.12900000E+01           0.52526667E+00
   0.13000000E+01           0.49009704E+00
   0.13100000E+01           0.45850341E+00
   0.13200000E+01           0.42865556E+00
   0.13300000E+01           0.39976015E+00
   0.13400000E+01           0.37177348E+00
   0.13500000E+01           0.34724756E+00
   0.13600000E+01           0.32297259E+00
   0.13700000E+01           0.30043200E+00
   0.13800000E+01           0.27887778E+00
   0.13900000E+01           0.25927452E+00
   0.14000000E+01           0.24081911E+00
   0.14100000E+01           0.22291170E+00
   0.14200000E+01           0.20635748E+00
   0.14300000E+01           0.19121496E+00
   0.14400000E+01           0.17665926E+00
   0.14500000E+01           0.16367748E+00
   0.14600000E+01           0.15118133E+00
   0.14700000E+01           0.13905526E+00
   0.14800000E+01           0.12856607E+00
   0.14900000E+01           0.11830252E+00
   0.15000000E+01           0.10852000E+00
   0.15100000E+01           0.10011141E+00
   0.15200000E+01           0.91378519E-01
   0.15300000E+01           0.84277926E-01
   0.15400000E+01           0.77297630E-01
   0.15500000E+01           0.70857630E-01
   0.15600000E+01           0.64857778E-01
   0.15700000E+01           0.59160889E-01
   0.15800000E+01           0.54336000E-01
   0.15900000E+01           0.49336296E-01
   0.16000000E+01           0.44882370E-01
   0.16100000E+01           0.41078815E-01
   0.16200000E+01           0.37231852E-01
   0.16300000E+01           0.33938222E-01
   0.16400000E+01           0.30815852E-01
   0.16500000E+01           0.28096444E-01
   0.16600000E+01           0.25395111E-01
   0.16700000E+01           0.23009630E-01
   0.16800000E+01           0.20876889E-01
   0.16900000E+01           0.18775852E-01
   0.17000000E+01           0.17075111E-01
   0.17100000E+01           0.15531111E-01
   0.17200000E+01           0.13806963E-01
   0.17300000E+01           0.12530074E-01
   0.17400000E+01           0.11293481E-01
   0.17500000E+01           0.10046667E-01
   0.17600000E+01           0.91440000E-02
   0.17700000E+01           0.81278519E-02
   0.17800000E+01           0.72334815E-02
   0.17900000E+01           0.65922963E-02
   0.18000000E+01           0.58240000E-02
   0.18100000E+01           0.52001481E-02
   0.18200000E+01           0.46920000E-02
   0.18300000E+01           0.41574815E-02
   0.18400000E+01           0.36802963E-02
   0.18500000E+01           0.32468148E-02
   0.18600000E+01           0.29377778E-02
   0.18700000E+01           0.25842963E-02
   0.18800000E+01           0.22711111E-02
   0.18900000E+01           0.20345185E-02
   0.19000000E+01           0.17894815E-02
   0.19100000E+01           0.15530370E-02
   0.19200000E+01           0.14176296E-02
   0.19300000E+01           0.12352593E-02
   0.19400000E+01           0.11207407E-02
   0.19500000E+01           0.95170370E-03
   0.19600000E+01           0.85555556E-03
   0.19700000E+01           0.73525926E-03
   0.19800000E+01           0.63940741E-03
   0.19900000E+01           0.55866667E-03
   0.20000000E+01           0.49659259E-03
   0.20100000E+01           0.42207407E-03
   0.20200000E+01           0.36503704E-03
   0.20300000E+01           0.32533333E-03
   0.20400000E+01           0.27318519E-03
   0.20500000E+01           0.26074074E-03
   0.20600000E+01           0.21703704E-03
   0.20700000E+01           0.18800000E-03
   0.20800000E+01           0.14933333E-03
   0.20900000E+01           0.13407407E-03
   0.21000000E+01           0.12133333E-03
   0.21100000E+01           0.10355556E-03
   0.21200000E+01           0.88000000E-04
   0.21300000E+01           0.72888889E-04
   0.21400000E+01           0.61481481E-04
   0.21500000E+01           0.52444444E-04
   0.21600000E+01           0.52592593E-04
   0.21700000E+01           0.37037037E-04
   0.21800000E+01           0.37777778E-04
   0.21900000E+01           0.31259259E-04
   0.22000000E+01           0.25037037E-04
   0.22100000E+01           0.22518519E-04
   0.22200000E+01           0.16444444E-04
   0.22300000E+01           0.13185185E-04
   0.22400000E+01           0.12740741E-04
   0.22500000E+01           0.10814815E-04
   0.22600000E+01           0.94814815E-05
   0.22700000E+01           0.91851852E-05
   0.22800000E+01           0.40000000E-05
   0.22900000E+01           0.44444444E-05
   0.23000000E+01           0.60740741E-05
   0.23100000E+01           0.42962963E-05
   0.23200000E+01           0.35555556E-05
   0.23300000E+01           0.23703704E-05
   0.23400000E+01           0.22222222E-05
   0.23500000E+01           0.74074074E-06
   0.23600000E+01           0.17777778E-05
   0.23700000E+01           0.88888889E-06
   0.23800000E+01           0.13333333E-05
   0.23900000E+01           0.59259259E-06
   0.24000000E+01           0.29629630E-06
   0.24100000E+01           0.59259259E-06
   0.24200000E+01           0.00000000E+00
   0.24300000E+01           0.14814815E-06
   0.24400000E+01           0.29629630E-06
   0.24500000E+01           0.00000000E+00
   0.24600000E+01           0.00000000E+00
   0.24700000E+01           0.29629630E-06
   0.24800000E+01           0.14814815E-06
   0.24900000E+01           0.14814815E-06
   0.25000000E+01           0.00000000E+00
   0.25100000E+01           0.00000000E+00
   0.25200000E+01           0.00000000E+00
   0.25300000E+01           0.00000000E+00
   0.25400000E+01           0.00000000E+00
   0.25500000E+01           0.29629630E-06
   0.25600000E+01           0.00000000E+00
   0.25700000E+01           0.00000000E+00
   0.25800000E+01           0.00000000E+00
   0.25900000E+01           0.00000000E+00
   0.26000000E+01           0.00000000E+00
   0.26100000E+01           0.00000000E+00
   0.26200000E+01           0.00000000E+00
   0.26300000E+01           0.00000000E+00
   0.26400000E+01           0.00000000E+00
   0.26500000E+01           0.00000000E+00
   0.26600000E+01           0.00000000E+00
   0.26700000E+01           0.00000000E+00
   0.26800000E+01           0.00000000E+00
   0.26900000E+01           0.00000000E+00
   0.27000000E+01           0.00000000E+00
   0.27100000E+01           0.00000000E+00
   0.27200000E+01           0.00000000E+00
   0.27300000E+01           0.00000000E+00
   0.27400000E+01           0.00000000E+00
   0.27500000E+01           0.00000000E+00
   0.27600000E+01           0.00000000E+00
   0.27700000E+01           0.00000000E+00
   0.27800000E+01           0.00000000E+00
   0.27900000E+01           0.00000000E+00
   0.28000000E+01           0.00000000E+00
   0.28100000E+01           0.00000000E+00
   0.28200000E+01           0.00000000E+00
   0.28300000E+01           0.00000000E+00
   0.28400000E+01           0.00000000E+00
   0.28500000E+01           0.00000000E+00
   0.28600000E+01           0.00000000E+00
   0.28700000E+01           0.00000000E+00
   0.28800000E+01           0.00000000E+00
   0.28900000E+01           0.00000000E+00
   0.29000000E+01           0.00000000E+00
   0.29100000E+01           0.00000000E+00
   0.29200000E+01           0.00000000E+00
   0.29300000E+01           0.00000000E+00
   0.29400000E+01           0.00000000E+00
   0.29500000E+01           0.00000000E+00
   0.29600000E+01           0.00000000E+00
   0.29700000E+01           0.00000000E+00
   0.29800000E+01           0.00000000E+00
   0.29900000E+01           0.00000000E+00
   0.30000000E+01           0.00000000E+00
 #T=     8.0000
  -0.30000000E+01           0.00000000E+00
  -0.29900000E+01           0.00000000E+00
  -0.29800000E+01           0.00000000E+00
  -0.29700000E+01           0.00000000E+00
  -0.29600000E+01           0.00000000E+00
  -0.29500000E+01           0.00000000E+00
  -0.29400000E+01           0.00000000E+00
  -0.29300000E+01           0.00000000E+00
  -0.29200000E+01           0.00000000E+00
  -0.29100000E+01           0.00000000E+00
  -0.29000000E+01           0.00000000E+00
  -0.28900000E+01           0.00000000E+00
  -0.28800000E+01           0.00000000E+00
  -0.28700000E+01           0.00000000E+00
  -0.28600000E+01           0.00000000E+00
  -0.28500000E+01           0.00000000E+00
  -0.28400000E+01           0.00000000E+00
  -0.28300000E+01           0.00000000E+00
  -0.28200000E+01           0.00000000E+00
  -0.28100000E+01           0.00000000E+00
  -0.28000000E+01           0.00000000E+00
  -0.27900000E+01           0.00000000E+00
  -0.27800000E+01           0.00000000E+00
  -0.27700000E+01           0.00000000E+00
  -0.27600000E+01           0.00000000E+00
  -0.27500000E+01           0.00000000E+00
  -0.27400000E+01           0.00000000E+00
  -0.27300000E+01           0.00000000E+00
  -0.27200000E+01           0.00000000E+00
  -0.27100000E+01           0.00000000E+00
  -0.27000000E+01           0.00000000E+00
  -0.26900000E+01           0.00000000E+00
  -0.26800000E+01           0.00000000E+00
  -0.26700000E+01           0.00000000E+00
  -0.26600000E+01           0.00000000E+00
  -0.26500000E+01           0.00000000E+00
  -0.26400000E+01           0.00000000E+00
  -0.26300000E+01           0.00000000E+00
  -0.26200000E+01           0.00000000E+00
  -0.26100000E+01           0.00000000E+00
  -0.26000000E+01           0.00000000E+00
  -0.25900000E+01           0.00000000E+00
  -0.25800000E+01           0.00000000E+00
  -0.25700000E+01           0.00000000E+00
  -0.25600000E+01           0.00000000E+00
  -0.25500000E+01           0.00000000E+00
  -0.25400000E+01           0.00000000E+00
  -0.25300000E+01           0.00000000E+00
  -0.25200000E+01           0.00000000E+00
  -0.25100000E+01           0.00000000E+00
  -0.25000000E+01           0.00000000E+00
[...]
  -0.16400000E+01           0.00000000E+00
  -0.16300000E+01           0.00000000E+00
  -0.16200000E+01           0.00000000E+00
  -0.16100000E+01           0.00000000E+00
  -0.16000000E+01           0.00000000E+00
  -0.15900000E+01           0.00000000E+00
  -0.15800000E+01           0.00000000E+00
  -0.15700000E+01           0.00000000E+00
  -0.15600000E+01           0.00000000E+00
  -0.15500000E+01           0.00000000E+00
  -0.15400000E+01           0.00000000E+00
  -0.15300000E+01           0.00000000E+00
  -0.15200000E+01           0.00000000E+00
  -0.15100000E+01           0.00000000E+00
  -0.15000000E+01           0.00000000E+00
  -0.14900000E+01           0.00000000E+00
  -0.14800000E+01           0.00000000E+00
  -0.14700000E+01           0.00000000E+00
  -0.14600000E+01           0.00000000E+00
  -0.14500000E+01           0.00000000E+00
  -0.14400000E+01           0.00000000E+00
  -0.14300000E+01           0.00000000E+00
  -0.14200000E+01           0.00000000E+00
  -0.14100000E+01           0.00000000E+00
  -0.14000000E+01           0.00000000E+00
  -0.13900000E+01           0.00000000E+00
  -0.13800000E+01           0.00000000E+00
  -0.13700000E+01           0.00000000E+00
  -0.13600000E+01           0.00000000E+00
  -0.13500000E+01           0.00000000E+00
  -0.13400000E+01           0.00000000E+00
  -0.13300000E+01           0.00000000E+00
  -0.13200000E+01           0.00000000E+00
  -0.13100000E+01           0.00000000E+00
  -0.13000000E+01           0.00000000E+00
  -0.12900000E+01           0.00000000E+00
  -0.12800000E+01           0.00000000E+00
  -0.12700000E+01           0.00000000E+00
  -0.12600000E+01           0.00000000E+00
  -0.12500000E+01           0.00000000E+00
  -0.12400000E+01           0.00000000E+00
  -0.12300000E+01           0.00000000E+00
  -0.12200000E+01           0.00000000E+00
  -0.12100000E+01           0.00000000E+00
  -0.12000000E+01           0.00000000E+00
  -0.11900000E+01           0.00000000E+00
  -0.11800000E+01           0.00000000E+00
  -0.11700000E+01           0.00000000E+00
  -0.11600000E+01           0.00000000E+00
  -0.11500000E+01           0.00000000E+00
  -0.11400000E+01           0.00000000E+00
  -0.11300000E+01           0.00000000E+00
  -0.11200000E+01           0.00000000E+00
  -0.11100000E+01           0.00000000E+00
  -0.11000000E+01           0.00000000E+00
  -0.10900000E+01           0.00000000E+00
  -0.10800000E+01           0.00000000E+00
  -0.10700000E+01           0.00000000E+00
  -0.10600000E+01           0.00000000E+00
  -0.10500000E+01           0.00000000E+00
  -0.10400000E+01           0.00000000E+00
  -0.10300000E+01           0.00000000E+00
  -0.10200000E+01           0.00000000E+00
  -0.10100000E+01           0.00000000E+00
  -0.10000000E+01           0.00000000E+00
  -0.99000000E+00           0.00000000E+00
  -0.98000000E+00           0.00000000E+00
  -0.97000000E+00           0.00000000E+00
  -0.96000000E+00           0.00000000E+00
  -0.95000000E+00           0.00000000E+00
  -0.94000000E+00           0.00000000E+00
  -0.93000000E+00           0.00000000E+00
  -0.92000000E+00           0.00000000E+00
  -0.91000000E+00           0.00000000E+00
  -0.90000000E+00           0.00000000E+00
  -0.89000000E+00           0.00000000E+00
  -0.88000000E+00           0.00000000E+00
  -0.87000000E+00           0.00000000E+00
  -0.86000000E+00           0.00000000E+00
  -0.85000000E+00           0.00000000E+00
  -0.84000000E+00           0.00000000E+00
  -0.83000000E+00           0.00000000E+00
  -0.82000000E+00           0.00000000E+00
  -0.81000000E+00           0.00000000E+00
  -0.80000000E+00           0.00000000E+00
  -0.79000000E+00           0.00000000E+00
  -0.78000000E+00           0.00000000E+00
  -0.77000000E+00           0.00000000E+00
  -0.76000000E+00           0.00000000E+00
  -0.75000000E+00           0.00000000E+00
  -0.74000000E+00           0.00000000E+00
  -0.73000000E+00           0.00000000E+00
  -0.72000000E+00           0.00000000E+00
  -0.71000000E+00           0.00000000E+00
  -0.70000000E+00           0.00000000E+00
  -0.69000000E+00           0.00000000E+00
  -0.68000000E+00           0.00000000E+00
  -0.67000000E+00           0.00000000E+00
  -0.66000000E+00           0.00000000E+00
  -0.65000000E+00           0.00000000E+00
  -0.64000000E+00           0.00000000E+00
  -0.63000000E+00           0.00000000E+00
  -0.62000000E+00           0.00000000E+00
  -0.61000000E+00           0.00000000E+00
  -0.60000000E+00           0.00000000E+00
  -0.59000000E+00           0.00000000E+00
  -0.58000000E+00           0.00000000E+00
  -0.57000000E+00           0.00000000E+00
  -0.56000000E+00           0.00000000E+00
  -0.55000000E+00           0.00000000E+00
  -0.54000000E+00           0.00000000E+00
  -0.53000000E+00           0.00000000E+00
  -0.52000000E+00           0.00000000E+00
  -0.51000000E+00           0.00000000E+00
  -0.50000000E+00           0.00000000E+00
  -0.49000000E+00           0.00000000E+00
  -0.48000000E+00           0.00000000E+00
  -0.47000000E+00           0.00000000E+00
  -0.46000000E+00           0.00000000E+00
  -0.45000000E+00           0.00000000E+00
  -0.44000000E+00           0.00000000E+00
  -0.43000000E+00           0.00000000E+00
  -0.42000000E+00           0.00000000E+00
  -0.41000000E+00           0.00000000E+00
  -0.40000000E+00           0.00000000E+00
  -0.39000000E+00           0.00000000E+00
  -0.38000000E+00           0.00000000E+00
  -0.37000000E+00           0.00000000E+00
  -0.36000000E+00           0.00000000E+00
  -0.35000000E+00           0.00000000E+00
  -0.34000000E+00           0.00000000E+00
  -0.33000000E+00           0.00000000E+00
  -0.32000000E+00           0.00000000E+00
  -0.31000000E+00           0.00000000E+00
  -0.30000000E+00           0.00000000E+00
  -0.29000000E+00           0.00000000E+00
  -0.28000000E+00           0.00000000E+00
  -0.27000000E+00           0.00000000E+00
  -0.26000000E+00           0.00000000E+00
  -0.25000000E+00           0.00000000E+00
  -0.24000000E+00           0.00000000E+00
  -0.23000000E+00           0.00000000E+00
  -0.22000000E+00           0.00000000E+00
  -0.21000000E+00           0.00000000E+00
  -0.20000000E+00           0.00000000E+00
  -0.19000000E+00           0.00000000E+00
  -0.18000000E+00           0.00000000E+00
  -0.17000000E+00           0.00000000E+00
  -0.16000000E+00           0.00000000E+00
  -0.15000000E+00           0.00000000E+00
  -0.14000000E+00           0.00000000E+00
  -0.13000000E+00           0.00000000E+00
  -0.12000000E+00           0.00000000E+00
  -0.11000000E+00           0.00000000E+00
  -0.10000000E+00           0.00000000E+00
  -0.90000000E-01           0.00000000E+00
  -0.80000000E-01           0.00000000E+00
  -0.70000000E-01           0.00000000E+00
  -0.60000000E-01           0.00000000E+00
  -0.50000000E-01           0.00000000E+00
  -0.40000000E-01           0.00000000E+00
  -0.30000000E-01           0.00000000E+00
  -0.20000000E-01           0.00000000E+00
  -0.10000000E-01           0.00000000E+00
   0.00000000E+00           0.19259259E-05
   0.10000000E-01           0.62074074E-04
   0.20000000E-01           0.24133333E-03
   0.30000000E-01           0.51866667E-03
   0.40000000E-01           0.94651852E-03
   0.50000000E-01           0.14974815E-02
   0.60000000E-01           0.21228148E-02
   0.70000000E-01           0.29035556E-02
   0.80000000E-01           0.37034074E-02
   0.90000000E-01           0.47437037E-02
   0.10000000E+00           0.58866667E-02
   0.11000000E+00           0.70137778E-02
   0.12000000E+00           0.83653333E-02
   0.13000000E+00           0.98026667E-02
   0.14000000E+00           0.11414222E-01
   0.15000000E+00           0.13048889E-01
   0.16000000E+00           0.14895704E-01
   0.17000000E+00           0.16741037E-01
   0.18000000E+00           0.18824444E-01
   0.19000000E+00           0.20954963E-01
   0.20000000E+00           0.23355704E-01
   0.21000000E+00           0.25645481E-01
   0.22000000E+00           0.28260593E-01
   0.23000000E+00           0.30666815E-01
   0.24000000E+00           0.33359259E-01
   0.25000000E+00           0.36452741E-01
   0.26000000E+00           0.39302963E-01
   0.27000000E+00           0.42308593E-01
   0.28000000E+00           0.45404593E-01
   0.29000000E+00           0.48845926E-01
   0.30000000E+00           0.52210519E-01
   0.31000000E+00           0.55755259E-01
   0.32000000E+00           0.59426815E-01
   0.33000000E+00           0.63164741E-01
   0.34000000E+00           0.67143259E-01
   0.35000000E+00           0.71161333E-01
   0.36000000E+00           0.75129926E-01
   0.37000000E+00           0.79137926E-01
   0.38000000E+00           0.83784444E-01
   0.39000000E+00           0.87902963E-01
   0.40000000E+00           0.92401037E-01
   0.41000000E+00           0.97107407E-01
   0.42000000E+00           0.10194578E+00
   0.43000000E+00           0.10660356E+00
   0.44000000E+00           0.11180859E+00
   0.45000000E+00           0.11699378E+00
   0.46000000E+00           0.12217911E+00
   0.47000000E+00           0.12728741E+00
   0.48000000E+00           0.13294163E+00
   0.49000000E+00           0.13829733E+00
   0.50000000E+00           0.14408207E+00
   0.51000000E+00           0.14974681E+00
   0.52000000E+00           0.15579956E+00
   0.53000000E+00           0.16179170E+00
   0.54000000E+00           0.16752267E+00
   0.55000000E+00           0.17334444E+00
   0.56000000E+00           0.17996237E+00
   0.57000000E+00           0.18647719E+00
   0.58000000E+00           0.19287348E+00
   0.59000000E+00           0.19958030E+00
   0.60000000E+00           0.20598222E+00
   0.61000000E+00           0.21281733E+00
   0.62000000E+00           0.22007363E+00
   0.63000000E+00           0.22714622E+00
   0.64000000E+00           0.23406533E+00
   0.65000000E+00           0.24115378E+00
   0.66000000E+00           0.24823156E+00
   0.67000000E+00           0.25573230E+00
   0.68000000E+00           0.26363585E+00
   0.69000000E+00           0.27133259E+00
   0.70000000E+00           0.27858474E+00
   0.71000000E+00           0.28686919E+00
   0.72000000E+00           0.29473170E+00
   0.73000000E+00           0.30280252E+00
   0.74000000E+00           0.31072785E+00
   0.75000000E+00           0.31942948E+00
   0.76000000E+00           0.32740844E+00
   0.77000000E+00           0.33588593E+00
   0.78000000E+00           0.34450948E+00
   0.79000000E+00           0.35278800E+00
   0.80000000E+00           0.36174133E+00
   0.81000000E+00           0.37088919E+00
   0.82000000E+00           0.37942578E+00
   0.83000000E+00           0.38877096E+00
   0.84000000E+00           0.39766281E+00
   0.85000000E+00           0.40628504E+00
   0.86000000E+00           0.41633452E+00
   0.87000000E+00           0.42548237E+00
   0.88000000E+00           0.43476296E+00
   0.89000000E+00           0.44422370E+00
   0.90000000E+00           0.45399304E+00
   0.91000000E+00           0.46344252E+00
   0.92000000E+00           0.47393185E+00
   0.93000000E+00           0.48349970E+00
   0.94000000E+00           0.49345896E+00
   0.95000000E+00           0.50322681E+00
   0.96000000E+00           0.51384548E+00
   0.97000000E+00           0.52353867E+00
   0.98000000E+00           0.53435319E+00
   0.99000000E+00           0.54463600E+00
   0.10000000E+01           0.55441644E+00
   0.10100000E+01           0.55758785E+00
   0.10200000E+01           0.55954830E+00
   0.10300000E+01           0.56203541E+00
   0.10400000E+01           0.56402622E+00
   0.10500000E+01           0.56539319E+00
   0.10600000E+01           0.56704578E+00
   0.10700000E+01           0.56863630E+00
   0.10800000E+01           0.57098889E+00
   0.10900000E+01           0.57191630E+00
   0.11000000E+01           0.57326844E+00
   0.11100000E+01           0.57550563E+00
   0.11200000E+01           0.57648519E+00
   0.11300000E+01           0.57725244E+00
   0.11400000E+01           0.57857600E+00
   0.11500000E+01           0.58048889E+00
   0.11600000E+01           0.58146281E+00
   0.11700000E+01           0.58206207E+00
   0.11800000E+01           0.58343304E+00
   0.11900000E+01           0.58479230E+00
   0.12000000E+01           0.58526889E+00
   0.12100000E+01           0.58545674E+00
   0.12200000E+01           0.58691719E+00
   0.12300000E+01           0.58774919E+00
   0.12400000E+01           0.58846933E+00
   0.12500000E+01           0.58836830E+00
   0.12600000E+01           0.58990459E+00
   0.12700000E+01           0.58954830E+00
   0.12800000E+01           0.59008074E+00
   0.12900000E+01           0.59045081E+00
   0.13000000E+01           0.59023481E+00
   0.13100000E+01           0.59104444E+00
   0.13200000E+01           0.59120222E+00
   0.13300000E+01           0.59116252E+00
   0.13400000E+01           0.59097185E+00
   0.13500000E+01           0.59070222E+00
   0.13600000E+01           0.59132711E+00
   0.13700000E+01           0.59083704E+00
   0.13800000E+01           0.59093733E+00
   0.13900000E+01           0.58980385E+00
   0.14000000E+01           0.58991111E+00
   0.14100000E+01           0.58947378E+00
   0.14200000E+01           0.58898252E+00
   0.14300000E+01           0.58864044E+00
   0.14400000E+01           0.58818430E+00
   0.14500000E+01           0.58757837E+00
   0.14600000E+01           0.58627007E+00
   0.14700000E+01           0.58634148E+00
   0.14800000E+01           0.58480681E+00
   0.14900000E+01           0.58434000E+00
   0.15000000E+01           0.58309526E+00
   0.15100000E+01           0.58246059E+00
   0.15200000E+01           0.58042830E+00
   0.15300000E+01           0.57992252E+00
   0.15400000E+01           0.57895630E+00
   0.15500000E+01           0.57807007E+00
   0.15600000E+01           0.57655659E+00
   0.15700000E+01           0.57557274E+00
   0.15800000E+01           0.57413674E+00
   0.15900000E+01           0.57197644E+00
   0.16000000E+01           0.57062978E+00
   0.16100000E+01           0.56907467E+00
   0.16200000E+01           0.56756311E+00
   0.16300000E+01           0.56638607E+00
   0.16400000E+01           0.56455778E+00
   0.16500000E+01           0.56233185E+00
   0.16600000E+01           0.56053911E+00
   0.16700000E+01           0.55867585E+00
   0.16800000E+01           0.55706652E+00
   0.16900000E+01           0.55541141E+00
   0.17000000E+01           0.55371007E+00
   0.17100000E+01           0.55086207E+00
   0.17200000E+01           0.54880119E+00
   0.17300000E+01           0.54628741E+00
   0.17400000E+01           0.54370711E+00
   0.17500000E+01           0.54187704E+00
   0.17600000E+01           0.53998341E+00
   0.17700000E+01           0.53731926E+00
   0.17800000E+01           0.53523274E+00
   0.17900000E+01           0.53263822E+00
   0.18000000E+01           0.52970207E+00
   0.18100000E+01           0.52802178E+00
   0.18200000E+01           0.52459156E+00
   0.18300000E+01           0.52218044E+00
   0.18400000E+01           0.51969630E+00
   0.18500000E+01           0.51688607E+00
   0.18600000E+01           0.51446193E+00
   0.18700000E+01           0.51093185E+00
   0.18800000E+01           0.50833970E+00
   0.18900000E+01           0.50542074E+00
   0.19000000E+01           0.50191067E+00
   0.19100000E+01           0.49928178E+00
   0.19200000E+01           0.49627170E+00
   0.19300000E+01           0.49377363E+00
   0.19400000E+01           0.49055911E+00
   0.19500000E+01           0.48758119E+00
   0.19600000E+01           0.48399437E+00
   0.19700000E+01           0.48063170E+00
   0.19800000E+01           0.47732830E+00
   0.19900000E+01           0.47351407E+00
   0.20000000E+01           0.47101556E+00
   0.20100000E+01           0.46711600E+00
   0.20200000E+01           0.46350400E+00
   0.20300000E+01           0.46040548E+00
   0.20400000E+01           0.45682652E+00
   0.20500000E+01           0.45300222E+00
   0.20600000E+01           0.44962519E+00
   0.20700000E+01           0.44572474E+00
   0.20800000E+01           0.44231422E+00
   0.20900000E+01           0.43898978E+00
   0.21000000E+01           0.43480622E+00
   0.21100000E+01           0.43115733E+00
   0.21200000E+01           0.42753467E+00
   0.21300000E+01           0.42293807E+00
   0.21400000E+01           0.41943081E+00
   0.21500000E+01           0.41539956E+00
   0.21600000E+01           0.41183467E+00
   0.21700000E+01           0.40743185E+00
   0.21800000E+01           0.40344089E+00
   0.21900000E+01           0.39968459E+00
   0.22000000E+01           0.39550874E+00
   0.22100000E+01           0.39128281E+00
   0.22200000E+01           0.38702444E+00
   0.22300000E+01           0.38281111E+00
   0.22400000E+01           0.37835867E+00
   0.22500000E+01           0.37444415E+00
   0.22600000E+01           0.37018652E+00
   0.22700000E+01           0.36563822E+00
   0.22800000E+01           0.36171007E+00
   0.22900000E+01           0.35689067E+00
   0.23000000E+01           0.35283911E+00
   0.23100000E+01           0.34834741E+00
   0.23200000E+01           0.34417304E+00
   0.23300000E+01           0.33953289E+00
   0.23400000E+01           0.33515126E+00
   0.23500000E+01           0.32991274E+00
   0.23600000E+01           0.32575422E+00
   0.23700000E+01           0.32152504E+00
   0.23800000E+01           0.31607481E+00
   0.23900000E+01           0.31202341E+00
   0.24000000E+01           0.30717467E+00
   0.24100000E+01           0.30266163E+00
   0.24200000E+01           0.29779052E+00
   0.24300000E+01           0.29313185E+00
   0.24400000E+01           0.28829985E+00
   0.24500000E+01           0.28370341E+00
   0.24600000E+01           0.27923674E+00
   0.24700000E+01           0.27426148E+00
   0.24800000E+01           0.26935822E+00
   0.24900000E+01           0.26438859E+00
   0.25000000E+01           0.25975911E+00
   0.25100000E+01           0.25449259E+00
   0.25200000E+01           0.25001867E+00
   0.25300000E+01           0.24493570E+00
   0.25400000E+01           0.24010904E+00
   0.25500000E+01           0.23479615E+00
   0.25600000E+01           0.23028326E+00
   0.25700000E+01           0.22564119E+00
   0.25800000E+01           0.22007259E+00
   0.25900000E+01           0.21538104E+00
   0.26000000E+01           0.20983748E+00
   0.26100000E+01           0.20484815E+00
   0.26200000E+01           0.19984933E+00
   0.26300000E+01           0.19451333E+00
   0.26400000E+01           0.19007200E+00
   0.26500000E+01           0.18456430E+00
   0.26600000E+01           0.17950400E+00
   0.26700000E+01           0.17445215E+00
   0.26800000E+01           0.16897052E+00
   0.26900000E+01           0.16391126E+00
   0.27000000E+01           0.15895422E+00
   0.27100000E+01           0.15356859E+00
   0.27200000E+01           0.14842726E+00
   0.27300000E+01           0.14319067E+00
   0.27400000E+01           0.13804415E+00
   0.27500000E+01           0.13283141E+00
   0.27600000E+01           0.12742756E+00
   0.27700000E+01           0.12237393E+00
   0.27800000E+01           0.11714770E+00
   0.27900000E+01           0.11162400E+00
   0.28000000E+01           0.10654504E+00
   0.28100000E+01           0.10123230E+00
   0.28200000E+01           0.95767852E-01
   0.28300000E+01           0.90521037E-01
   0.28400000E+01           0.85495704E-01
   0.28500000E+01           0.80178370E-01
   0.28600000E+01           0.74817481E-01
   0.28700000E+01           0.69562963E-01
   0.28800000E+01           0.64049481E-01
   0.28900000E+01           0.58897037E-01
   0.29000000E+01           0.53528889E-01
   0.29100000E+01           0.48168444E-01
   0.29200000E+01           0.42796444E-01
   0.29300000E+01           0.37399407E-01
   0.29400000E+01           0.32093778E-01
   0.29500000E+01           0.26801037E-01
   0.29600000E+01           0.21389926E-01
   0.29700000E+01           0.16030815E-01
   0.29800000E+01           0.10667556E-01
   0.29900000E+01           0.53484444E-02
   0.30000000E+01           0.66266667E-03
