 #written on 28Nov2024 at 17:22:11 
 #----------------------------------------------- MONTECARLO ---------------------------------------------------#
 # Temp      Magnetization     Energy_ave          C_M              Sus              U_E              U_M       #
 #--------------------------------------------------------------------------------------------------------------#
   5.0000   0.94337283E-02  -0.85686293E+02   0.10210067E+01   0.66819599E-02   0.66666438E+00   0.43048966E+00
   6.0000   0.10340052E-01  -0.84661199E+02   0.10241993E+01   0.66342798E-02   0.66666328E+00   0.43395942E+00
   7.0000   0.11196212E-01  -0.83628556E+02   0.10373858E+01   0.66164062E-02   0.66666188E+00   0.43581664E+00
   8.0000   0.11985015E-01  -0.82589814E+02   0.10405529E+01   0.66488698E-02   0.66666024E+00   0.43517009E+00
   9.0000   0.12749141E-01  -0.81542813E+02   0.10401780E+01   0.66787689E-02   0.66665832E+00   0.43538516E+00
  10.0000   0.13482613E-01  -0.80487869E+02   0.10576590E+01   0.67203331E-02   0.66665592E+00   0.43544914E+00
  11.0000   0.14165239E-01  -0.79423608E+02   0.10670240E+01   0.67181563E-02   0.66665319E+00   0.43688776E+00
  12.0000   0.14837769E-01  -0.78351440E+02   0.10782887E+01   0.67432282E-02   0.66665002E+00   0.43803968E+00
  13.0000   0.15453266E-01  -0.77266252E+02   0.10899803E+01   0.67362510E-02   0.66664635E+00   0.43834009E+00
  14.0000   0.16050156E-01  -0.76171744E+02   0.11015704E+01   0.67424146E-02   0.66664217E+00   0.43857702E+00
  15.0000   0.16652703E-01  -0.75060853E+02   0.11132057E+01   0.67737448E-02   0.66663740E+00   0.43885458E+00
  16.0000   0.17253711E-01  -0.73941048E+02   0.11293975E+01   0.68495298E-02   0.66663186E+00   0.43800258E+00
  17.0000   0.17813826E-01  -0.72802328E+02   0.11435418E+01   0.68349883E-02   0.66662562E+00   0.43957866E+00
  18.0000   0.18390483E-01  -0.71648086E+02   0.11677496E+01   0.68846755E-02   0.66661816E+00   0.43872167E+00
  19.0000   0.18972509E-01  -0.70470689E+02   0.11883698E+01   0.69196663E-02   0.66660981E+00   0.44049776E+00
  20.0000   0.19537398E-01  -0.69270844E+02   0.12143879E+01   0.69385030E-02   0.66660004E+00   0.44168410E+00
  21.0000   0.20084882E-01  -0.68038267E+02   0.12559648E+01   0.69883584E-02   0.66658792E+00   0.44129870E+00
  22.0000   0.20667265E-01  -0.66763581E+02   0.12967177E+01   0.70691920E-02   0.66657401E+00   0.44145449E+00
  23.0000   0.21217337E-01  -0.65442344E+02   0.13536233E+01   0.71106976E-02   0.66655665E+00   0.44186623E+00
  24.0000   0.21871987E-01  -0.64052205E+02   0.14337779E+01   0.72509260E-02   0.66653424E+00   0.44150845E+00
  25.0000   0.22497156E-01  -0.62567230E+02   0.15302185E+01   0.73330029E-02   0.66650593E+00   0.44319569E+00
  26.0000   0.23178857E-01  -0.60994313E+02   0.16076675E+01   0.75026663E-02   0.66647448E+00   0.44220487E+00
  27.0000   0.23873398E-01  -0.59352190E+02   0.16567667E+01   0.76535237E-02   0.66644108E+00   0.44269047E+00
  28.0000   0.24545202E-01  -0.57686236E+02   0.16713514E+01   0.77862224E-02   0.66640763E+00   0.44325005E+00
  29.0000   0.25165819E-01  -0.56031344E+02   0.16478137E+01   0.78875695E-02   0.66637624E+00   0.44371997E+00
  30.0000   0.25755033E-01  -0.54398039E+02   0.16184630E+01   0.79948369E-02   0.66634282E+00   0.44353349E+00
  31.0000   0.26300932E-01  -0.52795862E+02   0.15737494E+01   0.80477743E-02   0.66630967E+00   0.44452283E+00
  32.0000   0.26781466E-01  -0.51244956E+02   0.15244623E+01   0.80991828E-02   0.66627553E+00   0.44339598E+00
  33.0000   0.27163635E-01  -0.49754475E+02   0.14652711E+01   0.80757758E-02   0.66624250E+00   0.44431656E+00
  34.0000   0.27549967E-01  -0.48327396E+02   0.13971998E+01   0.80398414E-02   0.66621162E+00   0.44454803E+00
  35.0000   0.27819127E-01  -0.46968656E+02   0.13260648E+01   0.79732609E-02   0.66618213E+00   0.44470646E+00
  36.0000   0.28112602E-01  -0.45681980E+02   0.12615152E+01   0.79288214E-02   0.66615120E+00   0.44403040E+00
  37.0000   0.28303112E-01  -0.44452087E+02   0.11960038E+01   0.78128586E-02   0.66612146E+00   0.44449421E+00
  38.0000   0.28445097E-01  -0.43286783E+02   0.11335546E+01   0.76906168E-02   0.66609191E+00   0.44415867E+00
  39.0000   0.28541858E-01  -0.42181648E+02   0.10779575E+01   0.75261837E-02   0.66606038E+00   0.44462094E+00
  40.0000   0.28631284E-01  -0.41128442E+02   0.10280459E+01   0.73834435E-02   0.66602690E+00   0.44496078E+00
  41.0000   0.28738152E-01  -0.40128855E+02   0.98168160E+00   0.72574708E-02   0.66599246E+00   0.44465460E+00
  42.0000   0.28787970E-01  -0.39167629E+02   0.93691107E+00   0.71179926E-02   0.66595790E+00   0.44422720E+00
  43.0000   0.28766373E-01  -0.38252147E+02   0.89433749E+00   0.69369558E-02   0.66592333E+00   0.44450982E+00
  44.0000   0.28767008E-01  -0.37377984E+02   0.85642676E+00   0.67725207E-02   0.66588594E+00   0.44485144E+00
  45.0000   0.28764167E-01  -0.36538505E+02   0.81972853E+00   0.66334657E-02   0.66584882E+00   0.44404819E+00
  46.0000   0.28742570E-01  -0.35732226E+02   0.78732118E+00   0.64648119E-02   0.66580851E+00   0.44466778E+00
  47.0000   0.28701820E-01  -0.34963910E+02   0.75516243E+00   0.63268360E-02   0.66576914E+00   0.44426131E+00
  48.0000   0.28669388E-01  -0.34222780E+02   0.72599349E+00   0.61805882E-02   0.66572735E+00   0.44457354E+00
  49.0000   0.28613939E-01  -0.33511871E+02   0.69775588E+00   0.60207741E-02   0.66568561E+00   0.44471807E+00
  50.0000   0.28576369E-01  -0.32829258E+02   0.67107137E+00   0.58742075E-02   0.66564299E+00   0.44492455E+00
  51.0000   0.28498185E-01  -0.32167314E+02   0.64693730E+00   0.57272882E-02   0.66559722E+00   0.44523243E+00
  52.0000   0.28437267E-01  -0.31532412E+02   0.62323054E+00   0.55982620E-02   0.66555228E+00   0.44498232E+00
  53.0000   0.28341457E-01  -0.30922299E+02   0.60087735E+00   0.54650048E-02   0.66550607E+00   0.44449464E+00
  54.0000   0.28306541E-01  -0.30327976E+02   0.58014462E+00   0.53523363E-02   0.66545737E+00   0.44473154E+00
  55.0000   0.28214564E-01  -0.29761135E+02   0.55930231E+00   0.52120347E-02   0.66541076E+00   0.44519876E+00
  56.0000   0.28136931E-01  -0.29207527E+02   0.54152637E+00   0.50889811E-02   0.66535777E+00   0.44518044E+00
  57.0000   0.28054654E-01  -0.28677592E+02   0.52282384E+00   0.49732627E-02   0.66530886E+00   0.44484917E+00
  58.0000   0.27996696E-01  -0.28163684E+02   0.50547819E+00   0.48622159E-02   0.66525748E+00   0.44495587E+00
  59.0000   0.27882302E-01  -0.27665361E+02   0.48926508E+00   0.47511329E-02   0.66520393E+00   0.44460129E+00
  60.0000   0.27812791E-01  -0.27184424E+02   0.47363666E+00   0.46476574E-02   0.66515020E+00   0.44464894E+00
  61.0000   0.27753512E-01  -0.26720114E+02   0.45767719E+00   0.45446498E-02   0.66509905E+00   0.44478234E+00
  62.0000   0.27638814E-01  -0.26269504E+02   0.44421981E+00   0.44462523E-02   0.66504050E+00   0.44421646E+00
  63.0000   0.27587212E-01  -0.25830024E+02   0.42969320E+00   0.43553613E-02   0.66498695E+00   0.44488622E+00
  64.0000   0.27518390E-01  -0.25407362E+02   0.41686745E+00   0.42670723E-02   0.66492831E+00   0.44497690E+00
