 #written on  6Sep2024 at 22:45:49 
 #----------------- MONTECARLO -------------------#
 #        M                      P(M)             #
 #------------------------------------------------#
 #T=   410.0000
  -0.40000000E+01           0.00000000E+00
  -0.39900000E+01           0.00000000E+00
  -0.39800000E+01           0.00000000E+00
  -0.39700000E+01           0.00000000E+00
  -0.39600000E+01           0.00000000E+00
  -0.39500000E+01           0.00000000E+00
  -0.39400000E+01           0.00000000E+00
  -0.39300000E+01           0.00000000E+00
  -0.39200000E+01           0.00000000E+00
  -0.39100000E+01           0.00000000E+00
  -0.39000000E+01           0.00000000E+00
  -0.38900000E+01           0.00000000E+00
  -0.38800000E+01           0.00000000E+00
  -0.38700000E+01           0.00000000E+00
  -0.38600000E+01           0.00000000E+00
  -0.38500000E+01           0.00000000E+00
  -0.38400000E+01           0.00000000E+00
  -0.38300000E+01           0.00000000E+00
  -0.38200000E+01           0.00000000E+00
  -0.38100000E+01           0.00000000E+00
  -0.38000000E+01           0.00000000E+00
  -0.37900000E+01           0.00000000E+00
  -0.37800000E+01           0.00000000E+00
  -0.37700000E+01           0.00000000E+00
  -0.37600000E+01           0.00000000E+00
  -0.37500000E+01           0.00000000E+00
  -0.37400000E+01           0.00000000E+00
  -0.37300000E+01           0.00000000E+00
  -0.37200000E+01           0.00000000E+00
  -0.37100000E+01           0.00000000E+00
  -0.37000000E+01           0.00000000E+00
  -0.36900000E+01           0.00000000E+00
  -0.36800000E+01           0.00000000E+00
  -0.36700000E+01           0.00000000E+00
  -0.36600000E+01           0.00000000E+00
  -0.36500000E+01           0.00000000E+00
  -0.36400000E+01           0.00000000E+00
  -0.36300000E+01           0.00000000E+00
  -0.36200000E+01           0.00000000E+00
  -0.36100000E+01           0.00000000E+00
  -0.36000000E+01           0.00000000E+00
  -0.35900000E+01           0.00000000E+00
  -0.35800000E+01           0.00000000E+00
  -0.35700000E+01           0.00000000E+00
  -0.35600000E+01           0.00000000E+00
  -0.35500000E+01           0.00000000E+00
  -0.35400000E+01           0.00000000E+00
  -0.35300000E+01           0.00000000E+00
  -0.35200000E+01           0.00000000E+00
  -0.35100000E+01           0.00000000E+00
  -0.35000000E+01           0.00000000E+00
  -0.34900000E+01           0.00000000E+00
  -0.34800000E+01           0.00000000E+00
  -0.34700000E+01           0.00000000E+00
  -0.34600000E+01           0.00000000E+00
  -0.34500000E+01           0.00000000E+00
  -0.34400000E+01           0.00000000E+00
  -0.34300000E+01           0.00000000E+00
  -0.34200000E+01           0.00000000E+00
  -0.34100000E+01           0.00000000E+00
  -0.34000000E+01           0.00000000E+00
  -0.33900000E+01           0.00000000E+00
  -0.33800000E+01           0.00000000E+00
  -0.33700000E+01           0.00000000E+00
  -0.33600000E+01           0.00000000E+00
  -0.33500000E+01           0.00000000E+00
  -0.33400000E+01           0.00000000E+00
  -0.33300000E+01           0.00000000E+00
  -0.33200000E+01           0.00000000E+00
  -0.33100000E+01           0.00000000E+00
  -0.33000000E+01           0.00000000E+00
  -0.32900000E+01           0.00000000E+00
  -0.32800000E+01           0.00000000E+00
  -0.32700000E+01           0.00000000E+00
  -0.32600000E+01           0.00000000E+00
  -0.32500000E+01           0.00000000E+00
  -0.32400000E+01           0.00000000E+00
  -0.32300000E+01           0.00000000E+00
  -0.32200000E+01           0.00000000E+00
  -0.32100000E+01           0.00000000E+00
  -0.32000000E+01           0.00000000E+00
  -0.31900000E+01           0.00000000E+00
  -0.31800000E+01           0.00000000E+00
  -0.31700000E+01           0.00000000E+00
  -0.31600000E+01           0.00000000E+00
  -0.31500000E+01           0.00000000E+00
  -0.31400000E+01           0.00000000E+00
  -0.31300000E+01           0.00000000E+00
  -0.31200000E+01           0.00000000E+00
  -0.31100000E+01           0.00000000E+00
  -0.31000000E+01           0.00000000E+00
  -0.30900000E+01           0.00000000E+00
  -0.30800000E+01           0.00000000E+00
  -0.30700000E+01           0.00000000E+00
  -0.30600000E+01           0.00000000E+00
  -0.30500000E+01           0.00000000E+00
  -0.30400000E+01           0.00000000E+00
  -0.30300000E+01           0.00000000E+00
  -0.30200000E+01           0.00000000E+00
  -0.30100000E+01           0.00000000E+00
  -0.30000000E+01           0.00000000E+00
  -0.29900000E+01           0.00000000E+00
  -0.29800000E+01           0.00000000E+00
  -0.29700000E+01           0.00000000E+00
  -0.29600000E+01           0.00000000E+00
  -0.29500000E+01           0.00000000E+00
  -0.29400000E+01           0.00000000E+00
  -0.29300000E+01           0.00000000E+00
  -0.29200000E+01           0.00000000E+00
  -0.29100000E+01           0.00000000E+00
  -0.29000000E+01           0.00000000E+00
  -0.28900000E+01           0.00000000E+00
  -0.28800000E+01           0.00000000E+00
  -0.28700000E+01           0.00000000E+00
  -0.28600000E+01           0.00000000E+00
  -0.28500000E+01           0.00000000E+00
  -0.28400000E+01           0.00000000E+00
  -0.28300000E+01           0.00000000E+00
  -0.28200000E+01           0.00000000E+00
  -0.28100000E+01           0.00000000E+00
  -0.28000000E+01           0.00000000E+00
  -0.27900000E+01           0.00000000E+00
  -0.27800000E+01           0.00000000E+00
  -0.27700000E+01           0.00000000E+00
  -0.27600000E+01           0.00000000E+00
  -0.27500000E+01           0.00000000E+00
  -0.27400000E+01           0.00000000E+00
  -0.27300000E+01           0.00000000E+00
  -0.27200000E+01           0.00000000E+00
  -0.27100000E+01           0.00000000E+00
  -0.27000000E+01           0.00000000E+00
  -0.26900000E+01           0.00000000E+00
  -0.26800000E+01           0.00000000E+00
  -0.26700000E+01           0.00000000E+00
  -0.26600000E+01           0.00000000E+00
  -0.26500000E+01           0.00000000E+00
  -0.26400000E+01           0.00000000E+00
  -0.26300000E+01           0.00000000E+00
  -0.26200000E+01           0.00000000E+00
  -0.26100000E+01           0.00000000E+00
  -0.26000000E+01           0.00000000E+00
  -0.25900000E+01           0.00000000E+00
  -0.25800000E+01           0.00000000E+00
  -0.25700000E+01           0.00000000E+00
  -0.25600000E+01           0.00000000E+00
  -0.25500000E+01           0.00000000E+00
  -0.25400000E+01           0.00000000E+00
  -0.25300000E+01           0.00000000E+00
  -0.25200000E+01           0.00000000E+00
  -0.25100000E+01           0.00000000E+00
  -0.25000000E+01           0.00000000E+00
  -0.24900000E+01           0.00000000E+00
  -0.24800000E+01           0.00000000E+00
  -0.24700000E+01           0.00000000E+00
  -0.24600000E+01           0.00000000E+00
  -0.24500000E+01           0.00000000E+00
  -0.24400000E+01           0.00000000E+00
  -0.24300000E+01           0.00000000E+00
  -0.24200000E+01           0.00000000E+00
  -0.24100000E+01           0.00000000E+00
  -0.24000000E+01           0.00000000E+00
  -0.23900000E+01           0.00000000E+00
  -0.23800000E+01           0.00000000E+00
  -0.23700000E+01           0.00000000E+00
  -0.23600000E+01           0.00000000E+00
  -0.23500000E+01           0.00000000E+00
  -0.23400000E+01           0.00000000E+00
  -0.23300000E+01           0.00000000E+00
  -0.23200000E+01           0.00000000E+00
  -0.23100000E+01           0.00000000E+00
  -0.23000000E+01           0.00000000E+00
  -0.22900000E+01           0.00000000E+00
  -0.22800000E+01           0.00000000E+00
  -0.22700000E+01           0.00000000E+00
  -0.22600000E+01           0.00000000E+00
  -0.22500000E+01           0.00000000E+00
  -0.22400000E+01           0.00000000E+00
  -0.22300000E+01           0.00000000E+00
  -0.22200000E+01           0.00000000E+00
  -0.22100000E+01           0.00000000E+00
  -0.22000000E+01           0.00000000E+00
  -0.21900000E+01           0.00000000E+00
  -0.21800000E+01           0.00000000E+00
  -0.21700000E+01           0.00000000E+00
  -0.21600000E+01           0.00000000E+00
  -0.21500000E+01           0.00000000E+00
  -0.21400000E+01           0.00000000E+00
  -0.21300000E+01           0.00000000E+00
  -0.21200000E+01           0.00000000E+00
  -0.21100000E+01           0.00000000E+00
  -0.21000000E+01           0.00000000E+00
  -0.20900000E+01           0.00000000E+00
  -0.20800000E+01           0.00000000E+00
  -0.20700000E+01           0.00000000E+00
  -0.20600000E+01           0.00000000E+00
  -0.20500000E+01           0.00000000E+00
  -0.20400000E+01           0.00000000E+00
  -0.20300000E+01           0.00000000E+00
  -0.20200000E+01           0.00000000E+00
  -0.20100000E+01           0.00000000E+00
  -0.20000000E+01           0.00000000E+00
  -0.19900000E+01           0.00000000E+00
  -0.19800000E+01           0.00000000E+00
  -0.19700000E+01           0.00000000E+00
  -0.19600000E+01           0.00000000E+00
  -0.19500000E+01           0.00000000E+00
  -0.19400000E+01           0.00000000E+00
  -0.19300000E+01           0.00000000E+00
  -0.19200000E+01           0.00000000E+00
  -0.19100000E+01           0.00000000E+00
  -0.19000000E+01           0.00000000E+00
  -0.18900000E+01           0.00000000E+00
  -0.18800000E+01           0.00000000E+00
  -0.18700000E+01           0.00000000E+00
  -0.18600000E+01           0.00000000E+00
  -0.18500000E+01           0.00000000E+00
  -0.18400000E+01           0.00000000E+00
  -0.18300000E+01           0.00000000E+00
  -0.18200000E+01           0.00000000E+00
  -0.18100000E+01           0.00000000E+00
  -0.18000000E+01           0.00000000E+00
  -0.17900000E+01           0.00000000E+00
  -0.17800000E+01           0.00000000E+00
  -0.17700000E+01           0.00000000E+00
  -0.17600000E+01           0.00000000E+00
  -0.17500000E+01           0.00000000E+00
  -0.17400000E+01           0.00000000E+00
  -0.17300000E+01           0.00000000E+00
  -0.17200000E+01           0.00000000E+00
  -0.17100000E+01           0.00000000E+00
  -0.17000000E+01           0.00000000E+00
  -0.16900000E+01           0.00000000E+00
  -0.16800000E+01           0.00000000E+00
  -0.16700000E+01           0.00000000E+00
  -0.16600000E+01           0.00000000E+00
  -0.16500000E+01           0.00000000E+00
  -0.16400000E+01           0.00000000E+00
  -0.16300000E+01           0.00000000E+00
  -0.16200000E+01           0.00000000E+00
  -0.16100000E+01           0.00000000E+00
  -0.16000000E+01           0.00000000E+00
  -0.15900000E+01           0.00000000E+00
  -0.15800000E+01           0.00000000E+00
  -0.15700000E+01           0.00000000E+00
  -0.15600000E+01           0.00000000E+00
  -0.15500000E+01           0.00000000E+00
  -0.15400000E+01           0.00000000E+00
  -0.15300000E+01           0.00000000E+00
  -0.15200000E+01           0.00000000E+00
  -0.15100000E+01           0.00000000E+00
  -0.15000000E+01           0.00000000E+00
  -0.14900000E+01           0.00000000E+00
  -0.14800000E+01           0.00000000E+00
  -0.14700000E+01           0.00000000E+00
  -0.14600000E+01           0.00000000E+00
  -0.14500000E+01           0.00000000E+00
  -0.14400000E+01           0.00000000E+00
  -0.14300000E+01           0.00000000E+00
  -0.14200000E+01           0.00000000E+00
  -0.14100000E+01           0.00000000E+00
  -0.14000000E+01           0.00000000E+00
  -0.13900000E+01           0.00000000E+00
  -0.13800000E+01           0.00000000E+00
  -0.13700000E+01           0.00000000E+00
  -0.13600000E+01           0.00000000E+00
  -0.13500000E+01           0.00000000E+00
  -0.13400000E+01           0.00000000E+00
  -0.13300000E+01           0.00000000E+00
  -0.13200000E+01           0.00000000E+00
  -0.13100000E+01           0.00000000E+00
  -0.13000000E+01           0.00000000E+00
  -0.12900000E+01           0.00000000E+00
  -0.12800000E+01           0.00000000E+00
  -0.12700000E+01           0.00000000E+00
  -0.12600000E+01           0.00000000E+00
  -0.12500000E+01           0.00000000E+00
  -0.12400000E+01           0.00000000E+00
  -0.12300000E+01           0.00000000E+00
  -0.12200000E+01           0.00000000E+00
  -0.12100000E+01           0.00000000E+00
  -0.12000000E+01           0.00000000E+00
  -0.11900000E+01           0.00000000E+00
  -0.11800000E+01           0.00000000E+00
  -0.11700000E+01           0.00000000E+00
  -0.11600000E+01           0.00000000E+00
  -0.11500000E+01           0.00000000E+00
  -0.11400000E+01           0.00000000E+00
  -0.11300000E+01           0.00000000E+00
  -0.11200000E+01           0.00000000E+00
  -0.11100000E+01           0.00000000E+00
  -0.11000000E+01           0.00000000E+00
  -0.10900000E+01           0.00000000E+00
  -0.10800000E+01           0.00000000E+00
  -0.10700000E+01           0.00000000E+00
  -0.10600000E+01           0.00000000E+00
  -0.10500000E+01           0.00000000E+00
  -0.10400000E+01           0.00000000E+00
  -0.10300000E+01           0.00000000E+00
  -0.10200000E+01           0.00000000E+00
  -0.10100000E+01           0.00000000E+00
  -0.10000000E+01           0.00000000E+00
  -0.99000000E+00           0.00000000E+00
  -0.98000000E+00           0.00000000E+00
  -0.97000000E+00           0.00000000E+00
  -0.96000000E+00           0.00000000E+00
  -0.95000000E+00           0.00000000E+00
  -0.94000000E+00           0.00000000E+00
  -0.93000000E+00           0.00000000E+00
  -0.92000000E+00           0.00000000E+00
  -0.91000000E+00           0.00000000E+00
  -0.90000000E+00           0.00000000E+00
  -0.89000000E+00           0.00000000E+00
  -0.88000000E+00           0.00000000E+00
  -0.87000000E+00           0.00000000E+00
  -0.86000000E+00           0.00000000E+00
  -0.85000000E+00           0.00000000E+00
  -0.84000000E+00           0.00000000E+00
  -0.83000000E+00           0.00000000E+00
  -0.82000000E+00           0.00000000E+00
  -0.81000000E+00           0.00000000E+00
  -0.80000000E+00           0.00000000E+00
  -0.79000000E+00           0.00000000E+00
  -0.78000000E+00           0.00000000E+00
  -0.77000000E+00           0.00000000E+00
  -0.76000000E+00           0.00000000E+00
  -0.75000000E+00           0.00000000E+00
  -0.74000000E+00           0.00000000E+00
  -0.73000000E+00           0.00000000E+00
  -0.72000000E+00           0.00000000E+00
  -0.71000000E+00           0.00000000E+00
  -0.70000000E+00           0.00000000E+00
  -0.69000000E+00           0.00000000E+00
  -0.68000000E+00           0.00000000E+00
  -0.67000000E+00           0.00000000E+00
  -0.66000000E+00           0.00000000E+00
  -0.65000000E+00           0.00000000E+00
  -0.64000000E+00           0.00000000E+00
  -0.63000000E+00           0.00000000E+00
  -0.62000000E+00           0.00000000E+00
  -0.61000000E+00           0.00000000E+00
  -0.60000000E+00           0.00000000E+00
  -0.59000000E+00           0.00000000E+00
  -0.58000000E+00           0.00000000E+00
  -0.57000000E+00           0.00000000E+00
  -0.56000000E+00           0.00000000E+00
  -0.55000000E+00           0.00000000E+00
  -0.54000000E+00           0.00000000E+00
  -0.53000000E+00           0.00000000E+00
  -0.52000000E+00           0.00000000E+00
  -0.51000000E+00           0.00000000E+00
  -0.50000000E+00           0.00000000E+00
  -0.49000000E+00           0.00000000E+00
  -0.48000000E+00           0.00000000E+00
  -0.47000000E+00           0.00000000E+00
  -0.46000000E+00           0.00000000E+00
  -0.45000000E+00           0.00000000E+00
  -0.44000000E+00           0.00000000E+00
  -0.43000000E+00           0.00000000E+00
  -0.42000000E+00           0.00000000E+00
  -0.41000000E+00           0.00000000E+00
  -0.40000000E+00           0.00000000E+00
  -0.39000000E+00           0.00000000E+00
  -0.38000000E+00           0.00000000E+00
  -0.37000000E+00           0.00000000E+00
  -0.36000000E+00           0.00000000E+00
  -0.35000000E+00           0.00000000E+00
  -0.34000000E+00           0.00000000E+00
  -0.33000000E+00           0.00000000E+00
  -0.32000000E+00           0.00000000E+00
  -0.31000000E+00           0.00000000E+00
  -0.30000000E+00           0.00000000E+00
  -0.29000000E+00           0.00000000E+00
  -0.28000000E+00           0.00000000E+00
  -0.27000000E+00           0.00000000E+00
  -0.26000000E+00           0.00000000E+00
  -0.25000000E+00           0.00000000E+00
  -0.24000000E+00           0.00000000E+00
  -0.23000000E+00           0.00000000E+00
  -0.22000000E+00           0.00000000E+00
  -0.21000000E+00           0.00000000E+00
  -0.20000000E+00           0.00000000E+00
  -0.19000000E+00           0.00000000E+00
  -0.18000000E+00           0.00000000E+00
  -0.17000000E+00           0.00000000E+00
  -0.16000000E+00           0.00000000E+00
  -0.15000000E+00           0.00000000E+00
  -0.14000000E+00           0.00000000E+00
  -0.13000000E+00           0.00000000E+00
  -0.12000000E+00           0.00000000E+00
  -0.11000000E+00           0.00000000E+00
  -0.10000000E+00           0.00000000E+00
  -0.90000000E-01           0.00000000E+00
  -0.80000000E-01           0.00000000E+00
  -0.70000000E-01           0.00000000E+00
  -0.60000000E-01           0.00000000E+00
  -0.50000000E-01           0.00000000E+00
  -0.40000000E-01           0.00000000E+00
  -0.30000000E-01           0.00000000E+00
  -0.20000000E-01           0.00000000E+00
  -0.10000000E-01           0.00000000E+00
   0.00000000E+00           0.13403880E-04
   0.10000000E-01           0.35326279E-03
   0.20000000E-01           0.13056437E-02
   0.30000000E-01           0.28594356E-02
   0.40000000E-01           0.49948854E-02
   0.50000000E-01           0.76751323E-02
   0.60000000E-01           0.10941975E-01
   0.70000000E-01           0.14602646E-01
   0.80000000E-01           0.18896649E-01
   0.90000000E-01           0.23550441E-01
   0.10000000E+00           0.28695591E-01
   0.11000000E+00           0.34285362E-01
   0.12000000E+00           0.40368959E-01
   0.13000000E+00           0.46806173E-01
   0.14000000E+00           0.53440035E-01
   0.15000000E+00           0.60573545E-01
   0.16000000E+00           0.68142328E-01
   0.17000000E+00           0.75860141E-01
   0.18000000E+00           0.83959612E-01
   0.19000000E+00           0.92256437E-01
   0.20000000E+00           0.10058748E+00
   0.21000000E+00           0.10937372E+00
   0.22000000E+00           0.11850441E+00
   0.23000000E+00           0.12788959E+00
   0.24000000E+00           0.13755608E+00
   0.25000000E+00           0.14726896E+00
   0.26000000E+00           0.15697284E+00
   0.27000000E+00           0.16693333E+00
   0.28000000E+00           0.17738924E+00
   0.29000000E+00           0.18728148E+00
   0.30000000E+00           0.19800547E+00
   0.31000000E+00           0.20810476E+00
   0.32000000E+00           0.21875220E+00
   0.33000000E+00           0.22938713E+00
   0.34000000E+00           0.24029242E+00
   0.35000000E+00           0.25065326E+00
   0.36000000E+00           0.26138889E+00
   0.37000000E+00           0.27290847E+00
   0.38000000E+00           0.28318854E+00
   0.39000000E+00           0.29416984E+00
   0.40000000E+00           0.30525926E+00
   0.41000000E+00           0.31612734E+00
   0.42000000E+00           0.32722646E+00
   0.43000000E+00           0.33800564E+00
   0.44000000E+00           0.34853034E+00
   0.45000000E+00           0.35948536E+00
   0.46000000E+00           0.37000811E+00
   0.47000000E+00           0.38098942E+00
   0.48000000E+00           0.39136808E+00
   0.49000000E+00           0.40167496E+00
   0.50000000E+00           0.41207090E+00
   0.51000000E+00           0.42217390E+00
   0.52000000E+00           0.43253898E+00
   0.53000000E+00           0.44220705E+00
   0.54000000E+00           0.45257178E+00
   0.55000000E+00           0.46262434E+00
   0.56000000E+00           0.47227443E+00
   0.57000000E+00           0.48140794E+00
   0.58000000E+00           0.49087831E+00
   0.59000000E+00           0.50034215E+00
   0.60000000E+00           0.50967284E+00
   0.61000000E+00           0.51874462E+00
   0.62000000E+00           0.52732787E+00
   0.63000000E+00           0.53585591E+00
   0.64000000E+00           0.54425062E+00
   0.65000000E+00           0.55260476E+00
   0.66000000E+00           0.56069982E+00
   0.67000000E+00           0.56893192E+00
   0.68000000E+00           0.57616190E+00
   0.69000000E+00           0.58372381E+00
   0.70000000E+00           0.59157143E+00
   0.71000000E+00           0.59817972E+00
   0.72000000E+00           0.60545661E+00
   0.73000000E+00           0.61168289E+00
   0.74000000E+00           0.61856332E+00
   0.75000000E+00           0.62490494E+00
   0.76000000E+00           0.63111376E+00
   0.77000000E+00           0.63673915E+00
   0.78000000E+00           0.64244991E+00
   0.79000000E+00           0.64832451E+00
   0.80000000E+00           0.65416861E+00
   0.81000000E+00           0.65899259E+00
   0.82000000E+00           0.66310794E+00
   0.83000000E+00           0.66840529E+00
   0.84000000E+00           0.67256825E+00
   0.85000000E+00           0.67598801E+00
   0.86000000E+00           0.68063915E+00
   0.87000000E+00           0.68395291E+00
   0.88000000E+00           0.68825150E+00
   0.89000000E+00           0.69084109E+00
   0.90000000E+00           0.69481623E+00
   0.91000000E+00           0.69708607E+00
   0.92000000E+00           0.69934497E+00
   0.93000000E+00           0.70187460E+00
   0.94000000E+00           0.70475414E+00
   0.95000000E+00           0.70701764E+00
   0.96000000E+00           0.70798201E+00
   0.97000000E+00           0.70979982E+00
   0.98000000E+00           0.71122328E+00
   0.99000000E+00           0.71224180E+00
   0.10000000E+01           0.71376614E+00
   0.10100000E+01           0.71433792E+00
   0.10200000E+01           0.71468730E+00
   0.10300000E+01           0.71546631E+00
   0.10400000E+01           0.71544550E+00
   0.10500000E+01           0.71558519E+00
   0.10600000E+01           0.71477072E+00
   0.10700000E+01           0.71435926E+00
   0.10800000E+01           0.71331217E+00
   0.10900000E+01           0.71331446E+00
   0.11000000E+01           0.71218907E+00
   0.11100000E+01           0.71064938E+00
   0.11200000E+01           0.70961905E+00
   0.11300000E+01           0.70785556E+00
   0.11400000E+01           0.70606243E+00
   0.11500000E+01           0.70415626E+00
   0.11600000E+01           0.70164145E+00
   0.11700000E+01           0.69929506E+00
   0.11800000E+01           0.69701235E+00
   0.11900000E+01           0.69422540E+00
   0.12000000E+01           0.69173210E+00
   0.12100000E+01           0.68898730E+00
   0.12200000E+01           0.68609083E+00
   0.12300000E+01           0.68264515E+00
   0.12400000E+01           0.67872857E+00
   0.12500000E+01           0.67540088E+00
   0.12600000E+01           0.67196138E+00
   0.12700000E+01           0.66800952E+00
   0.12800000E+01           0.66480582E+00
   0.12900000E+01           0.65993580E+00
   0.13000000E+01           0.65616790E+00
   0.13100000E+01           0.65173333E+00
   0.13200000E+01           0.64726631E+00
   0.13300000E+01           0.64268430E+00
   0.13400000E+01           0.63875062E+00
   0.13500000E+01           0.63351358E+00
   0.13600000E+01           0.62861164E+00
   0.13700000E+01           0.62343051E+00
   0.13800000E+01           0.61855256E+00
   0.13900000E+01           0.61366473E+00
   0.14000000E+01           0.60813175E+00
   0.14100000E+01           0.60314427E+00
   0.14200000E+01           0.59763351E+00
   0.14300000E+01           0.59171182E+00
   0.14400000E+01           0.58612963E+00
   0.14500000E+01           0.58108959E+00
   0.14600000E+01           0.57514427E+00
   0.14700000E+01           0.56921958E+00
   0.14800000E+01           0.56356543E+00
   0.14900000E+01           0.55675079E+00
   0.15000000E+01           0.55167954E+00
   0.15100000E+01           0.54535256E+00
   0.15200000E+01           0.53891358E+00
   0.15300000E+01           0.53269436E+00
   0.15400000E+01           0.52772610E+00
   0.15500000E+01           0.52029259E+00
   0.15600000E+01           0.51486014E+00
   0.15700000E+01           0.50841199E+00
   0.15800000E+01           0.50209824E+00
   0.15900000E+01           0.49588307E+00
   0.16000000E+01           0.48970688E+00
   0.16100000E+01           0.48314303E+00
   0.16200000E+01           0.47685044E+00
   0.16300000E+01           0.47039101E+00
   0.16400000E+01           0.46312945E+00
   0.16500000E+01           0.45717919E+00
   0.16600000E+01           0.45061129E+00
   0.16700000E+01           0.44405767E+00
   0.16800000E+01           0.43824409E+00
   0.16900000E+01           0.43135591E+00
   0.17000000E+01           0.42520088E+00
   0.17100000E+01           0.41889718E+00
   0.17200000E+01           0.41182945E+00
   0.17300000E+01           0.40549471E+00
   0.17400000E+01           0.39996808E+00
   0.17500000E+01           0.39312716E+00
   0.17600000E+01           0.38664621E+00
   0.17700000E+01           0.38068183E+00
   0.17800000E+01           0.37408818E+00
   0.17900000E+01           0.36802681E+00
   0.18000000E+01           0.36110317E+00
   0.18100000E+01           0.35495009E+00
   0.18200000E+01           0.34918095E+00
   0.18300000E+01           0.34277160E+00
   0.18400000E+01           0.33652063E+00
   0.18500000E+01           0.33042963E+00
   0.18600000E+01           0.32421693E+00
   0.18700000E+01           0.31803439E+00
   0.18800000E+01           0.31217937E+00
   0.18900000E+01           0.30665432E+00
   0.19000000E+01           0.30079347E+00
   0.19100000E+01           0.29460564E+00
   0.19200000E+01           0.28856861E+00
   0.19300000E+01           0.28297460E+00
   0.19400000E+01           0.27678871E+00
   0.19500000E+01           0.27145926E+00
   0.19600000E+01           0.26568166E+00
   0.19700000E+01           0.26000564E+00
   0.19800000E+01           0.25466861E+00
   0.19900000E+01           0.24907090E+00
   0.20000000E+01           0.24344991E+00
   0.20100000E+01           0.23843369E+00
   0.20200000E+01           0.23321922E+00
   0.20300000E+01           0.22734268E+00
   0.20400000E+01           0.22254586E+00
   0.20500000E+01           0.21760212E+00
   0.20600000E+01           0.21211005E+00
   0.20700000E+01           0.20796085E+00
   0.20800000E+01           0.20266984E+00
   0.20900000E+01           0.19793986E+00
   0.21000000E+01           0.19325009E+00
   0.21100000E+01           0.18864215E+00
   0.21200000E+01           0.18462487E+00
   0.21300000E+01           0.17973827E+00
   0.21400000E+01           0.17552257E+00
   0.21500000E+01           0.17109365E+00
   0.21600000E+01           0.16696667E+00
   0.21700000E+01           0.16252363E+00
   0.21800000E+01           0.15868554E+00
   0.21900000E+01           0.15477178E+00
   0.22000000E+01           0.15075238E+00
   0.22100000E+01           0.14707954E+00
   0.22200000E+01           0.14343386E+00
   0.22300000E+01           0.13955820E+00
   0.22400000E+01           0.13583157E+00
   0.22500000E+01           0.13245485E+00
   0.22600000E+01           0.12886155E+00
   0.22700000E+01           0.12539083E+00
   0.22800000E+01           0.12175168E+00
   0.22900000E+01           0.11901517E+00
   0.23000000E+01           0.11531517E+00
   0.23100000E+01           0.11242293E+00
   0.23200000E+01           0.10947989E+00
   0.23300000E+01           0.10620935E+00
   0.23400000E+01           0.10351799E+00
   0.23500000E+01           0.10052857E+00
   0.23600000E+01           0.97585185E-01
   0.23700000E+01           0.95031746E-01
   0.23800000E+01           0.92367725E-01
   0.23900000E+01           0.89440741E-01
   0.24000000E+01           0.87013051E-01
   0.24100000E+01           0.84383422E-01
   0.24200000E+01           0.81990653E-01
   0.24300000E+01           0.79502293E-01
   0.24400000E+01           0.77067725E-01
   0.24500000E+01           0.74675309E-01
   0.24600000E+01           0.72515344E-01
   0.24700000E+01           0.70508466E-01
   0.24800000E+01           0.68164021E-01
   0.24900000E+01           0.66299471E-01
   0.25000000E+01           0.64027513E-01
   0.25100000E+01           0.62046032E-01
   0.25200000E+01           0.60222751E-01
   0.25300000E+01           0.58462434E-01
   0.25400000E+01           0.56405291E-01
   0.25500000E+01           0.54842857E-01
   0.25600000E+01           0.53115697E-01
   0.25700000E+01           0.51330688E-01
   0.25800000E+01           0.49740564E-01
   0.25900000E+01           0.48050088E-01
   0.26000000E+01           0.46488007E-01
   0.26100000E+01           0.44981129E-01
   0.26200000E+01           0.43314109E-01
   0.26300000E+01           0.41967901E-01
   0.26400000E+01           0.40575838E-01
   0.26500000E+01           0.39114109E-01
   0.26600000E+01           0.37845503E-01
   0.26700000E+01           0.36696649E-01
   0.26800000E+01           0.35291534E-01
   0.26900000E+01           0.34131041E-01
   0.27000000E+01           0.32993122E-01
   0.27100000E+01           0.31652205E-01
   0.27200000E+01           0.30743386E-01
   0.27300000E+01           0.29647972E-01
   0.27400000E+01           0.28543915E-01
   0.27500000E+01           0.27497002E-01
   0.27600000E+01           0.26440035E-01
   0.27700000E+01           0.25499471E-01
   0.27800000E+01           0.24573016E-01
   0.27900000E+01           0.23607760E-01
   0.28000000E+01           0.22822222E-01
   0.28100000E+01           0.21986067E-01
   0.28200000E+01           0.21136684E-01
   0.28300000E+01           0.20329453E-01
   0.28400000E+01           0.19461023E-01
   0.28500000E+01           0.18824162E-01
   0.28600000E+01           0.18201058E-01
   0.28700000E+01           0.17381481E-01
   0.28800000E+01           0.16670194E-01
   0.28900000E+01           0.16182716E-01
   0.29000000E+01           0.15459965E-01
   0.29100000E+01           0.14836155E-01
   0.29200000E+01           0.14253439E-01
   0.29300000E+01           0.13619753E-01
   0.29400000E+01           0.13138624E-01
   0.29500000E+01           0.12577601E-01
   0.29600000E+01           0.11991711E-01
   0.29700000E+01           0.11524868E-01
   0.29800000E+01           0.11132804E-01
   0.29900000E+01           0.10593651E-01
   0.30000000E+01           0.10153616E-01
   0.30100000E+01           0.97964727E-02
   0.30200000E+01           0.93432099E-02
   0.30300000E+01           0.89608466E-02
   0.30400000E+01           0.85377425E-02
   0.30500000E+01           0.81345679E-02
   0.30600000E+01           0.77241623E-02
   0.30700000E+01           0.75165785E-02
   0.30800000E+01           0.71419753E-02
   0.30900000E+01           0.68137566E-02
   0.31000000E+01           0.64835979E-02
   0.31100000E+01           0.62017637E-02
   0.31200000E+01           0.58499118E-02
   0.31300000E+01           0.56403880E-02
   0.31400000E+01           0.53523810E-02
   0.31500000E+01           0.51051146E-02
   0.31600000E+01           0.48379189E-02
   0.31700000E+01           0.46331570E-02
   0.31800000E+01           0.44144621E-02
   0.31900000E+01           0.42188713E-02
   0.32000000E+01           0.40209877E-02
   0.32100000E+01           0.38257496E-02
   0.32200000E+01           0.36012346E-02
   0.32300000E+01           0.34881834E-02
   0.32400000E+01           0.32128748E-02
   0.32500000E+01           0.30797178E-02
   0.32600000E+01           0.29165785E-02
   0.32700000E+01           0.27892416E-02
   0.32800000E+01           0.26814815E-02
   0.32900000E+01           0.24724868E-02
   0.33000000E+01           0.23380952E-02
   0.33100000E+01           0.22372134E-02
   0.33200000E+01           0.21227513E-02
   0.33300000E+01           0.20638448E-02
   0.33400000E+01           0.18961199E-02
   0.33500000E+01           0.17753086E-02
   0.33600000E+01           0.16964727E-02
   0.33700000E+01           0.16001764E-02
   0.33800000E+01           0.15038801E-02
   0.33900000E+01           0.14176367E-02
   0.34000000E+01           0.13522046E-02
   0.34100000E+01           0.12477954E-02
   0.34200000E+01           0.11957672E-02
   0.34300000E+01           0.10864198E-02
   0.34400000E+01           0.10423280E-02
   0.34500000E+01           0.98800705E-03
   0.34600000E+01           0.90952381E-03
   0.34700000E+01           0.88730159E-03
   0.34800000E+01           0.80493827E-03
   0.34900000E+01           0.74197531E-03
   0.35000000E+01           0.69894180E-03
   0.35100000E+01           0.65820106E-03
   0.35200000E+01           0.59576720E-03
   0.35300000E+01           0.56049383E-03
   0.35400000E+01           0.52451499E-03
   0.35500000E+01           0.51463845E-03
   0.35600000E+01           0.46666667E-03
   0.35700000E+01           0.42504409E-03
   0.35800000E+01           0.39347443E-03
   0.35900000E+01           0.38183422E-03
   0.36000000E+01           0.32010582E-03
   0.36100000E+01           0.31410935E-03
   0.36200000E+01           0.28253968E-03
   0.36300000E+01           0.26067019E-03
   0.36400000E+01           0.25149912E-03
   0.36500000E+01           0.21587302E-03
   0.36600000E+01           0.20423280E-03
   0.36700000E+01           0.18941799E-03
   0.36800000E+01           0.17072310E-03
   0.36900000E+01           0.16931217E-03
   0.37000000E+01           0.13791887E-03
   0.37100000E+01           0.13439153E-03
   0.37200000E+01           0.11128748E-03
   0.37300000E+01           0.10123457E-03
   0.37400000E+01           0.93121693E-04
   0.37500000E+01           0.88359788E-04
   0.37600000E+01           0.71604938E-04
   0.37700000E+01           0.73015873E-04
   0.37800000E+01           0.58730159E-04
   0.37900000E+01           0.54673721E-04
   0.38000000E+01           0.44091711E-04
   0.38100000E+01           0.42504409E-04
   0.38200000E+01           0.32627866E-04
   0.38300000E+01           0.31746032E-04
   0.38400000E+01           0.24867725E-04
   0.38500000E+01           0.28571429E-04
   0.38600000E+01           0.18342152E-04
   0.38700000E+01           0.17283951E-04
   0.38800000E+01           0.13756614E-04
   0.38900000E+01           0.89947090E-05
   0.39000000E+01           0.89947090E-05
   0.39100000E+01           0.51146384E-05
   0.39200000E+01           0.56437390E-05
   0.39300000E+01           0.24691358E-05
   0.39400000E+01           0.31746032E-05
   0.39500000E+01           0.24691358E-05
   0.39600000E+01           0.12345679E-05
   0.39700000E+01           0.35273369E-06
   0.39800000E+01           0.35273369E-06
   0.39900000E+01           0.00000000E+00
   0.40000000E+01           0.00000000E+00
 #T=   411.0000
  -0.40000000E+01           0.00000000E+00
  -0.39900000E+01           0.00000000E+00
  -0.39800000E+01           0.00000000E+00
  -0.39700000E+01           0.00000000E+00
  -0.39600000E+01           0.00000000E+00
  -0.39500000E+01           0.00000000E+00
  -0.39400000E+01           0.00000000E+00
  -0.39300000E+01           0.00000000E+00
  -0.39200000E+01           0.00000000E+00
  -0.39100000E+01           0.00000000E+00
  -0.39000000E+01           0.00000000E+00
  -0.38900000E+01           0.00000000E+00
  -0.38800000E+01           0.00000000E+00
  -0.38700000E+01           0.00000000E+00
  -0.38600000E+01           0.00000000E+00
  -0.38500000E+01           0.00000000E+00
  -0.38400000E+01           0.00000000E+00
  -0.38300000E+01           0.00000000E+00
  -0.38200000E+01           0.00000000E+00
  -0.38100000E+01           0.00000000E+00
  -0.38000000E+01           0.00000000E+00
  -0.37900000E+01           0.00000000E+00
  -0.37800000E+01           0.00000000E+00
  -0.37700000E+01           0.00000000E+00
  -0.37600000E+01           0.00000000E+00
  -0.37500000E+01           0.00000000E+00
  -0.37400000E+01           0.00000000E+00
  -0.37300000E+01           0.00000000E+00
  -0.37200000E+01           0.00000000E+00
  -0.37100000E+01           0.00000000E+00
  -0.37000000E+01           0.00000000E+00
  -0.36900000E+01           0.00000000E+00
  -0.36800000E+01           0.00000000E+00
  -0.36700000E+01           0.00000000E+00
  -0.36600000E+01           0.00000000E+00
  -0.36500000E+01           0.00000000E+00
  -0.36400000E+01           0.00000000E+00
  -0.36300000E+01           0.00000000E+00
  -0.36200000E+01           0.00000000E+00
  -0.36100000E+01           0.00000000E+00
  -0.36000000E+01           0.00000000E+00
  -0.35900000E+01           0.00000000E+00
  -0.35800000E+01           0.00000000E+00
  -0.35700000E+01           0.00000000E+00
  -0.35600000E+01           0.00000000E+00
  -0.35500000E+01           0.00000000E+00
  -0.35400000E+01           0.00000000E+00
  -0.35300000E+01           0.00000000E+00
  -0.35200000E+01           0.00000000E+00
  -0.35100000E+01           0.00000000E+00
  -0.35000000E+01           0.00000000E+00
  -0.34900000E+01           0.00000000E+00
  -0.34800000E+01           0.00000000E+00
  -0.34700000E+01           0.00000000E+00
  -0.34600000E+01           0.00000000E+00
  -0.34500000E+01           0.00000000E+00
  -0.34400000E+01           0.00000000E+00
  -0.34300000E+01           0.00000000E+00
  -0.34200000E+01           0.00000000E+00
  -0.34100000E+01           0.00000000E+00
  -0.34000000E+01           0.00000000E+00
  -0.33900000E+01           0.00000000E+00
  -0.33800000E+01           0.00000000E+00
  -0.33700000E+01           0.00000000E+00
  -0.33600000E+01           0.00000000E+00
  -0.33500000E+01           0.00000000E+00
  -0.33400000E+01           0.00000000E+00
  -0.33300000E+01           0.00000000E+00
  -0.33200000E+01           0.00000000E+00
  -0.33100000E+01           0.00000000E+00
  -0.33000000E+01           0.00000000E+00
  -0.32900000E+01           0.00000000E+00
  -0.32800000E+01           0.00000000E+00
  -0.32700000E+01           0.00000000E+00
  -0.32600000E+01           0.00000000E+00
  -0.32500000E+01           0.00000000E+00
  -0.32400000E+01           0.00000000E+00
  -0.32300000E+01           0.00000000E+00
  -0.32200000E+01           0.00000000E+00
  -0.32100000E+01           0.00000000E+00
  -0.32000000E+01           0.00000000E+00
  -0.31900000E+01           0.00000000E+00
  -0.31800000E+01           0.00000000E+00
  -0.31700000E+01           0.00000000E+00
  -0.31600000E+01           0.00000000E+00
  -0.31500000E+01           0.00000000E+00
  -0.31400000E+01           0.00000000E+00
  -0.31300000E+01           0.00000000E+00
  -0.31200000E+01           0.00000000E+00
  -0.31100000E+01           0.00000000E+00
  -0.31000000E+01           0.00000000E+00
  -0.30900000E+01           0.00000000E+00
  -0.30800000E+01           0.00000000E+00
  -0.30700000E+01           0.00000000E+00
  -0.30600000E+01           0.00000000E+00
  -0.30500000E+01           0.00000000E+00
  -0.30400000E+01           0.00000000E+00
  -0.30300000E+01           0.00000000E+00
  -0.30200000E+01           0.00000000E+00
  -0.30100000E+01           0.00000000E+00
  -0.30000000E+01           0.00000000E+00
  -0.29900000E+01           0.00000000E+00
  -0.29800000E+01           0.00000000E+00
  -0.29700000E+01           0.00000000E+00
  -0.29600000E+01           0.00000000E+00
  -0.29500000E+01           0.00000000E+00
  -0.29400000E+01           0.00000000E+00
  -0.29300000E+01           0.00000000E+00
  -0.29200000E+01           0.00000000E+00
  -0.29100000E+01           0.00000000E+00
  -0.29000000E+01           0.00000000E+00
  -0.28900000E+01           0.00000000E+00
  -0.28800000E+01           0.00000000E+00
  -0.28700000E+01           0.00000000E+00
  -0.28600000E+01           0.00000000E+00
  -0.28500000E+01           0.00000000E+00
  -0.28400000E+01           0.00000000E+00
  -0.28300000E+01           0.00000000E+00
  -0.28200000E+01           0.00000000E+00
  -0.28100000E+01           0.00000000E+00
  -0.28000000E+01           0.00000000E+00
  -0.27900000E+01           0.00000000E+00
  -0.27800000E+01           0.00000000E+00
  -0.27700000E+01           0.00000000E+00
  -0.27600000E+01           0.00000000E+00
  -0.27500000E+01           0.00000000E+00
  -0.27400000E+01           0.00000000E+00
  -0.27300000E+01           0.00000000E+00
  -0.27200000E+01           0.00000000E+00
  -0.27100000E+01           0.00000000E+00
  -0.27000000E+01           0.00000000E+00
  -0.26900000E+01           0.00000000E+00
  -0.26800000E+01           0.00000000E+00
  -0.26700000E+01           0.00000000E+00
  -0.26600000E+01           0.00000000E+00
  -0.26500000E+01           0.00000000E+00
  -0.26400000E+01           0.00000000E+00
  -0.26300000E+01           0.00000000E+00
  -0.26200000E+01           0.00000000E+00
  -0.26100000E+01           0.00000000E+00
  -0.26000000E+01           0.00000000E+00
  -0.25900000E+01           0.00000000E+00
  -0.25800000E+01           0.00000000E+00
  -0.25700000E+01           0.00000000E+00
  -0.25600000E+01           0.00000000E+00
  -0.25500000E+01           0.00000000E+00
  -0.25400000E+01           0.00000000E+00
  -0.25300000E+01           0.00000000E+00
  -0.25200000E+01           0.00000000E+00
  -0.25100000E+01           0.00000000E+00
  -0.25000000E+01           0.00000000E+00
  -0.24900000E+01           0.00000000E+00
  -0.24800000E+01           0.00000000E+00
  -0.24700000E+01           0.00000000E+00
  -0.24600000E+01           0.00000000E+00
  -0.24500000E+01           0.00000000E+00
  -0.24400000E+01           0.00000000E+00
  -0.24300000E+01           0.00000000E+00
  -0.24200000E+01           0.00000000E+00
  -0.24100000E+01           0.00000000E+00
  -0.24000000E+01           0.00000000E+00
  -0.23900000E+01           0.00000000E+00
  -0.23800000E+01           0.00000000E+00
  -0.23700000E+01           0.00000000E+00
  -0.23600000E+01           0.00000000E+00
  -0.23500000E+01           0.00000000E+00
  -0.23400000E+01           0.00000000E+00
  -0.23300000E+01           0.00000000E+00
  -0.23200000E+01           0.00000000E+00
  -0.23100000E+01           0.00000000E+00
  -0.23000000E+01           0.00000000E+00
  -0.22900000E+01           0.00000000E+00
  -0.22800000E+01           0.00000000E+00
  -0.22700000E+01           0.00000000E+00
  -0.22600000E+01           0.00000000E+00
  -0.22500000E+01           0.00000000E+00
  -0.22400000E+01           0.00000000E+00
  -0.22300000E+01           0.00000000E+00
  -0.22200000E+01           0.00000000E+00
  -0.22100000E+01           0.00000000E+00
  -0.22000000E+01           0.00000000E+00
  -0.21900000E+01           0.00000000E+00
  -0.21800000E+01           0.00000000E+00
  -0.21700000E+01           0.00000000E+00
  -0.21600000E+01           0.00000000E+00
  -0.21500000E+01           0.00000000E+00
  -0.21400000E+01           0.00000000E+00
  -0.21300000E+01           0.00000000E+00
  -0.21200000E+01           0.00000000E+00
  -0.21100000E+01           0.00000000E+00
  -0.21000000E+01           0.00000000E+00
  -0.20900000E+01           0.00000000E+00
  -0.20800000E+01           0.00000000E+00
  -0.20700000E+01           0.00000000E+00
  -0.20600000E+01           0.00000000E+00
  -0.20500000E+01           0.00000000E+00
  -0.20400000E+01           0.00000000E+00
  -0.20300000E+01           0.00000000E+00
  -0.20200000E+01           0.00000000E+00
  -0.20100000E+01           0.00000000E+00
  -0.20000000E+01           0.00000000E+00
  -0.19900000E+01           0.00000000E+00
  -0.19800000E+01           0.00000000E+00
  -0.19700000E+01           0.00000000E+00
  -0.19600000E+01           0.00000000E+00
  -0.19500000E+01           0.00000000E+00
  -0.19400000E+01           0.00000000E+00
  -0.19300000E+01           0.00000000E+00
  -0.19200000E+01           0.00000000E+00
  -0.19100000E+01           0.00000000E+00
  -0.19000000E+01           0.00000000E+00
  -0.18900000E+01           0.00000000E+00
  -0.18800000E+01           0.00000000E+00
  -0.18700000E+01           0.00000000E+00
  -0.18600000E+01           0.00000000E+00
  -0.18500000E+01           0.00000000E+00
  -0.18400000E+01           0.00000000E+00
  -0.18300000E+01           0.00000000E+00
  -0.18200000E+01           0.00000000E+00
  -0.18100000E+01           0.00000000E+00
  -0.18000000E+01           0.00000000E+00
  -0.17900000E+01           0.00000000E+00
  -0.17800000E+01           0.00000000E+00
  -0.17700000E+01           0.00000000E+00
  -0.17600000E+01           0.00000000E+00
  -0.17500000E+01           0.00000000E+00
  -0.17400000E+01           0.00000000E+00
  -0.17300000E+01           0.00000000E+00
  -0.17200000E+01           0.00000000E+00
  -0.17100000E+01           0.00000000E+00
  -0.17000000E+01           0.00000000E+00
  -0.16900000E+01           0.00000000E+00
  -0.16800000E+01           0.00000000E+00
  -0.16700000E+01           0.00000000E+00
  -0.16600000E+01           0.00000000E+00
  -0.16500000E+01           0.00000000E+00
  -0.16400000E+01           0.00000000E+00
  -0.16300000E+01           0.00000000E+00
  -0.16200000E+01           0.00000000E+00
  -0.16100000E+01           0.00000000E+00
  -0.16000000E+01           0.00000000E+00
  -0.15900000E+01           0.00000000E+00
  -0.15800000E+01           0.00000000E+00
  -0.15700000E+01           0.00000000E+00
  -0.15600000E+01           0.00000000E+00
  -0.15500000E+01           0.00000000E+00
  -0.15400000E+01           0.00000000E+00
  -0.15300000E+01           0.00000000E+00
  -0.15200000E+01           0.00000000E+00
  -0.15100000E+01           0.00000000E+00
  -0.15000000E+01           0.00000000E+00
  -0.14900000E+01           0.00000000E+00
  -0.14800000E+01           0.00000000E+00
  -0.14700000E+01           0.00000000E+00
  -0.14600000E+01           0.00000000E+00
  -0.14500000E+01           0.00000000E+00
  -0.14400000E+01           0.00000000E+00
  -0.14300000E+01           0.00000000E+00
  -0.14200000E+01           0.00000000E+00
  -0.14100000E+01           0.00000000E+00
  -0.14000000E+01           0.00000000E+00
  -0.13900000E+01           0.00000000E+00
  -0.13800000E+01           0.00000000E+00
  -0.13700000E+01           0.00000000E+00
  -0.13600000E+01           0.00000000E+00
  -0.13500000E+01           0.00000000E+00
  -0.13400000E+01           0.00000000E+00
  -0.13300000E+01           0.00000000E+00
  -0.13200000E+01           0.00000000E+00
  -0.13100000E+01           0.00000000E+00
  -0.13000000E+01           0.00000000E+00
  -0.12900000E+01           0.00000000E+00
  -0.12800000E+01           0.00000000E+00
  -0.12700000E+01           0.00000000E+00
  -0.12600000E+01           0.00000000E+00
  -0.12500000E+01           0.00000000E+00
  -0.12400000E+01           0.00000000E+00
  -0.12300000E+01           0.00000000E+00
  -0.12200000E+01           0.00000000E+00
  -0.12100000E+01           0.00000000E+00
  -0.12000000E+01           0.00000000E+00
  -0.11900000E+01           0.00000000E+00
  -0.11800000E+01           0.00000000E+00
  -0.11700000E+01           0.00000000E+00
  -0.11600000E+01           0.00000000E+00
  -0.11500000E+01           0.00000000E+00
  -0.11400000E+01           0.00000000E+00
  -0.11300000E+01           0.00000000E+00
  -0.11200000E+01           0.00000000E+00
  -0.11100000E+01           0.00000000E+00
  -0.11000000E+01           0.00000000E+00
  -0.10900000E+01           0.00000000E+00
  -0.10800000E+01           0.00000000E+00
  -0.10700000E+01           0.00000000E+00
  -0.10600000E+01           0.00000000E+00
  -0.10500000E+01           0.00000000E+00
  -0.10400000E+01           0.00000000E+00
  -0.10300000E+01           0.00000000E+00
  -0.10200000E+01           0.00000000E+00
  -0.10100000E+01           0.00000000E+00
  -0.10000000E+01           0.00000000E+00
  -0.99000000E+00           0.00000000E+00
  -0.98000000E+00           0.00000000E+00
  -0.97000000E+00           0.00000000E+00
  -0.96000000E+00           0.00000000E+00
  -0.95000000E+00           0.00000000E+00
  -0.94000000E+00           0.00000000E+00
  -0.93000000E+00           0.00000000E+00
  -0.92000000E+00           0.00000000E+00
  -0.91000000E+00           0.00000000E+00
  -0.90000000E+00           0.00000000E+00
  -0.89000000E+00           0.00000000E+00
  -0.88000000E+00           0.00000000E+00
  -0.87000000E+00           0.00000000E+00
  -0.86000000E+00           0.00000000E+00
  -0.85000000E+00           0.00000000E+00
  -0.84000000E+00           0.00000000E+00
  -0.83000000E+00           0.00000000E+00
  -0.82000000E+00           0.00000000E+00
  -0.81000000E+00           0.00000000E+00
  -0.80000000E+00           0.00000000E+00
  -0.79000000E+00           0.00000000E+00
  -0.78000000E+00           0.00000000E+00
  -0.77000000E+00           0.00000000E+00
  -0.76000000E+00           0.00000000E+00
  -0.75000000E+00           0.00000000E+00
  -0.74000000E+00           0.00000000E+00
  -0.73000000E+00           0.00000000E+00
  -0.72000000E+00           0.00000000E+00
  -0.71000000E+00           0.00000000E+00
  -0.70000000E+00           0.00000000E+00
  -0.69000000E+00           0.00000000E+00
  -0.68000000E+00           0.00000000E+00
  -0.67000000E+00           0.00000000E+00
  -0.66000000E+00           0.00000000E+00
  -0.65000000E+00           0.00000000E+00
  -0.64000000E+00           0.00000000E+00
  -0.63000000E+00           0.00000000E+00
  -0.62000000E+00           0.00000000E+00
  -0.61000000E+00           0.00000000E+00
  -0.60000000E+00           0.00000000E+00
  -0.59000000E+00           0.00000000E+00
  -0.58000000E+00           0.00000000E+00
  -0.57000000E+00           0.00000000E+00
  -0.56000000E+00           0.00000000E+00
  -0.55000000E+00           0.00000000E+00
  -0.54000000E+00           0.00000000E+00
  -0.53000000E+00           0.00000000E+00
  -0.52000000E+00           0.00000000E+00
  -0.51000000E+00           0.00000000E+00
  -0.50000000E+00           0.00000000E+00
  -0.49000000E+00           0.00000000E+00
  -0.48000000E+00           0.00000000E+00
  -0.47000000E+00           0.00000000E+00
  -0.46000000E+00           0.00000000E+00
  -0.45000000E+00           0.00000000E+00
  -0.44000000E+00           0.00000000E+00
  -0.43000000E+00           0.00000000E+00
  -0.42000000E+00           0.00000000E+00
  -0.41000000E+00           0.00000000E+00
  -0.40000000E+00           0.00000000E+00
  -0.39000000E+00           0.00000000E+00
  -0.38000000E+00           0.00000000E+00
  -0.37000000E+00           0.00000000E+00
  -0.36000000E+00           0.00000000E+00
  -0.35000000E+00           0.00000000E+00
  -0.34000000E+00           0.00000000E+00
  -0.33000000E+00           0.00000000E+00
  -0.32000000E+00           0.00000000E+00
  -0.31000000E+00           0.00000000E+00
  -0.30000000E+00           0.00000000E+00
  -0.29000000E+00           0.00000000E+00
  -0.28000000E+00           0.00000000E+00
  -0.27000000E+00           0.00000000E+00
  -0.26000000E+00           0.00000000E+00
  -0.25000000E+00           0.00000000E+00
  -0.24000000E+00           0.00000000E+00
  -0.23000000E+00           0.00000000E+00
  -0.22000000E+00           0.00000000E+00
  -0.21000000E+00           0.00000000E+00
  -0.20000000E+00           0.00000000E+00
  -0.19000000E+00           0.00000000E+00
  -0.18000000E+00           0.00000000E+00
  -0.17000000E+00           0.00000000E+00
  -0.16000000E+00           0.00000000E+00
  -0.15000000E+00           0.00000000E+00
  -0.14000000E+00           0.00000000E+00
  -0.13000000E+00           0.00000000E+00
  -0.12000000E+00           0.00000000E+00
  -0.11000000E+00           0.00000000E+00
  -0.10000000E+00           0.00000000E+00
  -0.90000000E-01           0.00000000E+00
  -0.80000000E-01           0.00000000E+00
  -0.70000000E-01           0.00000000E+00
  -0.60000000E-01           0.00000000E+00
  -0.50000000E-01           0.00000000E+00
  -0.40000000E-01           0.00000000E+00
  -0.30000000E-01           0.00000000E+00
  -0.20000000E-01           0.00000000E+00
  -0.10000000E-01           0.00000000E+00
   0.00000000E+00           0.14638448E-04
   0.10000000E-01           0.35061728E-03
   0.20000000E-01           0.12952381E-02
   0.30000000E-01           0.28435626E-02
   0.40000000E-01           0.49573192E-02
   0.50000000E-01           0.75947090E-02
   0.60000000E-01           0.10779189E-01
   0.70000000E-01           0.14506526E-01
   0.80000000E-01           0.18713933E-01
   0.90000000E-01           0.23456614E-01
   0.10000000E+00           0.28610053E-01
   0.11000000E+00           0.34177778E-01
   0.12000000E+00           0.40101940E-01
   0.13000000E+00           0.46255379E-01
   0.14000000E+00           0.53177601E-01
   0.15000000E+00           0.60168783E-01
   0.16000000E+00           0.67377249E-01
   0.17000000E+00           0.75003704E-01
   0.18000000E+00           0.83312522E-01
   0.19000000E+00           0.91615697E-01
   0.20000000E+00           0.99773192E-01
   0.21000000E+00           0.10862857E+00
   0.22000000E+00           0.11776349E+00
   0.23000000E+00           0.12730758E+00
   0.24000000E+00           0.13629788E+00
   0.25000000E+00           0.14579259E+00
   0.26000000E+00           0.15603704E+00
   0.27000000E+00           0.16584515E+00
   0.28000000E+00           0.17579965E+00
   0.29000000E+00           0.18609083E+00
   0.30000000E+00           0.19652593E+00
   0.31000000E+00           0.20707601E+00
   0.32000000E+00           0.21757566E+00
   0.33000000E+00           0.22807760E+00
   0.34000000E+00           0.23882769E+00
   0.35000000E+00           0.24932840E+00
   0.36000000E+00           0.26038554E+00
   0.37000000E+00           0.27136543E+00
   0.38000000E+00           0.28212169E+00
   0.39000000E+00           0.29260882E+00
   0.40000000E+00           0.30358836E+00
   0.41000000E+00           0.31458148E+00
   0.42000000E+00           0.32513351E+00
   0.43000000E+00           0.33573386E+00
   0.44000000E+00           0.34697619E+00
   0.45000000E+00           0.35733704E+00
   0.46000000E+00           0.36812593E+00
   0.47000000E+00           0.37867337E+00
   0.48000000E+00           0.38935168E+00
   0.49000000E+00           0.39988025E+00
   0.50000000E+00           0.41030758E+00
   0.51000000E+00           0.42028095E+00
   0.52000000E+00           0.43016085E+00
   0.53000000E+00           0.44052487E+00
   0.54000000E+00           0.44995044E+00
   0.55000000E+00           0.45997725E+00
   0.56000000E+00           0.47002734E+00
   0.57000000E+00           0.47919436E+00
   0.58000000E+00           0.48836861E+00
   0.59000000E+00           0.49852822E+00
   0.60000000E+00           0.50718977E+00
   0.61000000E+00           0.51594603E+00
   0.62000000E+00           0.52561781E+00
   0.63000000E+00           0.53363369E+00
   0.64000000E+00           0.54210705E+00
   0.65000000E+00           0.55057390E+00
   0.66000000E+00           0.55801993E+00
   0.67000000E+00           0.56649259E+00
   0.68000000E+00           0.57464991E+00
   0.69000000E+00           0.58182451E+00
   0.70000000E+00           0.58901252E+00
   0.71000000E+00           0.59642205E+00
   0.72000000E+00           0.60297284E+00
   0.73000000E+00           0.61007443E+00
   0.74000000E+00           0.61599506E+00
   0.75000000E+00           0.62274727E+00
   0.76000000E+00           0.62911129E+00
   0.77000000E+00           0.63472698E+00
   0.78000000E+00           0.64079224E+00
   0.79000000E+00           0.64631781E+00
   0.80000000E+00           0.65150864E+00
   0.81000000E+00           0.65626755E+00
   0.82000000E+00           0.66177601E+00
   0.83000000E+00           0.66646720E+00
   0.84000000E+00           0.67063651E+00
   0.85000000E+00           0.67469982E+00
   0.86000000E+00           0.67974021E+00
   0.87000000E+00           0.68253298E+00
   0.88000000E+00           0.68618871E+00
   0.89000000E+00           0.68976526E+00
   0.90000000E+00           0.69279242E+00
   0.91000000E+00           0.69598325E+00
   0.92000000E+00           0.69789524E+00
   0.93000000E+00           0.70008042E+00
   0.94000000E+00           0.70297901E+00
   0.95000000E+00           0.70498889E+00
   0.96000000E+00           0.70662381E+00
   0.97000000E+00           0.70857637E+00
   0.98000000E+00           0.70997778E+00
   0.99000000E+00           0.71086861E+00
   0.10000000E+01           0.71256631E+00
   0.10100000E+01           0.71334109E+00
   0.10200000E+01           0.71289065E+00
   0.10300000E+01           0.71416049E+00
   0.10400000E+01           0.71416120E+00
   0.10500000E+01           0.71391940E+00
   0.10600000E+01           0.71364797E+00
   0.10700000E+01           0.71385573E+00
   0.10800000E+01           0.71313510E+00
   0.10900000E+01           0.71217337E+00
   0.11000000E+01           0.71063316E+00
   0.11100000E+01           0.71029665E+00
   0.11200000E+01           0.70852769E+00
   0.11300000E+01           0.70666914E+00
   0.11400000E+01           0.70510088E+00
   0.11500000E+01           0.70328289E+00
   0.11600000E+01           0.70120741E+00
   0.11700000E+01           0.69939453E+00
   0.11800000E+01           0.69679506E+00
   0.11900000E+01           0.69427813E+00
   0.12000000E+01           0.69154533E+00
   0.12100000E+01           0.68813369E+00
   0.12200000E+01           0.68617637E+00
   0.12300000E+01           0.68203845E+00
   0.12400000E+01           0.67927972E+00
   0.12500000E+01           0.67602875E+00
   0.12600000E+01           0.67170511E+00
   0.12700000E+01           0.66777743E+00
   0.12800000E+01           0.66440000E+00
   0.12900000E+01           0.66049171E+00
   0.13000000E+01           0.65650071E+00
   0.13100000E+01           0.65215873E+00
   0.13200000E+01           0.64749577E+00
   0.13300000E+01           0.64277513E+00
   0.13400000E+01           0.63929594E+00
   0.13500000E+01           0.63381446E+00
   0.13600000E+01           0.62896102E+00
   0.13700000E+01           0.62400741E+00
   0.13800000E+01           0.61933986E+00
   0.13900000E+01           0.61449189E+00
   0.14000000E+01           0.60843774E+00
   0.14100000E+01           0.60402751E+00
   0.14200000E+01           0.59739824E+00
   0.14300000E+01           0.59284956E+00
   0.14400000E+01           0.58692945E+00
   0.14500000E+01           0.58147901E+00
   0.14600000E+01           0.57591446E+00
   0.14700000E+01           0.56955996E+00
   0.14800000E+01           0.56406966E+00
   0.14900000E+01           0.55836067E+00
   0.15000000E+01           0.55238377E+00
   0.15100000E+01           0.54619647E+00
   0.15200000E+01           0.54046843E+00
   0.15300000E+01           0.53416561E+00
   0.15400000E+01           0.52848360E+00
   0.15500000E+01           0.52167619E+00
   0.15600000E+01           0.51618519E+00
   0.15700000E+01           0.50994409E+00
   0.15800000E+01           0.50340758E+00
   0.15900000E+01           0.49694956E+00
   0.16000000E+01           0.49069753E+00
   0.16100000E+01           0.48452451E+00
   0.16200000E+01           0.47851922E+00
   0.16300000E+01           0.47099489E+00
   0.16400000E+01           0.46503210E+00
   0.16500000E+01           0.45901605E+00
   0.16600000E+01           0.45236402E+00
   0.16700000E+01           0.44558536E+00
   0.16800000E+01           0.43957866E+00
   0.16900000E+01           0.43382698E+00
   0.17000000E+01           0.42675132E+00
   0.17100000E+01           0.42063757E+00
   0.17200000E+01           0.41366120E+00
   0.17300000E+01           0.40734921E+00
   0.17400000E+01           0.40084868E+00
   0.17500000E+01           0.39471675E+00
   0.17600000E+01           0.38808095E+00
   0.17700000E+01           0.38177937E+00
   0.17800000E+01           0.37567213E+00
   0.17900000E+01           0.36948977E+00
   0.18000000E+01           0.36310088E+00
   0.18100000E+01           0.35633298E+00
   0.18200000E+01           0.35061235E+00
   0.18300000E+01           0.34485062E+00
   0.18400000E+01           0.33838536E+00
   0.18500000E+01           0.33200617E+00
   0.18600000E+01           0.32560000E+00
   0.18700000E+01           0.31969453E+00
   0.18800000E+01           0.31378060E+00
   0.18900000E+01           0.30805697E+00
   0.19000000E+01           0.30198624E+00
   0.19100000E+01           0.29569929E+00
   0.19200000E+01           0.29055379E+00
   0.19300000E+01           0.28430758E+00
   0.19400000E+01           0.27850670E+00
   0.19500000E+01           0.27268801E+00
   0.19600000E+01           0.26761693E+00
   0.19700000E+01           0.26176966E+00
   0.19800000E+01           0.25592734E+00
   0.19900000E+01           0.25061058E+00
   0.20000000E+01           0.24526614E+00
   0.20100000E+01           0.23935996E+00
   0.20200000E+01           0.23456367E+00
   0.20300000E+01           0.22920917E+00
   0.20400000E+01           0.22398677E+00
   0.20500000E+01           0.21895238E+00
   0.20600000E+01           0.21379418E+00
   0.20700000E+01           0.20863175E+00
   0.20800000E+01           0.20424250E+00
   0.20900000E+01           0.19950899E+00
   0.21000000E+01           0.19461146E+00
   0.21100000E+01           0.18996367E+00
   0.21200000E+01           0.18554921E+00
   0.21300000E+01           0.18117778E+00
   0.21400000E+01           0.17649859E+00
   0.21500000E+01           0.17267866E+00
   0.21600000E+01           0.16808571E+00
   0.21700000E+01           0.16404162E+00
   0.21800000E+01           0.16010194E+00
   0.21900000E+01           0.15613192E+00
   0.22000000E+01           0.15187901E+00
   0.22100000E+01           0.14795591E+00
   0.22200000E+01           0.14430829E+00
   0.22300000E+01           0.14054497E+00
   0.22400000E+01           0.13715750E+00
   0.22500000E+01           0.13329189E+00
   0.22600000E+01           0.12973333E+00
   0.22700000E+01           0.12648730E+00
   0.22800000E+01           0.12323016E+00
   0.22900000E+01           0.11987443E+00
   0.23000000E+01           0.11680088E+00
   0.23100000E+01           0.11331376E+00
   0.23200000E+01           0.11033510E+00
   0.23300000E+01           0.10719735E+00
   0.23400000E+01           0.10447954E+00
   0.23500000E+01           0.10132522E+00
   0.23600000E+01           0.98351675E-01
   0.23700000E+01           0.95797884E-01
   0.23800000E+01           0.92912346E-01
   0.23900000E+01           0.90359436E-01
   0.24000000E+01           0.87692063E-01
   0.24100000E+01           0.85268430E-01
   0.24200000E+01           0.82600353E-01
   0.24300000E+01           0.80273545E-01
   0.24400000E+01           0.78277072E-01
   0.24500000E+01           0.75667196E-01
   0.24600000E+01           0.73503880E-01
   0.24700000E+01           0.71223457E-01
   0.24800000E+01           0.69096296E-01
   0.24900000E+01           0.66828748E-01
   0.25000000E+01           0.65007407E-01
   0.25100000E+01           0.62830688E-01
   0.25200000E+01           0.61053968E-01
   0.25300000E+01           0.59171958E-01
   0.25400000E+01           0.57151323E-01
   0.25500000E+01           0.55287125E-01
   0.25600000E+01           0.53665961E-01
   0.25700000E+01           0.51925926E-01
   0.25800000E+01           0.50309524E-01
   0.25900000E+01           0.48521693E-01
   0.26000000E+01           0.47049383E-01
   0.26100000E+01           0.45426102E-01
   0.26200000E+01           0.43970018E-01
   0.26300000E+01           0.42605115E-01
   0.26400000E+01           0.41042857E-01
   0.26500000E+01           0.39687654E-01
   0.26600000E+01           0.38407055E-01
   0.26700000E+01           0.37029453E-01
   0.26800000E+01           0.35871076E-01
   0.26900000E+01           0.34532451E-01
   0.27000000E+01           0.33335450E-01
   0.27100000E+01           0.31964903E-01
   0.27200000E+01           0.30985714E-01
   0.27300000E+01           0.29943210E-01
   0.27400000E+01           0.28856437E-01
   0.27500000E+01           0.27752557E-01
   0.27600000E+01           0.26862081E-01
   0.27700000E+01           0.25840035E-01
   0.27800000E+01           0.24858907E-01
   0.27900000E+01           0.23908466E-01
   0.28000000E+01           0.23116226E-01
   0.28100000E+01           0.22242328E-01
   0.28200000E+01           0.21381481E-01
   0.28300000E+01           0.20765256E-01
   0.28400000E+01           0.19957496E-01
   0.28500000E+01           0.19107407E-01
   0.28600000E+01           0.18329101E-01
   0.28700000E+01           0.17574603E-01
   0.28800000E+01           0.16913933E-01
   0.28900000E+01           0.16334744E-01
   0.29000000E+01           0.15635802E-01
   0.29100000E+01           0.15042857E-01
   0.29200000E+01           0.14362610E-01
   0.29300000E+01           0.13871076E-01
   0.29400000E+01           0.13329453E-01
   0.29500000E+01           0.12777425E-01
   0.29600000E+01           0.12246032E-01
   0.29700000E+01           0.11758377E-01
   0.29800000E+01           0.11187478E-01
   0.29900000E+01           0.10754145E-01
   0.30000000E+01           0.10287478E-01
   0.30100000E+01           0.99857143E-02
   0.30200000E+01           0.94848325E-02
   0.30300000E+01           0.90807760E-02
   0.30400000E+01           0.87386243E-02
   0.30500000E+01           0.82878307E-02
   0.30600000E+01           0.79446208E-02
   0.30700000E+01           0.76022928E-02
   0.30800000E+01           0.71765432E-02
   0.30900000E+01           0.68888889E-02
   0.31000000E+01           0.66629630E-02
   0.31100000E+01           0.63070547E-02
   0.31200000E+01           0.59894180E-02
   0.31300000E+01           0.57599647E-02
   0.31400000E+01           0.55190476E-02
   0.31500000E+01           0.51661376E-02
   0.31600000E+01           0.49647266E-02
   0.31700000E+01           0.47666667E-02
   0.31800000E+01           0.44954145E-02
   0.31900000E+01           0.43201058E-02
   0.32000000E+01           0.40906526E-02
   0.32100000E+01           0.38805996E-02
   0.32200000E+01           0.36800705E-02
   0.32300000E+01           0.34774250E-02
   0.32400000E+01           0.33287478E-02
   0.32500000E+01           0.31728395E-02
   0.32600000E+01           0.30303351E-02
   0.32700000E+01           0.28585538E-02
   0.32800000E+01           0.26742504E-02
   0.32900000E+01           0.25522046E-02
   0.33000000E+01           0.24522046E-02
   0.33100000E+01           0.23001764E-02
   0.33200000E+01           0.21476190E-02
   0.33300000E+01           0.20627866E-02
   0.33400000E+01           0.19469136E-02
   0.33500000E+01           0.18261023E-02
   0.33600000E+01           0.17446208E-02
   0.33700000E+01           0.16234568E-02
   0.33800000E+01           0.15546737E-02
   0.33900000E+01           0.14511464E-02
   0.34000000E+01           0.13603175E-02
   0.34100000E+01           0.12830688E-02
   0.34200000E+01           0.12176367E-02
   0.34300000E+01           0.11550265E-02
   0.34400000E+01           0.10846561E-02
   0.34500000E+01           0.10054674E-02
   0.34600000E+01           0.96331570E-03
   0.34700000E+01           0.88077601E-03
   0.34800000E+01           0.82945326E-03
   0.34900000E+01           0.78306878E-03
   0.35000000E+01           0.72751323E-03
   0.35100000E+01           0.67742504E-03
   0.35200000E+01           0.64126984E-03
   0.35300000E+01           0.59559083E-03
   0.35400000E+01           0.55097002E-03
   0.35500000E+01           0.49735450E-03
   0.35600000E+01           0.48271605E-03
   0.35700000E+01           0.43597884E-03
   0.35800000E+01           0.39541446E-03
   0.35900000E+01           0.38218695E-03
   0.36000000E+01           0.35149912E-03
   0.36100000E+01           0.31887125E-03
   0.36200000E+01           0.28888889E-03
   0.36300000E+01           0.27530864E-03
   0.36400000E+01           0.24409171E-03
   0.36500000E+01           0.23686067E-03
   0.36600000E+01           0.20529101E-03
   0.36700000E+01           0.19576720E-03
   0.36800000E+01           0.17407407E-03
   0.36900000E+01           0.15943563E-03
   0.37000000E+01           0.14109347E-03
   0.37100000E+01           0.14320988E-03
   0.37200000E+01           0.11992945E-03
   0.37300000E+01           0.10211640E-03
   0.37400000E+01           0.10264550E-03
   0.37500000E+01           0.91358025E-04
   0.37600000E+01           0.86948854E-04
   0.37700000E+01           0.66137566E-04
   0.37800000E+01           0.67724868E-04
   0.37900000E+01           0.46913580E-04
   0.38000000E+01           0.49559083E-04
   0.38100000E+01           0.42151675E-04
   0.38200000E+01           0.38977072E-04
   0.38300000E+01           0.33333333E-04
   0.38400000E+01           0.24691358E-04
   0.38500000E+01           0.24162257E-04
   0.38600000E+01           0.21164021E-04
   0.38700000E+01           0.17283951E-04
   0.38800000E+01           0.15167549E-04
   0.38900000E+01           0.13403880E-04
   0.39000000E+01           0.81128748E-05
   0.39100000E+01           0.51146384E-05
   0.39200000E+01           0.51146384E-05
   0.39300000E+01           0.40564374E-05
   0.39400000E+01           0.17636684E-05
   0.39500000E+01           0.12345679E-05
   0.39600000E+01           0.14109347E-05
   0.39700000E+01           0.10582011E-05
   0.39800000E+01           0.70546737E-06
   0.39900000E+01           0.00000000E+00
   0.40000000E+01           0.00000000E+00
 #T=   412.0000
  -0.40000000E+01           0.00000000E+00
  -0.39900000E+01           0.00000000E+00
  -0.39800000E+01           0.00000000E+00
  -0.39700000E+01           0.00000000E+00
  -0.39600000E+01           0.00000000E+00
  -0.39500000E+01           0.00000000E+00
  -0.39400000E+01           0.00000000E+00
  -0.39300000E+01           0.00000000E+00
  -0.39200000E+01           0.00000000E+00
  -0.39100000E+01           0.00000000E+00
  -0.39000000E+01           0.00000000E+00
  -0.38900000E+01           0.00000000E+00
  -0.38800000E+01           0.00000000E+00
  -0.38700000E+01           0.00000000E+00
  -0.38600000E+01           0.00000000E+00
  -0.38500000E+01           0.00000000E+00
  -0.38400000E+01           0.00000000E+00
  -0.38300000E+01           0.00000000E+00
  -0.38200000E+01           0.00000000E+00
  -0.38100000E+01           0.00000000E+00
  -0.38000000E+01           0.00000000E+00
  -0.37900000E+01           0.00000000E+00
  -0.37800000E+01           0.00000000E+00
  -0.37700000E+01           0.00000000E+00
  -0.37600000E+01           0.00000000E+00
  -0.37500000E+01           0.00000000E+00
  -0.37400000E+01           0.00000000E+00
  -0.37300000E+01           0.00000000E+00
  -0.37200000E+01           0.00000000E+00
  -0.37100000E+01           0.00000000E+00
  -0.37000000E+01           0.00000000E+00
  -0.36900000E+01           0.00000000E+00
  -0.36800000E+01           0.00000000E+00
  -0.36700000E+01           0.00000000E+00
  -0.36600000E+01           0.00000000E+00
  -0.36500000E+01           0.00000000E+00
  -0.36400000E+01           0.00000000E+00
  -0.36300000E+01           0.00000000E+00
  -0.36200000E+01           0.00000000E+00
  -0.36100000E+01           0.00000000E+00
  -0.36000000E+01           0.00000000E+00
  -0.35900000E+01           0.00000000E+00
  -0.35800000E+01           0.00000000E+00
  -0.35700000E+01           0.00000000E+00
  -0.35600000E+01           0.00000000E+00
  -0.35500000E+01           0.00000000E+00
  -0.35400000E+01           0.00000000E+00
  -0.35300000E+01           0.00000000E+00
  -0.35200000E+01           0.00000000E+00
  -0.35100000E+01           0.00000000E+00
  -0.35000000E+01           0.00000000E+00
  -0.34900000E+01           0.00000000E+00
  -0.34800000E+01           0.00000000E+00
  -0.34700000E+01           0.00000000E+00
  -0.34600000E+01           0.00000000E+00
  -0.34500000E+01           0.00000000E+00
  -0.34400000E+01           0.00000000E+00
  -0.34300000E+01           0.00000000E+00
  -0.34200000E+01           0.00000000E+00
  -0.34100000E+01           0.00000000E+00
  -0.34000000E+01           0.00000000E+00
  -0.33900000E+01           0.00000000E+00
  -0.33800000E+01           0.00000000E+00
  -0.33700000E+01           0.00000000E+00
  -0.33600000E+01           0.00000000E+00
  -0.33500000E+01           0.00000000E+00
  -0.33400000E+01           0.00000000E+00
  -0.33300000E+01           0.00000000E+00
  -0.33200000E+01           0.00000000E+00
  -0.33100000E+01           0.00000000E+00
  -0.33000000E+01           0.00000000E+00
  -0.32900000E+01           0.00000000E+00
  -0.32800000E+01           0.00000000E+00
  -0.32700000E+01           0.00000000E+00
  -0.32600000E+01           0.00000000E+00
  -0.32500000E+01           0.00000000E+00
  -0.32400000E+01           0.00000000E+00
  -0.32300000E+01           0.00000000E+00
  -0.32200000E+01           0.00000000E+00
  -0.32100000E+01           0.00000000E+00
  -0.32000000E+01           0.00000000E+00
  -0.31900000E+01           0.00000000E+00
  -0.31800000E+01           0.00000000E+00
  -0.31700000E+01           0.00000000E+00
  -0.31600000E+01           0.00000000E+00
  -0.31500000E+01           0.00000000E+00
  -0.31400000E+01           0.00000000E+00
  -0.31300000E+01           0.00000000E+00
  -0.31200000E+01           0.00000000E+00
  -0.31100000E+01           0.00000000E+00
  -0.31000000E+01           0.00000000E+00
  -0.30900000E+01           0.00000000E+00
  -0.30800000E+01           0.00000000E+00
  -0.30700000E+01           0.00000000E+00
  -0.30600000E+01           0.00000000E+00
  -0.30500000E+01           0.00000000E+00
  -0.30400000E+01           0.00000000E+00
  -0.30300000E+01           0.00000000E+00
  -0.30200000E+01           0.00000000E+00
  -0.30100000E+01           0.00000000E+00
  -0.30000000E+01           0.00000000E+00
  -0.29900000E+01           0.00000000E+00
  -0.29800000E+01           0.00000000E+00
  -0.29700000E+01           0.00000000E+00
  -0.29600000E+01           0.00000000E+00
  -0.29500000E+01           0.00000000E+00
  -0.29400000E+01           0.00000000E+00
  -0.29300000E+01           0.00000000E+00
  -0.29200000E+01           0.00000000E+00
  -0.29100000E+01           0.00000000E+00
  -0.29000000E+01           0.00000000E+00
  -0.28900000E+01           0.00000000E+00
  -0.28800000E+01           0.00000000E+00
  -0.28700000E+01           0.00000000E+00
  -0.28600000E+01           0.00000000E+00
  -0.28500000E+01           0.00000000E+00
  -0.28400000E+01           0.00000000E+00
  -0.28300000E+01           0.00000000E+00
  -0.28200000E+01           0.00000000E+00
  -0.28100000E+01           0.00000000E+00
  -0.28000000E+01           0.00000000E+00
  -0.27900000E+01           0.00000000E+00
  -0.27800000E+01           0.00000000E+00
  -0.27700000E+01           0.00000000E+00
  -0.27600000E+01           0.00000000E+00
  -0.27500000E+01           0.00000000E+00
  -0.27400000E+01           0.00000000E+00
  -0.27300000E+01           0.00000000E+00
  -0.27200000E+01           0.00000000E+00
  -0.27100000E+01           0.00000000E+00
  -0.27000000E+01           0.00000000E+00
  -0.26900000E+01           0.00000000E+00
  -0.26800000E+01           0.00000000E+00
  -0.26700000E+01           0.00000000E+00
  -0.26600000E+01           0.00000000E+00
  -0.26500000E+01           0.00000000E+00
  -0.26400000E+01           0.00000000E+00
  -0.26300000E+01           0.00000000E+00
  -0.26200000E+01           0.00000000E+00
  -0.26100000E+01           0.00000000E+00
  -0.26000000E+01           0.00000000E+00
  -0.25900000E+01           0.00000000E+00
  -0.25800000E+01           0.00000000E+00
  -0.25700000E+01           0.00000000E+00
  -0.25600000E+01           0.00000000E+00
  -0.25500000E+01           0.00000000E+00
  -0.25400000E+01           0.00000000E+00
  -0.25300000E+01           0.00000000E+00
  -0.25200000E+01           0.00000000E+00
  -0.25100000E+01           0.00000000E+00
  -0.25000000E+01           0.00000000E+00
  -0.24900000E+01           0.00000000E+00
  -0.24800000E+01           0.00000000E+00
  -0.24700000E+01           0.00000000E+00
  -0.24600000E+01           0.00000000E+00
  -0.24500000E+01           0.00000000E+00
  -0.24400000E+01           0.00000000E+00
  -0.24300000E+01           0.00000000E+00
  -0.24200000E+01           0.00000000E+00
  -0.24100000E+01           0.00000000E+00
  -0.24000000E+01           0.00000000E+00
  -0.23900000E+01           0.00000000E+00
  -0.23800000E+01           0.00000000E+00
  -0.23700000E+01           0.00000000E+00
  -0.23600000E+01           0.00000000E+00
  -0.23500000E+01           0.00000000E+00
  -0.23400000E+01           0.00000000E+00
  -0.23300000E+01           0.00000000E+00
  -0.23200000E+01           0.00000000E+00
  -0.23100000E+01           0.00000000E+00
  -0.23000000E+01           0.00000000E+00
  -0.22900000E+01           0.00000000E+00
  -0.22800000E+01           0.00000000E+00
  -0.22700000E+01           0.00000000E+00
  -0.22600000E+01           0.00000000E+00
  -0.22500000E+01           0.00000000E+00
  -0.22400000E+01           0.00000000E+00
  -0.22300000E+01           0.00000000E+00
  -0.22200000E+01           0.00000000E+00
  -0.22100000E+01           0.00000000E+00
  -0.22000000E+01           0.00000000E+00
  -0.21900000E+01           0.00000000E+00
  -0.21800000E+01           0.00000000E+00
  -0.21700000E+01           0.00000000E+00
  -0.21600000E+01           0.00000000E+00
  -0.21500000E+01           0.00000000E+00
  -0.21400000E+01           0.00000000E+00
  -0.21300000E+01           0.00000000E+00
  -0.21200000E+01           0.00000000E+00
  -0.21100000E+01           0.00000000E+00
  -0.21000000E+01           0.00000000E+00
  -0.20900000E+01           0.00000000E+00
  -0.20800000E+01           0.00000000E+00
  -0.20700000E+01           0.00000000E+00
  -0.20600000E+01           0.00000000E+00
  -0.20500000E+01           0.00000000E+00
  -0.20400000E+01           0.00000000E+00
  -0.20300000E+01           0.00000000E+00
  -0.20200000E+01           0.00000000E+00
  -0.20100000E+01           0.00000000E+00
  -0.20000000E+01           0.00000000E+00
  -0.19900000E+01           0.00000000E+00
  -0.19800000E+01           0.00000000E+00
  -0.19700000E+01           0.00000000E+00
  -0.19600000E+01           0.00000000E+00
  -0.19500000E+01           0.00000000E+00
  -0.19400000E+01           0.00000000E+00
  -0.19300000E+01           0.00000000E+00
  -0.19200000E+01           0.00000000E+00
  -0.19100000E+01           0.00000000E+00
  -0.19000000E+01           0.00000000E+00
  -0.18900000E+01           0.00000000E+00
  -0.18800000E+01           0.00000000E+00
  -0.18700000E+01           0.00000000E+00
  -0.18600000E+01           0.00000000E+00
  -0.18500000E+01           0.00000000E+00
  -0.18400000E+01           0.00000000E+00
  -0.18300000E+01           0.00000000E+00
  -0.18200000E+01           0.00000000E+00
  -0.18100000E+01           0.00000000E+00
  -0.18000000E+01           0.00000000E+00
  -0.17900000E+01           0.00000000E+00
  -0.17800000E+01           0.00000000E+00
  -0.17700000E+01           0.00000000E+00
  -0.17600000E+01           0.00000000E+00
  -0.17500000E+01           0.00000000E+00
  -0.17400000E+01           0.00000000E+00
  -0.17300000E+01           0.00000000E+00
  -0.17200000E+01           0.00000000E+00
  -0.17100000E+01           0.00000000E+00
  -0.17000000E+01           0.00000000E+00
  -0.16900000E+01           0.00000000E+00
  -0.16800000E+01           0.00000000E+00
  -0.16700000E+01           0.00000000E+00
  -0.16600000E+01           0.00000000E+00
  -0.16500000E+01           0.00000000E+00
  -0.16400000E+01           0.00000000E+00
  -0.16300000E+01           0.00000000E+00
  -0.16200000E+01           0.00000000E+00
  -0.16100000E+01           0.00000000E+00
  -0.16000000E+01           0.00000000E+00
  -0.15900000E+01           0.00000000E+00
  -0.15800000E+01           0.00000000E+00
  -0.15700000E+01           0.00000000E+00
  -0.15600000E+01           0.00000000E+00
  -0.15500000E+01           0.00000000E+00
  -0.15400000E+01           0.00000000E+00
  -0.15300000E+01           0.00000000E+00
  -0.15200000E+01           0.00000000E+00
  -0.15100000E+01           0.00000000E+00
  -0.15000000E+01           0.00000000E+00
  -0.14900000E+01           0.00000000E+00
[...]
  -0.64000000E+00           0.00000000E+00
  -0.63000000E+00           0.00000000E+00
  -0.62000000E+00           0.00000000E+00
  -0.61000000E+00           0.00000000E+00
  -0.60000000E+00           0.00000000E+00
  -0.59000000E+00           0.00000000E+00
  -0.58000000E+00           0.00000000E+00
  -0.57000000E+00           0.00000000E+00
  -0.56000000E+00           0.00000000E+00
  -0.55000000E+00           0.00000000E+00
  -0.54000000E+00           0.00000000E+00
  -0.53000000E+00           0.00000000E+00
  -0.52000000E+00           0.00000000E+00
  -0.51000000E+00           0.00000000E+00
  -0.50000000E+00           0.00000000E+00
  -0.49000000E+00           0.00000000E+00
  -0.48000000E+00           0.00000000E+00
  -0.47000000E+00           0.00000000E+00
  -0.46000000E+00           0.00000000E+00
  -0.45000000E+00           0.00000000E+00
  -0.44000000E+00           0.00000000E+00
  -0.43000000E+00           0.00000000E+00
  -0.42000000E+00           0.00000000E+00
  -0.41000000E+00           0.00000000E+00
  -0.40000000E+00           0.00000000E+00
  -0.39000000E+00           0.00000000E+00
  -0.38000000E+00           0.00000000E+00
  -0.37000000E+00           0.00000000E+00
  -0.36000000E+00           0.00000000E+00
  -0.35000000E+00           0.00000000E+00
  -0.34000000E+00           0.00000000E+00
  -0.33000000E+00           0.00000000E+00
  -0.32000000E+00           0.00000000E+00
  -0.31000000E+00           0.00000000E+00
  -0.30000000E+00           0.00000000E+00
  -0.29000000E+00           0.00000000E+00
  -0.28000000E+00           0.00000000E+00
  -0.27000000E+00           0.00000000E+00
  -0.26000000E+00           0.00000000E+00
  -0.25000000E+00           0.00000000E+00
  -0.24000000E+00           0.00000000E+00
  -0.23000000E+00           0.00000000E+00
  -0.22000000E+00           0.00000000E+00
  -0.21000000E+00           0.00000000E+00
  -0.20000000E+00           0.00000000E+00
  -0.19000000E+00           0.00000000E+00
  -0.18000000E+00           0.00000000E+00
  -0.17000000E+00           0.00000000E+00
  -0.16000000E+00           0.00000000E+00
  -0.15000000E+00           0.00000000E+00
  -0.14000000E+00           0.00000000E+00
  -0.13000000E+00           0.00000000E+00
  -0.12000000E+00           0.00000000E+00
  -0.11000000E+00           0.00000000E+00
  -0.10000000E+00           0.00000000E+00
  -0.90000000E-01           0.00000000E+00
  -0.80000000E-01           0.00000000E+00
  -0.70000000E-01           0.00000000E+00
  -0.60000000E-01           0.00000000E+00
  -0.50000000E-01           0.00000000E+00
  -0.40000000E-01           0.00000000E+00
  -0.30000000E-01           0.00000000E+00
  -0.20000000E-01           0.00000000E+00
  -0.10000000E-01           0.00000000E+00
   0.00000000E+00           0.54673721E-05
   0.10000000E-01           0.16560847E-03
   0.20000000E-01           0.59788360E-03
   0.30000000E-01           0.13499118E-02
   0.40000000E-01           0.23823633E-02
   0.50000000E-01           0.36139330E-02
   0.60000000E-01           0.52654321E-02
   0.70000000E-01           0.70306878E-02
   0.80000000E-01           0.91735450E-02
   0.90000000E-01           0.11432804E-01
   0.10000000E+00           0.14043915E-01
   0.11000000E+00           0.16890476E-01
   0.12000000E+00           0.19866843E-01
   0.13000000E+00           0.23171605E-01
   0.14000000E+00           0.26700000E-01
   0.15000000E+00           0.30441446E-01
   0.16000000E+00           0.34371605E-01
   0.17000000E+00           0.38644797E-01
   0.18000000E+00           0.42804056E-01
   0.19000000E+00           0.47369841E-01
   0.20000000E+00           0.52039506E-01
   0.21000000E+00           0.56996120E-01
   0.22000000E+00           0.61898589E-01
   0.23000000E+00           0.67047619E-01
   0.24000000E+00           0.72915520E-01
   0.25000000E+00           0.78022751E-01
   0.26000000E+00           0.83884832E-01
   0.27000000E+00           0.89634039E-01
   0.28000000E+00           0.95454497E-01
   0.29000000E+00           0.10164762E+00
   0.30000000E+00           0.10785750E+00
   0.31000000E+00           0.11399471E+00
   0.32000000E+00           0.12071570E+00
   0.33000000E+00           0.12712434E+00
   0.34000000E+00           0.13396173E+00
   0.35000000E+00           0.14052769E+00
   0.36000000E+00           0.14751587E+00
   0.37000000E+00           0.15423951E+00
   0.38000000E+00           0.16147019E+00
   0.39000000E+00           0.16884056E+00
   0.40000000E+00           0.17551481E+00
   0.41000000E+00           0.18281746E+00
   0.42000000E+00           0.19024991E+00
   0.43000000E+00           0.19788642E+00
   0.44000000E+00           0.20527725E+00
   0.45000000E+00           0.21263086E+00
   0.46000000E+00           0.22037407E+00
   0.47000000E+00           0.22788501E+00
   0.48000000E+00           0.23534938E+00
   0.49000000E+00           0.24242769E+00
   0.50000000E+00           0.25049612E+00
   0.51000000E+00           0.25815097E+00
   0.52000000E+00           0.26559559E+00
   0.53000000E+00           0.27342751E+00
   0.54000000E+00           0.28107354E+00
   0.55000000E+00           0.28871711E+00
   0.56000000E+00           0.29638607E+00
   0.57000000E+00           0.30384180E+00
   0.58000000E+00           0.31157725E+00
   0.59000000E+00           0.31947496E+00
   0.60000000E+00           0.32634480E+00
   0.61000000E+00           0.33434674E+00
   0.62000000E+00           0.34205644E+00
   0.63000000E+00           0.34926384E+00
   0.64000000E+00           0.35661481E+00
   0.65000000E+00           0.36442152E+00
   0.66000000E+00           0.37154215E+00
   0.67000000E+00           0.37887760E+00
   0.68000000E+00           0.38580388E+00
   0.69000000E+00           0.39358801E+00
   0.70000000E+00           0.40036755E+00
   0.71000000E+00           0.40763898E+00
   0.72000000E+00           0.41433915E+00
   0.73000000E+00           0.42160617E+00
   0.74000000E+00           0.42833351E+00
   0.75000000E+00           0.43485044E+00
   0.76000000E+00           0.44229700E+00
   0.77000000E+00           0.44923069E+00
   0.78000000E+00           0.45479771E+00
   0.79000000E+00           0.46199400E+00
   0.80000000E+00           0.46783862E+00
   0.81000000E+00           0.47458025E+00
   0.82000000E+00           0.48028889E+00
   0.83000000E+00           0.48678748E+00
   0.84000000E+00           0.49271429E+00
   0.85000000E+00           0.49833898E+00
   0.86000000E+00           0.50466720E+00
   0.87000000E+00           0.51000212E+00
   0.88000000E+00           0.51576914E+00
   0.89000000E+00           0.52027302E+00
   0.90000000E+00           0.52649877E+00
   0.91000000E+00           0.53162769E+00
   0.92000000E+00           0.53677813E+00
   0.93000000E+00           0.54203527E+00
   0.94000000E+00           0.54713157E+00
   0.95000000E+00           0.55205256E+00
   0.96000000E+00           0.55598007E+00
   0.97000000E+00           0.56074145E+00
   0.98000000E+00           0.56578730E+00
   0.99000000E+00           0.56883668E+00
   0.10000000E+01           0.57418236E+00
   0.10100000E+01           0.57758624E+00
   0.10200000E+01           0.58126667E+00
   0.10300000E+01           0.58517760E+00
   0.10400000E+01           0.58922504E+00
   0.10500000E+01           0.59168413E+00
   0.10600000E+01           0.59555503E+00
   0.10700000E+01           0.59841464E+00
   0.10800000E+01           0.60149947E+00
   0.10900000E+01           0.60513139E+00
   0.11000000E+01           0.60728148E+00
   0.11100000E+01           0.60999700E+00
   0.11200000E+01           0.61295873E+00
   0.11300000E+01           0.61476702E+00
   0.11400000E+01           0.61705573E+00
   0.11500000E+01           0.61983951E+00
   0.11600000E+01           0.62114145E+00
   0.11700000E+01           0.62372769E+00
   0.11800000E+01           0.62483474E+00
   0.11900000E+01           0.62629101E+00
   0.12000000E+01           0.62747443E+00
   0.12100000E+01           0.62888942E+00
   0.12200000E+01           0.63055926E+00
   0.12300000E+01           0.63113792E+00
   0.12400000E+01           0.63216190E+00
   0.12500000E+01           0.63288377E+00
   0.12600000E+01           0.63396737E+00
   0.12700000E+01           0.63319929E+00
   0.12800000E+01           0.63404409E+00
   0.12900000E+01           0.63393510E+00
   0.13000000E+01           0.63428748E+00
   0.13100000E+01           0.63470653E+00
   0.13200000E+01           0.63447778E+00
   0.13300000E+01           0.63431023E+00
   0.13400000E+01           0.63330670E+00
   0.13500000E+01           0.63266279E+00
   0.13600000E+01           0.63209824E+00
   0.13700000E+01           0.63075467E+00
   0.13800000E+01           0.62983157E+00
   0.13900000E+01           0.62881058E+00
   0.14000000E+01           0.62755203E+00
   0.14100000E+01           0.62661817E+00
   0.14200000E+01           0.62442787E+00
   0.14300000E+01           0.62310899E+00
   0.14400000E+01           0.62128924E+00
   0.14500000E+01           0.61902469E+00
   0.14600000E+01           0.61741129E+00
   0.14700000E+01           0.61508607E+00
   0.14800000E+01           0.61293510E+00
   0.14900000E+01           0.61093069E+00
   0.15000000E+01           0.60766825E+00
   0.15100000E+01           0.60596261E+00
   0.15200000E+01           0.60250564E+00
   0.15300000E+01           0.60023915E+00
   0.15400000E+01           0.59675009E+00
   0.15500000E+01           0.59402522E+00
   0.15600000E+01           0.59156402E+00
   0.15700000E+01           0.58751429E+00
   0.15800000E+01           0.58470071E+00
   0.15900000E+01           0.58101640E+00
   0.16000000E+01           0.57738201E+00
   0.16100000E+01           0.57402222E+00
   0.16200000E+01           0.57025679E+00
   0.16300000E+01           0.56639153E+00
   0.16400000E+01           0.56217566E+00
   0.16500000E+01           0.55829753E+00
   0.16600000E+01           0.55413351E+00
   0.16700000E+01           0.55029030E+00
   0.16800000E+01           0.54591781E+00
   0.16900000E+01           0.54178942E+00
   0.17000000E+01           0.53757778E+00
   0.17100000E+01           0.53264286E+00
   0.17200000E+01           0.52860899E+00
   0.17300000E+01           0.52378148E+00
   0.17400000E+01           0.51938148E+00
   0.17500000E+01           0.51385414E+00
   0.17600000E+01           0.50921728E+00
   0.17700000E+01           0.50468360E+00
   0.17800000E+01           0.49949189E+00
   0.17900000E+01           0.49475503E+00
   0.18000000E+01           0.49014339E+00
   0.18100000E+01           0.48451305E+00
   0.18200000E+01           0.47919136E+00
   0.18300000E+01           0.47415732E+00
   0.18400000E+01           0.46890476E+00
   0.18500000E+01           0.46311640E+00
   0.18600000E+01           0.45765397E+00
   0.18700000E+01           0.45293862E+00
   0.18800000E+01           0.44664056E+00
   0.18900000E+01           0.44140229E+00
   0.19000000E+01           0.43634780E+00
   0.19100000E+01           0.43028677E+00
   0.19200000E+01           0.42439065E+00
   0.19300000E+01           0.41906190E+00
   0.19400000E+01           0.41344815E+00
   0.19500000E+01           0.40727848E+00
   0.19600000E+01           0.40156561E+00
   0.19700000E+01           0.39578413E+00
   0.19800000E+01           0.39038307E+00
   0.19900000E+01           0.38392663E+00
   0.20000000E+01           0.37805344E+00
   0.20100000E+01           0.37239189E+00
   0.20200000E+01           0.36656561E+00
   0.20300000E+01           0.36081446E+00
   0.20400000E+01           0.35476455E+00
   0.20500000E+01           0.34924198E+00
   0.20600000E+01           0.34333386E+00
   0.20700000E+01           0.33780670E+00
   0.20800000E+01           0.33239189E+00
   0.20900000E+01           0.32729347E+00
   0.21000000E+01           0.32150194E+00
   0.21100000E+01           0.31601799E+00
   0.21200000E+01           0.31062416E+00
   0.21300000E+01           0.30532522E+00
   0.21400000E+01           0.30040899E+00
   0.21500000E+01           0.29476772E+00
   0.21600000E+01           0.28984656E+00
   0.21700000E+01           0.28392451E+00
   0.21800000E+01           0.27925714E+00
   0.21900000E+01           0.27477884E+00
   0.22000000E+01           0.26958236E+00
   0.22100000E+01           0.26496279E+00
   0.22200000E+01           0.25978236E+00
   0.22300000E+01           0.25499824E+00
   0.22400000E+01           0.25015344E+00
   0.22500000E+01           0.24532804E+00
   0.22600000E+01           0.24074780E+00
   0.22700000E+01           0.23650776E+00
   0.22800000E+01           0.23161111E+00
   0.22900000E+01           0.22756772E+00
   0.23000000E+01           0.22314709E+00
   0.23100000E+01           0.21856367E+00
   0.23200000E+01           0.21441393E+00
   0.23300000E+01           0.20972152E+00
   0.23400000E+01           0.20565450E+00
   0.23500000E+01           0.20199524E+00
   0.23600000E+01           0.19783668E+00
   0.23700000E+01           0.19355309E+00
   0.23800000E+01           0.18940353E+00
   0.23900000E+01           0.18597231E+00
   0.24000000E+01           0.18160053E+00
   0.24100000E+01           0.17789383E+00
   0.24200000E+01           0.17434303E+00
   0.24300000E+01           0.17059700E+00
   0.24400000E+01           0.16737937E+00
   0.24500000E+01           0.16362469E+00
   0.24600000E+01           0.16011940E+00
   0.24700000E+01           0.15628836E+00
   0.24800000E+01           0.15310635E+00
   0.24900000E+01           0.14980123E+00
   0.25000000E+01           0.14627972E+00
   0.25100000E+01           0.14290053E+00
   0.25200000E+01           0.13977302E+00
   0.25300000E+01           0.13667196E+00
   0.25400000E+01           0.13347831E+00
   0.25500000E+01           0.13049594E+00
   0.25600000E+01           0.12724268E+00
   0.25700000E+01           0.12455503E+00
   0.25800000E+01           0.12119700E+00
   0.25900000E+01           0.11830247E+00
   0.26000000E+01           0.11561728E+00
   0.26100000E+01           0.11300247E+00
   0.26200000E+01           0.11012063E+00
   0.26300000E+01           0.10747795E+00
   0.26400000E+01           0.10478519E+00
   0.26500000E+01           0.10233439E+00
   0.26600000E+01           0.99689065E-01
   0.26700000E+01           0.97155026E-01
   0.26800000E+01           0.94717460E-01
   0.26900000E+01           0.92484656E-01
   0.27000000E+01           0.89871076E-01
   0.27100000E+01           0.87680247E-01
   0.27200000E+01           0.85425220E-01
   0.27300000E+01           0.83247972E-01
   0.27400000E+01           0.80862610E-01
   0.27500000E+01           0.78777249E-01
   0.27600000E+01           0.76737919E-01
   0.27700000E+01           0.74595944E-01
   0.27800000E+01           0.72305644E-01
   0.27900000E+01           0.70666138E-01
   0.28000000E+01           0.68995414E-01
   0.28100000E+01           0.66758377E-01
   0.28200000E+01           0.64988889E-01
   0.28300000E+01           0.63287125E-01
   0.28400000E+01           0.61341799E-01
   0.28500000E+01           0.59839153E-01
   0.28600000E+01           0.58083774E-01
   0.28700000E+01           0.56226102E-01
   0.28800000E+01           0.54695238E-01
   0.28900000E+01           0.52999118E-01
   0.29000000E+01           0.51404586E-01
   0.29100000E+01           0.49830864E-01
   0.29200000E+01           0.48595591E-01
   0.29300000E+01           0.46968078E-01
   0.29400000E+01           0.45568783E-01
   0.29500000E+01           0.44242328E-01
   0.29600000E+01           0.42725750E-01
   0.29700000E+01           0.41439859E-01
   0.29800000E+01           0.40217460E-01
   0.29900000E+01           0.38874956E-01
   0.30000000E+01           0.37736332E-01
   0.30100000E+01           0.36499824E-01
   0.30200000E+01           0.35224868E-01
   0.30300000E+01           0.34142681E-01
   0.30400000E+01           0.33160141E-01
   0.30500000E+01           0.31880423E-01
   0.30600000E+01           0.30942328E-01
   0.30700000E+01           0.29898942E-01
   0.30800000E+01           0.28796473E-01
   0.30900000E+01           0.27884656E-01
   0.31000000E+01           0.26839683E-01
   0.31100000E+01           0.25756790E-01
   0.31200000E+01           0.25061023E-01
   0.31300000E+01           0.24071252E-01
   0.31400000E+01           0.23182187E-01
   0.31500000E+01           0.22415168E-01
   0.31600000E+01           0.21693122E-01
   0.31700000E+01           0.20724162E-01
   0.31800000E+01           0.20066138E-01
   0.31900000E+01           0.19370899E-01
   0.32000000E+01           0.18594356E-01
   0.32100000E+01           0.17845855E-01
   0.32200000E+01           0.17210758E-01
   0.32300000E+01           0.16508995E-01
   0.32400000E+01           0.15860670E-01
   0.32500000E+01           0.15171252E-01
   0.32600000E+01           0.14501411E-01
   0.32700000E+01           0.14041270E-01
   0.32800000E+01           0.13494885E-01
   0.32900000E+01           0.12884303E-01
   0.33000000E+01           0.12407055E-01
   0.33100000E+01           0.11911817E-01
   0.33200000E+01           0.11352205E-01
   0.33300000E+01           0.10810582E-01
   0.33400000E+01           0.10360670E-01
   0.33500000E+01           0.98837743E-02
   0.33600000E+01           0.94765432E-02
   0.33700000E+01           0.90442681E-02
   0.33800000E+01           0.85936508E-02
   0.33900000E+01           0.82352734E-02
   0.34000000E+01           0.78476190E-02
   0.34100000E+01           0.75317460E-02
   0.34200000E+01           0.71638448E-02
   0.34300000E+01           0.67850088E-02
   0.34400000E+01           0.64680776E-02
   0.34500000E+01           0.61495591E-02
   0.34600000E+01           0.58650794E-02
   0.34700000E+01           0.55361552E-02
   0.34800000E+01           0.52306878E-02
   0.34900000E+01           0.49857143E-02
   0.35000000E+01           0.46871252E-02
   0.35100000E+01           0.44846561E-02
   0.35200000E+01           0.41751323E-02
   0.35300000E+01           0.39613757E-02
   0.35400000E+01           0.37511464E-02
   0.35500000E+01           0.35181658E-02
   0.35600000E+01           0.33222222E-02
   0.35700000E+01           0.31222222E-02
   0.35800000E+01           0.29585538E-02
   0.35900000E+01           0.27250441E-02
   0.36000000E+01           0.25768959E-02
   0.36100000E+01           0.24350970E-02
   0.36200000E+01           0.22276896E-02
   0.36300000E+01           0.20786596E-02
   0.36400000E+01           0.19363316E-02
   0.36500000E+01           0.18356261E-02
   0.36600000E+01           0.17199295E-02
   0.36700000E+01           0.15462081E-02
   0.36800000E+01           0.14534392E-02
   0.36900000E+01           0.13379189E-02
   0.37000000E+01           0.12245150E-02
   0.37100000E+01           0.11164021E-02
   0.37200000E+01           0.10417989E-02
   0.37300000E+01           0.96719577E-03
   0.37400000E+01           0.87936508E-03
   0.37500000E+01           0.76631393E-03
   0.37600000E+01           0.71816578E-03
   0.37700000E+01           0.64567901E-03
   0.37800000E+01           0.58412698E-03
   0.37900000E+01           0.52804233E-03
   0.38000000E+01           0.46119929E-03
   0.38100000E+01           0.41763668E-03
   0.38200000E+01           0.37054674E-03
   0.38300000E+01           0.32239859E-03
   0.38400000E+01           0.28500882E-03
   0.38500000E+01           0.24074074E-03
   0.38600000E+01           0.21481481E-03
   0.38700000E+01           0.17319224E-03
   0.38800000E+01           0.15326279E-03
   0.38900000E+01           0.12380952E-03
   0.39000000E+01           0.10123457E-03
   0.39100000E+01           0.71252205E-04
   0.39200000E+01           0.60317460E-04
   0.39300000E+01           0.44444444E-04
   0.39400000E+01           0.32451499E-04
   0.39500000E+01           0.27865961E-04
   0.39600000E+01           0.15343915E-04
   0.39700000E+01           0.91710758E-05
   0.39800000E+01           0.42328042E-05
   0.39900000E+01           0.17636684E-05
   0.40000000E+01           0.00000000E+00
