 #written on 15Sep2024 at 17:16:01 
 #----------------- MONTECARLO -------------------#
 #        M                      P(M)             #
 #------------------------------------------------#
 #T=     1.0000
  -0.20000000E+01           0.00000000E+00
  -0.19900000E+01           0.00000000E+00
  -0.19800000E+01           0.00000000E+00
  -0.19700000E+01           0.00000000E+00
  -0.19600000E+01           0.00000000E+00
  -0.19500000E+01           0.00000000E+00
  -0.19400000E+01           0.00000000E+00
  -0.19300000E+01           0.00000000E+00
  -0.19200000E+01           0.00000000E+00
  -0.19100000E+01           0.00000000E+00
  -0.19000000E+01           0.00000000E+00
  -0.18900000E+01           0.00000000E+00
  -0.18800000E+01           0.00000000E+00
  -0.18700000E+01           0.00000000E+00
  -0.18600000E+01           0.00000000E+00
  -0.18500000E+01           0.00000000E+00
  -0.18400000E+01           0.00000000E+00
  -0.18300000E+01           0.00000000E+00
  -0.18200000E+01           0.00000000E+00
  -0.18100000E+01           0.00000000E+00
  -0.18000000E+01           0.00000000E+00
  -0.17900000E+01           0.00000000E+00
  -0.17800000E+01           0.00000000E+00
  -0.17700000E+01           0.00000000E+00
  -0.17600000E+01           0.00000000E+00
  -0.17500000E+01           0.00000000E+00
  -0.17400000E+01           0.00000000E+00
  -0.17300000E+01           0.00000000E+00
  -0.17200000E+01           0.00000000E+00
  -0.17100000E+01           0.00000000E+00
  -0.17000000E+01           0.00000000E+00
  -0.16900000E+01           0.00000000E+00
  -0.16800000E+01           0.00000000E+00
  -0.16700000E+01           0.00000000E+00
  -0.16600000E+01           0.00000000E+00
  -0.16500000E+01           0.00000000E+00
  -0.16400000E+01           0.00000000E+00
  -0.16300000E+01           0.00000000E+00
  -0.16200000E+01           0.00000000E+00
  -0.16100000E+01           0.00000000E+00
  -0.16000000E+01           0.00000000E+00
  -0.15900000E+01           0.00000000E+00
  -0.15800000E+01           0.00000000E+00
  -0.15700000E+01           0.00000000E+00
  -0.15600000E+01           0.00000000E+00
  -0.15500000E+01           0.00000000E+00
  -0.15400000E+01           0.00000000E+00
  -0.15300000E+01           0.00000000E+00
  -0.15200000E+01           0.00000000E+00
  -0.15100000E+01           0.00000000E+00
  -0.15000000E+01           0.00000000E+00
  -0.14900000E+01           0.00000000E+00
  -0.14800000E+01           0.00000000E+00
  -0.14700000E+01           0.00000000E+00
  -0.14600000E+01           0.00000000E+00
  -0.14500000E+01           0.00000000E+00
  -0.14400000E+01           0.00000000E+00
  -0.14300000E+01           0.00000000E+00
  -0.14200000E+01           0.00000000E+00
  -0.14100000E+01           0.00000000E+00
  -0.14000000E+01           0.00000000E+00
  -0.13900000E+01           0.00000000E+00
  -0.13800000E+01           0.00000000E+00
  -0.13700000E+01           0.00000000E+00
  -0.13600000E+01           0.00000000E+00
  -0.13500000E+01           0.00000000E+00
  -0.13400000E+01           0.00000000E+00
  -0.13300000E+01           0.00000000E+00
  -0.13200000E+01           0.00000000E+00
  -0.13100000E+01           0.00000000E+00
  -0.13000000E+01           0.00000000E+00
  -0.12900000E+01           0.00000000E+00
  -0.12800000E+01           0.00000000E+00
  -0.12700000E+01           0.00000000E+00
  -0.12600000E+01           0.00000000E+00
  -0.12500000E+01           0.00000000E+00
  -0.12400000E+01           0.00000000E+00
  -0.12300000E+01           0.00000000E+00
  -0.12200000E+01           0.00000000E+00
  -0.12100000E+01           0.00000000E+00
  -0.12000000E+01           0.00000000E+00
  -0.11900000E+01           0.00000000E+00
  -0.11800000E+01           0.00000000E+00
  -0.11700000E+01           0.00000000E+00
  -0.11600000E+01           0.00000000E+00
  -0.11500000E+01           0.00000000E+00
  -0.11400000E+01           0.00000000E+00
  -0.11300000E+01           0.00000000E+00
  -0.11200000E+01           0.00000000E+00
  -0.11100000E+01           0.00000000E+00
  -0.11000000E+01           0.00000000E+00
  -0.10900000E+01           0.00000000E+00
  -0.10800000E+01           0.00000000E+00
  -0.10700000E+01           0.00000000E+00
  -0.10600000E+01           0.00000000E+00
  -0.10500000E+01           0.00000000E+00
  -0.10400000E+01           0.00000000E+00
  -0.10300000E+01           0.00000000E+00
  -0.10200000E+01           0.00000000E+00
  -0.10100000E+01           0.00000000E+00
  -0.10000000E+01           0.00000000E+00
  -0.99000000E+00           0.00000000E+00
  -0.98000000E+00           0.00000000E+00
  -0.97000000E+00           0.00000000E+00
  -0.96000000E+00           0.00000000E+00
  -0.95000000E+00           0.00000000E+00
  -0.94000000E+00           0.00000000E+00
  -0.93000000E+00           0.00000000E+00
  -0.92000000E+00           0.00000000E+00
  -0.91000000E+00           0.00000000E+00
  -0.90000000E+00           0.00000000E+00
  -0.89000000E+00           0.00000000E+00
  -0.88000000E+00           0.00000000E+00
  -0.87000000E+00           0.00000000E+00
  -0.86000000E+00           0.00000000E+00
  -0.85000000E+00           0.00000000E+00
  -0.84000000E+00           0.00000000E+00
  -0.83000000E+00           0.00000000E+00
  -0.82000000E+00           0.00000000E+00
  -0.81000000E+00           0.00000000E+00
  -0.80000000E+00           0.00000000E+00
  -0.79000000E+00           0.00000000E+00
  -0.78000000E+00           0.00000000E+00
  -0.77000000E+00           0.00000000E+00
  -0.76000000E+00           0.00000000E+00
  -0.75000000E+00           0.00000000E+00
  -0.74000000E+00           0.00000000E+00
  -0.73000000E+00           0.00000000E+00
  -0.72000000E+00           0.00000000E+00
  -0.71000000E+00           0.00000000E+00
  -0.70000000E+00           0.00000000E+00
  -0.69000000E+00           0.00000000E+00
  -0.68000000E+00           0.00000000E+00
  -0.67000000E+00           0.00000000E+00
  -0.66000000E+00           0.00000000E+00
  -0.65000000E+00           0.00000000E+00
  -0.64000000E+00           0.00000000E+00
  -0.63000000E+00           0.00000000E+00
  -0.62000000E+00           0.00000000E+00
  -0.61000000E+00           0.00000000E+00
  -0.60000000E+00           0.00000000E+00
  -0.59000000E+00           0.00000000E+00
  -0.58000000E+00           0.00000000E+00
  -0.57000000E+00           0.00000000E+00
  -0.56000000E+00           0.00000000E+00
  -0.55000000E+00           0.00000000E+00
  -0.54000000E+00           0.00000000E+00
  -0.53000000E+00           0.00000000E+00
  -0.52000000E+00           0.00000000E+00
  -0.51000000E+00           0.00000000E+00
  -0.50000000E+00           0.00000000E+00
  -0.49000000E+00           0.00000000E+00
  -0.48000000E+00           0.00000000E+00
  -0.47000000E+00           0.00000000E+00
  -0.46000000E+00           0.00000000E+00
  -0.45000000E+00           0.00000000E+00
  -0.44000000E+00           0.00000000E+00
  -0.43000000E+00           0.00000000E+00
  -0.42000000E+00           0.00000000E+00
  -0.41000000E+00           0.00000000E+00
  -0.40000000E+00           0.00000000E+00
  -0.39000000E+00           0.00000000E+00
  -0.38000000E+00           0.00000000E+00
  -0.37000000E+00           0.00000000E+00
  -0.36000000E+00           0.00000000E+00
  -0.35000000E+00           0.00000000E+00
  -0.34000000E+00           0.00000000E+00
  -0.33000000E+00           0.00000000E+00
  -0.32000000E+00           0.00000000E+00
  -0.31000000E+00           0.00000000E+00
  -0.30000000E+00           0.00000000E+00
  -0.29000000E+00           0.00000000E+00
  -0.28000000E+00           0.00000000E+00
  -0.27000000E+00           0.00000000E+00
  -0.26000000E+00           0.00000000E+00
  -0.25000000E+00           0.00000000E+00
  -0.24000000E+00           0.00000000E+00
  -0.23000000E+00           0.00000000E+00
  -0.22000000E+00           0.00000000E+00
  -0.21000000E+00           0.00000000E+00
  -0.20000000E+00           0.00000000E+00
  -0.19000000E+00           0.00000000E+00
  -0.18000000E+00           0.00000000E+00
  -0.17000000E+00           0.00000000E+00
  -0.16000000E+00           0.00000000E+00
  -0.15000000E+00           0.00000000E+00
  -0.14000000E+00           0.00000000E+00
  -0.13000000E+00           0.00000000E+00
  -0.12000000E+00           0.00000000E+00
  -0.11000000E+00           0.00000000E+00
  -0.10000000E+00           0.00000000E+00
  -0.90000000E-01           0.00000000E+00
  -0.80000000E-01           0.00000000E+00
  -0.70000000E-01           0.00000000E+00
  -0.60000000E-01           0.00000000E+00
  -0.50000000E-01           0.00000000E+00
  -0.40000000E-01           0.00000000E+00
  -0.30000000E-01           0.00000000E+00
  -0.20000000E-01           0.00000000E+00
  -0.10000000E-01           0.00000000E+00
   0.00000000E+00           0.69977000E-02
   0.10000000E-01           0.55393533E-01
   0.20000000E-01           0.11099203E+00
   0.30000000E-01           0.16520783E+00
   0.40000000E-01           0.21890733E+00
   0.50000000E-01           0.27080017E+00
   0.60000000E-01           0.32098277E+00
   0.70000000E-01           0.37143727E+00
   0.80000000E-01           0.41872907E+00
   0.90000000E-01           0.46515047E+00
   0.10000000E+00           0.50628683E+00
   0.11000000E+00           0.54663610E+00
   0.12000000E+00           0.58391377E+00
   0.13000000E+00           0.61769817E+00
   0.14000000E+00           0.64994023E+00
   0.15000000E+00           0.67736493E+00
   0.16000000E+00           0.70261297E+00
   0.17000000E+00           0.72417520E+00
   0.18000000E+00           0.74131547E+00
   0.19000000E+00           0.75802253E+00
   0.20000000E+00           0.76934767E+00
   0.21000000E+00           0.77825977E+00
   0.22000000E+00           0.78341007E+00
   0.23000000E+00           0.78611800E+00
   0.24000000E+00           0.78597063E+00
   0.25000000E+00           0.78114193E+00
   0.26000000E+00           0.77523227E+00
   0.27000000E+00           0.76651940E+00
   0.28000000E+00           0.75632383E+00
   0.29000000E+00           0.74283007E+00
   0.30000000E+00           0.72685300E+00
   0.31000000E+00           0.71021120E+00
   0.32000000E+00           0.69206943E+00
   0.33000000E+00           0.67237853E+00
   0.34000000E+00           0.65134780E+00
   0.35000000E+00           0.62802310E+00
   0.36000000E+00           0.60520850E+00
   0.37000000E+00           0.58111910E+00
   0.38000000E+00           0.55727973E+00
   0.39000000E+00           0.53213157E+00
   0.40000000E+00           0.50838223E+00
   0.41000000E+00           0.48185763E+00
   0.42000000E+00           0.45741697E+00
   0.43000000E+00           0.43219253E+00
   0.44000000E+00           0.40708373E+00
   0.45000000E+00           0.38375477E+00
   0.46000000E+00           0.36070530E+00
   0.47000000E+00           0.33781320E+00
   0.48000000E+00           0.31589617E+00
   0.49000000E+00           0.29410707E+00
   0.50000000E+00           0.27419050E+00
   0.51000000E+00           0.25430270E+00
   0.52000000E+00           0.23519317E+00
   0.53000000E+00           0.21657460E+00
   0.54000000E+00           0.20009273E+00
   0.55000000E+00           0.18357183E+00
   0.56000000E+00           0.16879600E+00
   0.57000000E+00           0.15361623E+00
   0.58000000E+00           0.14101597E+00
   0.59000000E+00           0.12811753E+00
   0.60000000E+00           0.11650230E+00
   0.61000000E+00           0.10538107E+00
   0.62000000E+00           0.95295767E-01
   0.63000000E+00           0.86318933E-01
   0.64000000E+00           0.77481933E-01
   0.65000000E+00           0.69417367E-01
   0.66000000E+00           0.62244967E-01
   0.67000000E+00           0.55624133E-01
   0.68000000E+00           0.49921567E-01
   0.69000000E+00           0.44300900E-01
   0.70000000E+00           0.39361567E-01
   0.71000000E+00           0.34718900E-01
   0.72000000E+00           0.30743000E-01
   0.73000000E+00           0.27238233E-01
   0.74000000E+00           0.23781233E-01
   0.75000000E+00           0.20962933E-01
   0.76000000E+00           0.18206800E-01
   0.77000000E+00           0.15892933E-01
   0.78000000E+00           0.13924100E-01
   0.79000000E+00           0.12156800E-01
   0.80000000E+00           0.10407667E-01
   0.81000000E+00           0.90671000E-02
   0.82000000E+00           0.78643000E-02
   0.83000000E+00           0.67407667E-02
   0.84000000E+00           0.57403333E-02
   0.85000000E+00           0.49600667E-02
   0.86000000E+00           0.42230667E-02
   0.87000000E+00           0.35870000E-02
   0.88000000E+00           0.30763333E-02
   0.89000000E+00           0.26223000E-02
   0.90000000E+00           0.22352000E-02
   0.91000000E+00           0.18285667E-02
   0.92000000E+00           0.15445333E-02
   0.93000000E+00           0.13203333E-02
   0.94000000E+00           0.10870667E-02
   0.95000000E+00           0.93860000E-03
   0.96000000E+00           0.75506667E-03
   0.97000000E+00           0.62003333E-03
   0.98000000E+00           0.52056667E-03
   0.99000000E+00           0.43896667E-03
   0.10000000E+01           0.35383333E-03
   0.10100000E+01           0.30343333E-03
   0.10200000E+01           0.24676667E-03
   0.10300000E+01           0.20540000E-03
   0.10400000E+01           0.16480000E-03
   0.10500000E+01           0.12983333E-03
   0.10600000E+01           0.11093333E-03
   0.10700000E+01           0.86466667E-04
   0.10800000E+01           0.68333333E-04
   0.10900000E+01           0.58100000E-04
   0.11000000E+01           0.46366667E-04
   0.11100000E+01           0.35033333E-04
   0.11200000E+01           0.27966667E-04
   0.11300000E+01           0.18600000E-04
   0.11400000E+01           0.16033333E-04
   0.11500000E+01           0.13600000E-04
   0.11600000E+01           0.91333333E-05
   0.11700000E+01           0.64000000E-05
   0.11800000E+01           0.75333333E-05
   0.11900000E+01           0.38333333E-05
   0.12000000E+01           0.23333333E-05
   0.12100000E+01           0.29000000E-05
   0.12200000E+01           0.29000000E-05
   0.12300000E+01           0.11666667E-05
   0.12400000E+01           0.90000000E-06
   0.12500000E+01           0.66666667E-06
   0.12600000E+01           0.36666667E-06
   0.12700000E+01           0.83333333E-06
   0.12800000E+01           0.70000000E-06
   0.12900000E+01           0.23333333E-06
   0.13000000E+01           0.36666667E-06
   0.13100000E+01           0.00000000E+00
   0.13200000E+01           0.66666667E-07
   0.13300000E+01           0.00000000E+00
   0.13400000E+01           0.33333333E-07
   0.13500000E+01           0.00000000E+00
   0.13600000E+01           0.00000000E+00
   0.13700000E+01           0.00000000E+00
   0.13800000E+01           0.13333333E-06
   0.13900000E+01           0.00000000E+00
   0.14000000E+01           0.00000000E+00
   0.14100000E+01           0.33333333E-07
   0.14200000E+01           0.00000000E+00
   0.14300000E+01           0.00000000E+00
   0.14400000E+01           0.33333333E-06
   0.14500000E+01           0.66666667E-07
   0.14600000E+01           0.00000000E+00
   0.14700000E+01           0.00000000E+00
   0.14800000E+01           0.16666667E-06
   0.14900000E+01           0.50000000E-06
   0.15000000E+01           0.50000000E-06
   0.15100000E+01           0.33333333E-06
   0.15200000E+01           0.46666667E-06
   0.15300000E+01           0.26666667E-06
   0.15400000E+01           0.60000000E-06
   0.15500000E+01           0.21000000E-05
   0.15600000E+01           0.20333333E-05
   0.15700000E+01           0.41666667E-05
   0.15800000E+01           0.39333333E-05
   0.15900000E+01           0.69666667E-05
   0.16000000E+01           0.11733333E-04
   0.16100000E+01           0.20233333E-04
   0.16200000E+01           0.26100000E-04
   0.16300000E+01           0.34200000E-04
   0.16400000E+01           0.52433333E-04
   0.16500000E+01           0.72633333E-04
   0.16600000E+01           0.10690000E-03
   0.16700000E+01           0.15120000E-03
   0.16800000E+01           0.22200000E-03
   0.16900000E+01           0.31776667E-03
   0.17000000E+01           0.44583333E-03
   0.17100000E+01           0.63480000E-03
   0.17200000E+01           0.89990000E-03
   0.17300000E+01           0.13001000E-02
   0.17400000E+01           0.19063667E-02
   0.17500000E+01           0.27588333E-02
   0.17600000E+01           0.39115333E-02
   0.17700000E+01           0.56613333E-02
   0.17800000E+01           0.81301000E-02
   0.17900000E+01           0.11643200E-01
   0.18000000E+01           0.16757567E-01
   0.18100000E+01           0.24185433E-01
   0.18200000E+01           0.34940100E-01
   0.18300000E+01           0.50006033E-01
   0.18400000E+01           0.72009200E-01
   0.18500000E+01           0.10388823E+00
   0.18600000E+01           0.14970780E+00
   0.18700000E+01           0.21599497E+00
   0.18800000E+01           0.31168777E+00
   0.18900000E+01           0.44902200E+00
   0.19000000E+01           0.64831910E+00
   0.19100000E+01           0.93557367E+00
   0.19200000E+01           0.13525289E+01
   0.19300000E+01           0.19525778E+01
   0.19400000E+01           0.28257765E+01
   0.19500000E+01           0.40885559E+01
   0.19600000E+01           0.59180214E+01
   0.19700000E+01           0.85673527E+01
   0.19800000E+01           0.12414606E+02
   0.19900000E+01           0.17993869E+02
   0.20000000E+01           0.11836289E+02
 #T=     2.0000
  -0.20000000E+01           0.00000000E+00
  -0.19900000E+01           0.00000000E+00
  -0.19800000E+01           0.00000000E+00
  -0.19700000E+01           0.00000000E+00
  -0.19600000E+01           0.00000000E+00
  -0.19500000E+01           0.00000000E+00
  -0.19400000E+01           0.00000000E+00
  -0.19300000E+01           0.00000000E+00
  -0.19200000E+01           0.00000000E+00
  -0.19100000E+01           0.00000000E+00
  -0.19000000E+01           0.00000000E+00
  -0.18900000E+01           0.00000000E+00
  -0.18800000E+01           0.00000000E+00
  -0.18700000E+01           0.00000000E+00
  -0.18600000E+01           0.00000000E+00
  -0.18500000E+01           0.00000000E+00
  -0.18400000E+01           0.00000000E+00
  -0.18300000E+01           0.00000000E+00
  -0.18200000E+01           0.00000000E+00
  -0.18100000E+01           0.00000000E+00
  -0.18000000E+01           0.00000000E+00
  -0.17900000E+01           0.00000000E+00
  -0.17800000E+01           0.00000000E+00
  -0.17700000E+01           0.00000000E+00
  -0.17600000E+01           0.00000000E+00
  -0.17500000E+01           0.00000000E+00
  -0.17400000E+01           0.00000000E+00
  -0.17300000E+01           0.00000000E+00
  -0.17200000E+01           0.00000000E+00
  -0.17100000E+01           0.00000000E+00
  -0.17000000E+01           0.00000000E+00
  -0.16900000E+01           0.00000000E+00
  -0.16800000E+01           0.00000000E+00
  -0.16700000E+01           0.00000000E+00
  -0.16600000E+01           0.00000000E+00
  -0.16500000E+01           0.00000000E+00
  -0.16400000E+01           0.00000000E+00
  -0.16300000E+01           0.00000000E+00
  -0.16200000E+01           0.00000000E+00
  -0.16100000E+01           0.00000000E+00
  -0.16000000E+01           0.00000000E+00
  -0.15900000E+01           0.00000000E+00
  -0.15800000E+01           0.00000000E+00
  -0.15700000E+01           0.00000000E+00
  -0.15600000E+01           0.00000000E+00
  -0.15500000E+01           0.00000000E+00
  -0.15400000E+01           0.00000000E+00
  -0.15300000E+01           0.00000000E+00
  -0.15200000E+01           0.00000000E+00
  -0.15100000E+01           0.00000000E+00
  -0.15000000E+01           0.00000000E+00
  -0.14900000E+01           0.00000000E+00
  -0.14800000E+01           0.00000000E+00
  -0.14700000E+01           0.00000000E+00
  -0.14600000E+01           0.00000000E+00
  -0.14500000E+01           0.00000000E+00
  -0.14400000E+01           0.00000000E+00
  -0.14300000E+01           0.00000000E+00
  -0.14200000E+01           0.00000000E+00
  -0.14100000E+01           0.00000000E+00
  -0.14000000E+01           0.00000000E+00
  -0.13900000E+01           0.00000000E+00
  -0.13800000E+01           0.00000000E+00
  -0.13700000E+01           0.00000000E+00
  -0.13600000E+01           0.00000000E+00
  -0.13500000E+01           0.00000000E+00
  -0.13400000E+01           0.00000000E+00
  -0.13300000E+01           0.00000000E+00
  -0.13200000E+01           0.00000000E+00
  -0.13100000E+01           0.00000000E+00
  -0.13000000E+01           0.00000000E+00
  -0.12900000E+01           0.00000000E+00
  -0.12800000E+01           0.00000000E+00
  -0.12700000E+01           0.00000000E+00
  -0.12600000E+01           0.00000000E+00
  -0.12500000E+01           0.00000000E+00
  -0.12400000E+01           0.00000000E+00
  -0.12300000E+01           0.00000000E+00
  -0.12200000E+01           0.00000000E+00
  -0.12100000E+01           0.00000000E+00
  -0.12000000E+01           0.00000000E+00
  -0.11900000E+01           0.00000000E+00
  -0.11800000E+01           0.00000000E+00
  -0.11700000E+01           0.00000000E+00
  -0.11600000E+01           0.00000000E+00
  -0.11500000E+01           0.00000000E+00
  -0.11400000E+01           0.00000000E+00
  -0.11300000E+01           0.00000000E+00
  -0.11200000E+01           0.00000000E+00
  -0.11100000E+01           0.00000000E+00
  -0.11000000E+01           0.00000000E+00
  -0.10900000E+01           0.00000000E+00
  -0.10800000E+01           0.00000000E+00
  -0.10700000E+01           0.00000000E+00
  -0.10600000E+01           0.00000000E+00
  -0.10500000E+01           0.00000000E+00
  -0.10400000E+01           0.00000000E+00
  -0.10300000E+01           0.00000000E+00
  -0.10200000E+01           0.00000000E+00
  -0.10100000E+01           0.00000000E+00
  -0.10000000E+01           0.00000000E+00
  -0.99000000E+00           0.00000000E+00
  -0.98000000E+00           0.00000000E+00
  -0.97000000E+00           0.00000000E+00
  -0.96000000E+00           0.00000000E+00
  -0.95000000E+00           0.00000000E+00
  -0.94000000E+00           0.00000000E+00
  -0.93000000E+00           0.00000000E+00
  -0.92000000E+00           0.00000000E+00
  -0.91000000E+00           0.00000000E+00
  -0.90000000E+00           0.00000000E+00
  -0.89000000E+00           0.00000000E+00
  -0.88000000E+00           0.00000000E+00
  -0.87000000E+00           0.00000000E+00
  -0.86000000E+00           0.00000000E+00
  -0.85000000E+00           0.00000000E+00
  -0.84000000E+00           0.00000000E+00
  -0.83000000E+00           0.00000000E+00
  -0.82000000E+00           0.00000000E+00
  -0.81000000E+00           0.00000000E+00
  -0.80000000E+00           0.00000000E+00
  -0.79000000E+00           0.00000000E+00
  -0.78000000E+00           0.00000000E+00
  -0.77000000E+00           0.00000000E+00
  -0.76000000E+00           0.00000000E+00
  -0.75000000E+00           0.00000000E+00
  -0.74000000E+00           0.00000000E+00
  -0.73000000E+00           0.00000000E+00
  -0.72000000E+00           0.00000000E+00
  -0.71000000E+00           0.00000000E+00
  -0.70000000E+00           0.00000000E+00
  -0.69000000E+00           0.00000000E+00
  -0.68000000E+00           0.00000000E+00
  -0.67000000E+00           0.00000000E+00
  -0.66000000E+00           0.00000000E+00
  -0.65000000E+00           0.00000000E+00
  -0.64000000E+00           0.00000000E+00
  -0.63000000E+00           0.00000000E+00
  -0.62000000E+00           0.00000000E+00
  -0.61000000E+00           0.00000000E+00
  -0.60000000E+00           0.00000000E+00
  -0.59000000E+00           0.00000000E+00
  -0.58000000E+00           0.00000000E+00
  -0.57000000E+00           0.00000000E+00
  -0.56000000E+00           0.00000000E+00
  -0.55000000E+00           0.00000000E+00
  -0.54000000E+00           0.00000000E+00
  -0.53000000E+00           0.00000000E+00
  -0.52000000E+00           0.00000000E+00
  -0.51000000E+00           0.00000000E+00
  -0.50000000E+00           0.00000000E+00
  -0.49000000E+00           0.00000000E+00
  -0.48000000E+00           0.00000000E+00
  -0.47000000E+00           0.00000000E+00
  -0.46000000E+00           0.00000000E+00
  -0.45000000E+00           0.00000000E+00
  -0.44000000E+00           0.00000000E+00
  -0.43000000E+00           0.00000000E+00
  -0.42000000E+00           0.00000000E+00
  -0.41000000E+00           0.00000000E+00
  -0.40000000E+00           0.00000000E+00
  -0.39000000E+00           0.00000000E+00
  -0.38000000E+00           0.00000000E+00
  -0.37000000E+00           0.00000000E+00
  -0.36000000E+00           0.00000000E+00
  -0.35000000E+00           0.00000000E+00
  -0.34000000E+00           0.00000000E+00
  -0.33000000E+00           0.00000000E+00
  -0.32000000E+00           0.00000000E+00
  -0.31000000E+00           0.00000000E+00
  -0.30000000E+00           0.00000000E+00
  -0.29000000E+00           0.00000000E+00
  -0.28000000E+00           0.00000000E+00
  -0.27000000E+00           0.00000000E+00
  -0.26000000E+00           0.00000000E+00
  -0.25000000E+00           0.00000000E+00
  -0.24000000E+00           0.00000000E+00
  -0.23000000E+00           0.00000000E+00
  -0.22000000E+00           0.00000000E+00
  -0.21000000E+00           0.00000000E+00
  -0.20000000E+00           0.00000000E+00
  -0.19000000E+00           0.00000000E+00
  -0.18000000E+00           0.00000000E+00
  -0.17000000E+00           0.00000000E+00
  -0.16000000E+00           0.00000000E+00
  -0.15000000E+00           0.00000000E+00
  -0.14000000E+00           0.00000000E+00
  -0.13000000E+00           0.00000000E+00
  -0.12000000E+00           0.00000000E+00
  -0.11000000E+00           0.00000000E+00
  -0.10000000E+00           0.00000000E+00
  -0.90000000E-01           0.00000000E+00
  -0.80000000E-01           0.00000000E+00
  -0.70000000E-01           0.00000000E+00
  -0.60000000E-01           0.00000000E+00
  -0.50000000E-01           0.00000000E+00
  -0.40000000E-01           0.00000000E+00
  -0.30000000E-01           0.00000000E+00
  -0.20000000E-01           0.00000000E+00
  -0.10000000E-01           0.00000000E+00
   0.00000000E+00           0.68035333E-02
   0.10000000E-01           0.54081367E-01
   0.20000000E-01           0.10798720E+00
   0.30000000E-01           0.16211570E+00
   0.40000000E-01           0.21497273E+00
   0.50000000E-01           0.26777433E+00
   0.60000000E-01           0.32014170E+00
   0.70000000E-01           0.37111037E+00
   0.80000000E-01           0.42155167E+00
   0.90000000E-01           0.46986673E+00
   0.10000000E+00           0.51849530E+00
   0.11000000E+00           0.56529753E+00
   0.12000000E+00           0.60976560E+00
   0.13000000E+00           0.65435980E+00
   0.14000000E+00           0.69611590E+00
   0.15000000E+00           0.73662287E+00
   0.16000000E+00           0.77520160E+00
   0.17000000E+00           0.81046163E+00
   0.18000000E+00           0.84571693E+00
   0.19000000E+00           0.87869507E+00
   0.20000000E+00           0.90748623E+00
   0.21000000E+00           0.93667943E+00
   0.22000000E+00           0.96315030E+00
   0.23000000E+00           0.98682990E+00
   0.24000000E+00           0.10086636E+01
   0.25000000E+00           0.10270794E+01
   0.26000000E+00           0.10458789E+01
   0.27000000E+00           0.10612219E+01
   0.28000000E+00           0.10740575E+01
   0.29000000E+00           0.10838943E+01
   0.30000000E+00           0.10922696E+01
   0.31000000E+00           0.10988957E+01
   0.32000000E+00           0.11010727E+01
   0.33000000E+00           0.11042542E+01
   0.34000000E+00           0.11043052E+01
   0.35000000E+00           0.11026670E+01
   0.36000000E+00           0.10982495E+01
   0.37000000E+00           0.10932551E+01
   0.38000000E+00           0.10861540E+01
   0.39000000E+00           0.10765395E+01
   0.40000000E+00           0.10657298E+01
   0.41000000E+00           0.10535074E+01
   0.42000000E+00           0.10397821E+01
   0.43000000E+00           0.10252198E+01
   0.44000000E+00           0.10083462E+01
   0.45000000E+00           0.98962810E+00
   0.46000000E+00           0.97183070E+00
   0.47000000E+00           0.95297790E+00
   0.48000000E+00           0.93152023E+00
   0.49000000E+00           0.90985013E+00
   0.50000000E+00           0.88757950E+00
   0.51000000E+00           0.86558070E+00
   0.52000000E+00           0.84197997E+00
   0.53000000E+00           0.81864180E+00
   0.54000000E+00           0.79375893E+00
   0.55000000E+00           0.77010080E+00
   0.56000000E+00           0.74435327E+00
   0.57000000E+00           0.72046387E+00
   0.58000000E+00           0.69485530E+00
   0.59000000E+00           0.67012287E+00
   0.60000000E+00           0.64512480E+00
   0.61000000E+00           0.62025637E+00
   0.62000000E+00           0.59626777E+00
   0.63000000E+00           0.57210720E+00
   0.64000000E+00           0.54754060E+00
   0.65000000E+00           0.52455590E+00
   0.66000000E+00           0.50076043E+00
   0.67000000E+00           0.47816760E+00
   0.68000000E+00           0.45572497E+00
   0.69000000E+00           0.43364760E+00
   0.70000000E+00           0.41263833E+00
   0.71000000E+00           0.39195500E+00
   0.72000000E+00           0.37171130E+00
   0.73000000E+00           0.35189680E+00
   0.74000000E+00           0.33334363E+00
   0.75000000E+00           0.31458403E+00
   0.76000000E+00           0.29655723E+00
   0.77000000E+00           0.27983000E+00
   0.78000000E+00           0.26284433E+00
   0.79000000E+00           0.24745533E+00
   0.80000000E+00           0.23267987E+00
   0.81000000E+00           0.21765780E+00
   0.82000000E+00           0.20366507E+00
   0.83000000E+00           0.19049633E+00
   0.84000000E+00           0.17806023E+00
   0.85000000E+00           0.16625667E+00
   0.86000000E+00           0.15453013E+00
   0.87000000E+00           0.14393157E+00
   0.88000000E+00           0.13367470E+00
   0.89000000E+00           0.12421183E+00
   0.90000000E+00           0.11492757E+00
   0.91000000E+00           0.10630607E+00
   0.92000000E+00           0.98495833E-01
   0.93000000E+00           0.90610567E-01
   0.94000000E+00           0.83431533E-01
   0.95000000E+00           0.76965567E-01
   0.96000000E+00           0.70675967E-01
   0.97000000E+00           0.64771067E-01
   0.98000000E+00           0.59441033E-01
   0.99000000E+00           0.54368400E-01
   0.10000000E+01           0.49933833E-01
   0.10100000E+01           0.45363533E-01
   0.10200000E+01           0.41392133E-01
   0.10300000E+01           0.37677167E-01
   0.10400000E+01           0.34101633E-01
   0.10500000E+01           0.31021667E-01
   0.10600000E+01           0.28179467E-01
   0.10700000E+01           0.25442800E-01
   0.10800000E+01           0.22876900E-01
   0.10900000E+01           0.20602700E-01
   0.11000000E+01           0.18604000E-01
   0.11100000E+01           0.16746933E-01
   0.11200000E+01           0.15082967E-01
   0.11300000E+01           0.13504900E-01
   0.11400000E+01           0.11985567E-01
   0.11500000E+01           0.10721900E-01
   0.11600000E+01           0.95332667E-02
   0.11700000E+01           0.85631667E-02
   0.11800000E+01           0.75512667E-02
   0.11900000E+01           0.67397333E-02
   0.12000000E+01           0.59567000E-02
   0.12100000E+01           0.52598333E-02
   0.12200000E+01           0.46219667E-02
   0.12300000E+01           0.40800000E-02
   0.12400000E+01           0.36246333E-02
   0.12500000E+01           0.31437667E-02
   0.12600000E+01           0.27769000E-02
   0.12700000E+01           0.24258000E-02
   0.12800000E+01           0.21201667E-02
   0.12900000E+01           0.18360667E-02
   0.13000000E+01           0.15888000E-02
   0.13100000E+01           0.13780333E-02
   0.13200000E+01           0.12257667E-02
   0.13300000E+01           0.10647333E-02
   0.13400000E+01           0.94570000E-03
   0.13500000E+01           0.80853333E-03
   0.13600000E+01           0.71176667E-03
   0.13700000E+01           0.64520000E-03
   0.13800000E+01           0.57080000E-03
   0.13900000E+01           0.52250000E-03
   0.14000000E+01           0.47676667E-03
   0.14100000E+01           0.44913333E-03
   0.14200000E+01           0.44220000E-03
   0.14300000E+01           0.44486667E-03
   0.14400000E+01           0.45903333E-03
   0.14500000E+01           0.49386667E-03
   0.14600000E+01           0.53863333E-03
   0.14700000E+01           0.60173333E-03
   0.14800000E+01           0.68226667E-03
   0.14900000E+01           0.81183333E-03
   0.15000000E+01           0.91316667E-03
   0.15100000E+01           0.10815000E-02
   0.15200000E+01           0.12805667E-02
   0.15300000E+01           0.15247000E-02
   0.15400000E+01           0.18148000E-02
   0.15500000E+01           0.21508667E-02
   0.15600000E+01           0.25746000E-02
   0.15700000E+01           0.30745667E-02
   0.15800000E+01           0.37033333E-02
   0.15900000E+01           0.43778667E-02
   0.16000000E+01           0.52802667E-02
   0.16100000E+01           0.63264333E-02
   0.16200000E+01           0.75682000E-02
   0.16300000E+01           0.91165333E-02
   0.16400000E+01           0.10866667E-01
   0.16500000E+01           0.13005900E-01
   0.16600000E+01           0.15523300E-01
   0.16700000E+01           0.18569133E-01
   0.16800000E+01           0.22359767E-01
   0.16900000E+01           0.26795900E-01
   0.17000000E+01           0.32170400E-01
   0.17100000E+01           0.38523667E-01
   0.17200000E+01           0.46189233E-01
   0.17300000E+01           0.55350200E-01
   0.17400000E+01           0.66316133E-01
   0.17500000E+01           0.79153167E-01
   0.17600000E+01           0.95216833E-01
   0.17700000E+01           0.11383320E+00
   0.17800000E+01           0.13640910E+00
   0.17900000E+01           0.16327960E+00
   0.18000000E+01           0.19562770E+00
   0.18100000E+01           0.23425287E+00
   0.18200000E+01           0.27994033E+00
   0.18300000E+01           0.33587857E+00
   0.18400000E+01           0.40252417E+00
   0.18500000E+01           0.48191363E+00
   0.18600000E+01           0.57711483E+00
   0.18700000E+01           0.69182590E+00
   0.18800000E+01           0.82820797E+00
   0.18900000E+01           0.99231390E+00
   0.19000000E+01           0.11892932E+01
   0.19100000E+01           0.14234585E+01
   0.19200000E+01           0.17039624E+01
   0.19300000E+01           0.20431713E+01
   0.19400000E+01           0.24466393E+01
   0.19500000E+01           0.29317256E+01
   0.19600000E+01           0.35127510E+01
   0.19700000E+01           0.42064810E+01
   0.19800000E+01           0.50394640E+01
   0.19900000E+01           0.60393771E+01
   0.20000000E+01           0.34556958E+01
 #T=     3.0000
  -0.20000000E+01           0.00000000E+00
  -0.19900000E+01           0.00000000E+00
  -0.19800000E+01           0.00000000E+00
  -0.19700000E+01           0.00000000E+00
  -0.19600000E+01           0.00000000E+00
  -0.19500000E+01           0.00000000E+00
  -0.19400000E+01           0.00000000E+00
  -0.19300000E+01           0.00000000E+00
  -0.19200000E+01           0.00000000E+00
  -0.19100000E+01           0.00000000E+00
  -0.19000000E+01           0.00000000E+00
  -0.18900000E+01           0.00000000E+00
  -0.18800000E+01           0.00000000E+00
  -0.18700000E+01           0.00000000E+00
  -0.18600000E+01           0.00000000E+00
  -0.18500000E+01           0.00000000E+00
  -0.18400000E+01           0.00000000E+00
  -0.18300000E+01           0.00000000E+00
  -0.18200000E+01           0.00000000E+00
  -0.18100000E+01           0.00000000E+00
  -0.18000000E+01           0.00000000E+00
  -0.17900000E+01           0.00000000E+00
  -0.17800000E+01           0.00000000E+00
  -0.17700000E+01           0.00000000E+00
  -0.17600000E+01           0.00000000E+00
  -0.17500000E+01           0.00000000E+00
  -0.17400000E+01           0.00000000E+00
  -0.17300000E+01           0.00000000E+00
  -0.17200000E+01           0.00000000E+00
  -0.17100000E+01           0.00000000E+00
  -0.17000000E+01           0.00000000E+00
  -0.16900000E+01           0.00000000E+00
  -0.16800000E+01           0.00000000E+00
  -0.16700000E+01           0.00000000E+00
  -0.16600000E+01           0.00000000E+00
  -0.16500000E+01           0.00000000E+00
  -0.16400000E+01           0.00000000E+00
  -0.16300000E+01           0.00000000E+00
  -0.16200000E+01           0.00000000E+00
  -0.16100000E+01           0.00000000E+00
  -0.16000000E+01           0.00000000E+00
  -0.15900000E+01           0.00000000E+00
  -0.15800000E+01           0.00000000E+00
  -0.15700000E+01           0.00000000E+00
  -0.15600000E+01           0.00000000E+00
  -0.15500000E+01           0.00000000E+00
  -0.15400000E+01           0.00000000E+00
  -0.15300000E+01           0.00000000E+00
  -0.15200000E+01           0.00000000E+00
  -0.15100000E+01           0.00000000E+00
  -0.15000000E+01           0.00000000E+00
  -0.14900000E+01           0.00000000E+00
  -0.14800000E+01           0.00000000E+00
  -0.14700000E+01           0.00000000E+00
  -0.14600000E+01           0.00000000E+00
  -0.14500000E+01           0.00000000E+00
  -0.14400000E+01           0.00000000E+00
  -0.14300000E+01           0.00000000E+00
  -0.14200000E+01           0.00000000E+00
  -0.14100000E+01           0.00000000E+00
  -0.14000000E+01           0.00000000E+00
  -0.13900000E+01           0.00000000E+00
  -0.13800000E+01           0.00000000E+00
  -0.13700000E+01           0.00000000E+00
  -0.13600000E+01           0.00000000E+00
  -0.13500000E+01           0.00000000E+00
  -0.13400000E+01           0.00000000E+00
  -0.13300000E+01           0.00000000E+00
  -0.13200000E+01           0.00000000E+00
  -0.13100000E+01           0.00000000E+00
  -0.13000000E+01           0.00000000E+00
  -0.12900000E+01           0.00000000E+00
  -0.12800000E+01           0.00000000E+00
  -0.12700000E+01           0.00000000E+00
  -0.12600000E+01           0.00000000E+00
  -0.12500000E+01           0.00000000E+00
  -0.12400000E+01           0.00000000E+00
  -0.12300000E+01           0.00000000E+00
  -0.12200000E+01           0.00000000E+00
  -0.12100000E+01           0.00000000E+00
  -0.12000000E+01           0.00000000E+00
  -0.11900000E+01           0.00000000E+00
  -0.11800000E+01           0.00000000E+00
  -0.11700000E+01           0.00000000E+00
  -0.11600000E+01           0.00000000E+00
  -0.11500000E+01           0.00000000E+00
  -0.11400000E+01           0.00000000E+00
  -0.11300000E+01           0.00000000E+00
  -0.11200000E+01           0.00000000E+00
  -0.11100000E+01           0.00000000E+00
  -0.11000000E+01           0.00000000E+00
  -0.10900000E+01           0.00000000E+00
  -0.10800000E+01           0.00000000E+00
  -0.10700000E+01           0.00000000E+00
  -0.10600000E+01           0.00000000E+00
  -0.10500000E+01           0.00000000E+00
  -0.10400000E+01           0.00000000E+00
  -0.10300000E+01           0.00000000E+00
  -0.10200000E+01           0.00000000E+00
  -0.10100000E+01           0.00000000E+00
  -0.10000000E+01           0.00000000E+00
  -0.99000000E+00           0.00000000E+00
  -0.98000000E+00           0.00000000E+00
  -0.97000000E+00           0.00000000E+00
  -0.96000000E+00           0.00000000E+00
  -0.95000000E+00           0.00000000E+00
  -0.94000000E+00           0.00000000E+00
  -0.93000000E+00           0.00000000E+00
  -0.92000000E+00           0.00000000E+00
  -0.91000000E+00           0.00000000E+00
  -0.90000000E+00           0.00000000E+00
  -0.89000000E+00           0.00000000E+00
  -0.88000000E+00           0.00000000E+00
  -0.87000000E+00           0.00000000E+00
  -0.86000000E+00           0.00000000E+00
  -0.85000000E+00           0.00000000E+00
  -0.84000000E+00           0.00000000E+00
  -0.83000000E+00           0.00000000E+00
  -0.82000000E+00           0.00000000E+00
  -0.81000000E+00           0.00000000E+00
  -0.80000000E+00           0.00000000E+00
  -0.79000000E+00           0.00000000E+00
  -0.78000000E+00           0.00000000E+00
  -0.77000000E+00           0.00000000E+00
  -0.76000000E+00           0.00000000E+00
  -0.75000000E+00           0.00000000E+00
  -0.74000000E+00           0.00000000E+00
  -0.73000000E+00           0.00000000E+00
  -0.72000000E+00           0.00000000E+00
  -0.71000000E+00           0.00000000E+00
  -0.70000000E+00           0.00000000E+00
  -0.69000000E+00           0.00000000E+00
  -0.68000000E+00           0.00000000E+00
  -0.67000000E+00           0.00000000E+00
  -0.66000000E+00           0.00000000E+00
  -0.65000000E+00           0.00000000E+00
  -0.64000000E+00           0.00000000E+00
  -0.63000000E+00           0.00000000E+00
  -0.62000000E+00           0.00000000E+00
  -0.61000000E+00           0.00000000E+00
  -0.60000000E+00           0.00000000E+00
  -0.59000000E+00           0.00000000E+00
  -0.58000000E+00           0.00000000E+00
  -0.57000000E+00           0.00000000E+00
  -0.56000000E+00           0.00000000E+00
  -0.55000000E+00           0.00000000E+00
  -0.54000000E+00           0.00000000E+00
  -0.53000000E+00           0.00000000E+00
  -0.52000000E+00           0.00000000E+00
  -0.51000000E+00           0.00000000E+00
  -0.50000000E+00           0.00000000E+00
  -0.49000000E+00           0.00000000E+00
  -0.48000000E+00           0.00000000E+00
  -0.47000000E+00           0.00000000E+00
  -0.46000000E+00           0.00000000E+00
  -0.45000000E+00           0.00000000E+00
  -0.44000000E+00           0.00000000E+00
  -0.43000000E+00           0.00000000E+00
  -0.42000000E+00           0.00000000E+00
  -0.41000000E+00           0.00000000E+00
  -0.40000000E+00           0.00000000E+00
  -0.39000000E+00           0.00000000E+00
  -0.38000000E+00           0.00000000E+00
  -0.37000000E+00           0.00000000E+00
  -0.36000000E+00           0.00000000E+00
  -0.35000000E+00           0.00000000E+00
  -0.34000000E+00           0.00000000E+00
  -0.33000000E+00           0.00000000E+00
  -0.32000000E+00           0.00000000E+00
  -0.31000000E+00           0.00000000E+00
  -0.30000000E+00           0.00000000E+00
  -0.29000000E+00           0.00000000E+00
  -0.28000000E+00           0.00000000E+00
  -0.27000000E+00           0.00000000E+00
  -0.26000000E+00           0.00000000E+00
  -0.25000000E+00           0.00000000E+00
  -0.24000000E+00           0.00000000E+00
  -0.23000000E+00           0.00000000E+00
  -0.22000000E+00           0.00000000E+00
  -0.21000000E+00           0.00000000E+00
  -0.20000000E+00           0.00000000E+00
  -0.19000000E+00           0.00000000E+00
  -0.18000000E+00           0.00000000E+00
  -0.17000000E+00           0.00000000E+00
  -0.16000000E+00           0.00000000E+00
  -0.15000000E+00           0.00000000E+00
  -0.14000000E+00           0.00000000E+00
  -0.13000000E+00           0.00000000E+00
  -0.12000000E+00           0.00000000E+00
  -0.11000000E+00           0.00000000E+00
  -0.10000000E+00           0.00000000E+00
  -0.90000000E-01           0.00000000E+00
  -0.80000000E-01           0.00000000E+00
  -0.70000000E-01           0.00000000E+00
  -0.60000000E-01           0.00000000E+00
  -0.50000000E-01           0.00000000E+00
  -0.40000000E-01           0.00000000E+00
  -0.30000000E-01           0.00000000E+00
  -0.20000000E-01           0.00000000E+00
  -0.10000000E-01           0.00000000E+00
   0.00000000E+00           0.33236333E-02
   0.10000000E-01           0.26302000E-01
   0.20000000E-01           0.52637567E-01
   0.30000000E-01           0.78957300E-01
   0.40000000E-01           0.10460593E+00
   0.50000000E-01           0.13071243E+00
   0.60000000E-01           0.15657397E+00
   0.70000000E-01           0.18170140E+00
   0.80000000E-01           0.20719787E+00
   0.90000000E-01           0.23169643E+00
   0.10000000E+00           0.25654000E+00
   0.11000000E+00           0.28010923E+00
   0.12000000E+00           0.30373263E+00
   0.13000000E+00           0.32663310E+00
   0.14000000E+00           0.34931313E+00
   0.15000000E+00           0.37148053E+00
   0.16000000E+00           0.39229480E+00
   0.17000000E+00           0.41369607E+00
   0.18000000E+00           0.43302650E+00
   0.19000000E+00           0.45261590E+00
   0.20000000E+00           0.47138320E+00
   0.21000000E+00           0.48919367E+00
   0.22000000E+00           0.50622900E+00
   0.23000000E+00           0.52289963E+00
   0.24000000E+00           0.53847387E+00
   0.25000000E+00           0.55280997E+00
   0.26000000E+00           0.56728043E+00
   0.27000000E+00           0.58020790E+00
   0.28000000E+00           0.59161633E+00
   0.29000000E+00           0.60363380E+00
   0.30000000E+00           0.61331517E+00
   0.31000000E+00           0.62344167E+00
   0.32000000E+00           0.63242233E+00
   0.33000000E+00           0.64015187E+00
   0.34000000E+00           0.64711523E+00
   0.35000000E+00           0.65363020E+00
   0.36000000E+00           0.65843063E+00
   0.37000000E+00           0.66263753E+00
   0.38000000E+00           0.66596467E+00
   0.39000000E+00           0.66844850E+00
   0.40000000E+00           0.67056697E+00
   0.41000000E+00           0.67226523E+00
   0.42000000E+00           0.67206567E+00
   0.43000000E+00           0.67110723E+00
   0.44000000E+00           0.67034807E+00
   0.45000000E+00           0.66910763E+00
   0.46000000E+00           0.66456247E+00
   0.47000000E+00           0.66194013E+00
   0.48000000E+00           0.65787793E+00
   0.49000000E+00           0.65290700E+00
   0.50000000E+00           0.64697417E+00
   0.51000000E+00           0.64133867E+00
   0.52000000E+00           0.63472083E+00
   0.53000000E+00           0.62767200E+00
   0.54000000E+00           0.61957883E+00
   0.55000000E+00           0.61196777E+00
   0.56000000E+00           0.60287393E+00
   0.57000000E+00           0.59365057E+00
   0.58000000E+00           0.58389830E+00
   0.59000000E+00           0.57433530E+00
   0.60000000E+00           0.56391563E+00
   0.61000000E+00           0.55357627E+00
   0.62000000E+00           0.54283937E+00
   0.63000000E+00           0.53142587E+00
   0.64000000E+00           0.52047103E+00
   0.65000000E+00           0.50818533E+00
   0.66000000E+00           0.49607737E+00
   0.67000000E+00           0.48427843E+00
   0.68000000E+00           0.47242300E+00
   0.69000000E+00           0.46012473E+00
   0.70000000E+00           0.44782630E+00
   0.71000000E+00           0.43570943E+00
   0.72000000E+00           0.42345667E+00
   0.73000000E+00           0.41109193E+00
   0.74000000E+00           0.39831813E+00
   0.75000000E+00           0.38656143E+00
   0.76000000E+00           0.37424147E+00
   0.77000000E+00           0.36127060E+00
   0.78000000E+00           0.34949770E+00
   0.79000000E+00           0.33726740E+00
   0.80000000E+00           0.32575623E+00
   0.81000000E+00           0.31397973E+00
   0.82000000E+00           0.30189687E+00
   0.83000000E+00           0.29075937E+00
   0.84000000E+00           0.27966687E+00
   0.85000000E+00           0.26823573E+00
   0.86000000E+00           0.25748453E+00
   0.87000000E+00           0.24685963E+00
   0.88000000E+00           0.23673240E+00
   0.89000000E+00           0.22645257E+00
   0.90000000E+00           0.21664977E+00
   0.91000000E+00           0.20693357E+00
   0.92000000E+00           0.19750057E+00
   0.93000000E+00           0.18841613E+00
   0.94000000E+00           0.17920760E+00
   0.95000000E+00           0.17051327E+00
   0.96000000E+00           0.16233187E+00
   0.97000000E+00           0.15412837E+00
   0.98000000E+00           0.14612743E+00
   0.99000000E+00           0.13873530E+00
   0.10000000E+01           0.13148163E+00
   0.10100000E+01           0.12429600E+00
   0.10200000E+01           0.11773610E+00
   0.10300000E+01           0.11109060E+00
   0.10400000E+01           0.10503283E+00
   0.10500000E+01           0.98712167E-01
   0.10600000E+01           0.93105767E-01
   0.10700000E+01           0.87631367E-01
   0.10800000E+01           0.82363967E-01
   0.10900000E+01           0.77274467E-01
   0.11000000E+01           0.72567233E-01
   0.11100000E+01           0.67983200E-01
   0.11200000E+01           0.63630367E-01
   0.11300000E+01           0.59483333E-01
   0.11400000E+01           0.55661733E-01
   0.11500000E+01           0.51932500E-01
   0.11600000E+01           0.48528167E-01
   0.11700000E+01           0.45195667E-01
   0.11800000E+01           0.42013800E-01
   0.11900000E+01           0.39114000E-01
   0.12000000E+01           0.36385833E-01
   0.12100000E+01           0.33835733E-01
   0.12200000E+01           0.31424300E-01
   0.12300000E+01           0.29074500E-01
   0.12400000E+01           0.27004933E-01
   0.12500000E+01           0.25032600E-01
   0.12600000E+01           0.23273100E-01
   0.12700000E+01           0.21626333E-01
   0.12800000E+01           0.20098333E-01
   0.12900000E+01           0.18662967E-01
   0.13000000E+01           0.17335267E-01
   0.13100000E+01           0.16255933E-01
   0.13200000E+01           0.15246933E-01
   0.13300000E+01           0.14365967E-01
   0.13400000E+01           0.13529900E-01
   0.13500000E+01           0.12851800E-01
   0.13600000E+01           0.12344500E-01
   0.13700000E+01           0.11999367E-01
   0.13800000E+01           0.11693000E-01
   0.13900000E+01           0.11518133E-01
   0.14000000E+01           0.11521700E-01
   0.14100000E+01           0.11566267E-01
   0.14200000E+01           0.11748500E-01
   0.14300000E+01           0.12149233E-01
   0.14400000E+01           0.12662800E-01
   0.14500000E+01           0.13356967E-01
   0.14600000E+01           0.14216067E-01
   0.14700000E+01           0.15342167E-01
   0.14800000E+01           0.16594033E-01
   0.14900000E+01           0.17927833E-01
   0.15000000E+01           0.19816233E-01
   0.15100000E+01           0.21834233E-01
   0.15200000E+01           0.24163133E-01
   0.15300000E+01           0.26848867E-01
   0.15400000E+01           0.29879033E-01
   0.15500000E+01           0.33260167E-01
   0.15600000E+01           0.37293267E-01
   0.15700000E+01           0.41845133E-01
   0.15800000E+01           0.46903467E-01
   0.15900000E+01           0.52522300E-01
   0.16000000E+01           0.59107100E-01
   0.16100000E+01           0.66449233E-01
   0.16200000E+01           0.74462333E-01
   0.16300000E+01           0.83805833E-01
   0.16400000E+01           0.94173733E-01
   0.16500000E+01           0.10604863E+00
   0.16600000E+01           0.11888960E+00
   0.16700000E+01           0.13412570E+00
   0.16800000E+01           0.15084503E+00
   0.16900000E+01           0.16970423E+00
   0.17000000E+01           0.19072550E+00
   0.17100000E+01           0.21466413E+00
   0.17200000E+01           0.24138600E+00
   0.17300000E+01           0.27116320E+00
   0.17400000E+01           0.30563603E+00
   0.17500000E+01           0.34383453E+00
   0.17600000E+01           0.38664103E+00
   0.17700000E+01           0.43481020E+00
   0.17800000E+01           0.48941377E+00
   0.17900000E+01           0.55036467E+00
   0.18000000E+01           0.61905467E+00
   0.18100000E+01           0.69611330E+00
   0.18200000E+01           0.78205960E+00
   0.18300000E+01           0.88043860E+00
   0.18400000E+01           0.99047813E+00
   0.18500000E+01           0.11127966E+01
   0.18600000E+01           0.12514091E+01
   0.18700000E+01           0.14070155E+01
   0.18800000E+01           0.15820547E+01
   0.18900000E+01           0.17777352E+01
   0.19000000E+01           0.20002556E+01
   0.19100000E+01           0.22482867E+01
   0.19200000E+01           0.25285840E+01
   0.19300000E+01           0.28414405E+01
   0.19400000E+01           0.31960351E+01
   0.19500000E+01           0.35934406E+01
   0.19600000E+01           0.40370384E+01
   0.19700000E+01           0.45412416E+01
   0.19800000E+01           0.51025720E+01
   0.19900000E+01           0.57356731E+01
   0.20000000E+01           0.31310600E+01
 #T=     4.0000
  -0.20000000E+01           0.00000000E+00
  -0.19900000E+01           0.00000000E+00
  -0.19800000E+01           0.00000000E+00
  -0.19700000E+01           0.00000000E+00
  -0.19600000E+01           0.00000000E+00
  -0.19500000E+01           0.00000000E+00
  -0.19400000E+01           0.00000000E+00
  -0.19300000E+01           0.00000000E+00
  -0.19200000E+01           0.00000000E+00
  -0.19100000E+01           0.00000000E+00
  -0.19000000E+01           0.00000000E+00
  -0.18900000E+01           0.00000000E+00
  -0.18800000E+01           0.00000000E+00
  -0.18700000E+01           0.00000000E+00
  -0.18600000E+01           0.00000000E+00
  -0.18500000E+01           0.00000000E+00
  -0.18400000E+01           0.00000000E+00
  -0.18300000E+01           0.00000000E+00
  -0.18200000E+01           0.00000000E+00
  -0.18100000E+01           0.00000000E+00
  -0.18000000E+01           0.00000000E+00
  -0.17900000E+01           0.00000000E+00
  -0.17800000E+01           0.00000000E+00
  -0.17700000E+01           0.00000000E+00
  -0.17600000E+01           0.00000000E+00
  -0.17500000E+01           0.00000000E+00
  -0.17400000E+01           0.00000000E+00
  -0.17300000E+01           0.00000000E+00
  -0.17200000E+01           0.00000000E+00
  -0.17100000E+01           0.00000000E+00
  -0.17000000E+01           0.00000000E+00
  -0.16900000E+01           0.00000000E+00
  -0.16800000E+01           0.00000000E+00
  -0.16700000E+01           0.00000000E+00
  -0.16600000E+01           0.00000000E+00
  -0.16500000E+01           0.00000000E+00
  -0.16400000E+01           0.00000000E+00
  -0.16300000E+01           0.00000000E+00
  -0.16200000E+01           0.00000000E+00
  -0.16100000E+01           0.00000000E+00
  -0.16000000E+01           0.00000000E+00
  -0.15900000E+01           0.00000000E+00
  -0.15800000E+01           0.00000000E+00
  -0.15700000E+01           0.00000000E+00
  -0.15600000E+01           0.00000000E+00
  -0.15500000E+01           0.00000000E+00
  -0.15400000E+01           0.00000000E+00
  -0.15300000E+01           0.00000000E+00
  -0.15200000E+01           0.00000000E+00
  -0.15100000E+01           0.00000000E+00
  -0.15000000E+01           0.00000000E+00
  -0.14900000E+01           0.00000000E+00
  -0.14800000E+01           0.00000000E+00
  -0.14700000E+01           0.00000000E+00
  -0.14600000E+01           0.00000000E+00
  -0.14500000E+01           0.00000000E+00
  -0.14400000E+01           0.00000000E+00
  -0.14300000E+01           0.00000000E+00
  -0.14200000E+01           0.00000000E+00
  -0.14100000E+01           0.00000000E+00
  -0.14000000E+01           0.00000000E+00
  -0.13900000E+01           0.00000000E+00
  -0.13800000E+01           0.00000000E+00
  -0.13700000E+01           0.00000000E+00
  -0.13600000E+01           0.00000000E+00
  -0.13500000E+01           0.00000000E+00
  -0.13400000E+01           0.00000000E+00
  -0.13300000E+01           0.00000000E+00
  -0.13200000E+01           0.00000000E+00
  -0.13100000E+01           0.00000000E+00
  -0.13000000E+01           0.00000000E+00
  -0.12900000E+01           0.00000000E+00
  -0.12800000E+01           0.00000000E+00
  -0.12700000E+01           0.00000000E+00
  -0.12600000E+01           0.00000000E+00
  -0.12500000E+01           0.00000000E+00
  -0.12400000E+01           0.00000000E+00
  -0.12300000E+01           0.00000000E+00
  -0.12200000E+01           0.00000000E+00
  -0.12100000E+01           0.00000000E+00
  -0.12000000E+01           0.00000000E+00
  -0.11900000E+01           0.00000000E+00
  -0.11800000E+01           0.00000000E+00
  -0.11700000E+01           0.00000000E+00
  -0.11600000E+01           0.00000000E+00
  -0.11500000E+01           0.00000000E+00
  -0.11400000E+01           0.00000000E+00
  -0.11300000E+01           0.00000000E+00
  -0.11200000E+01           0.00000000E+00
  -0.11100000E+01           0.00000000E+00
  -0.11000000E+01           0.00000000E+00
  -0.10900000E+01           0.00000000E+00
  -0.10800000E+01           0.00000000E+00
  -0.10700000E+01           0.00000000E+00
  -0.10600000E+01           0.00000000E+00
  -0.10500000E+01           0.00000000E+00
  -0.10400000E+01           0.00000000E+00
  -0.10300000E+01           0.00000000E+00
  -0.10200000E+01           0.00000000E+00
  -0.10100000E+01           0.00000000E+00
  -0.10000000E+01           0.00000000E+00
  -0.99000000E+00           0.00000000E+00
  -0.98000000E+00           0.00000000E+00
  -0.97000000E+00           0.00000000E+00
  -0.96000000E+00           0.00000000E+00
  -0.95000000E+00           0.00000000E+00
  -0.94000000E+00           0.00000000E+00
  -0.93000000E+00           0.00000000E+00
  -0.92000000E+00           0.00000000E+00
  -0.91000000E+00           0.00000000E+00
  -0.90000000E+00           0.00000000E+00
  -0.89000000E+00           0.00000000E+00
  -0.88000000E+00           0.00000000E+00
  -0.87000000E+00           0.00000000E+00
  -0.86000000E+00           0.00000000E+00
  -0.85000000E+00           0.00000000E+00
  -0.84000000E+00           0.00000000E+00
  -0.83000000E+00           0.00000000E+00
  -0.82000000E+00           0.00000000E+00
  -0.81000000E+00           0.00000000E+00
  -0.80000000E+00           0.00000000E+00
  -0.79000000E+00           0.00000000E+00
  -0.78000000E+00           0.00000000E+00
  -0.77000000E+00           0.00000000E+00
  -0.76000000E+00           0.00000000E+00
  -0.75000000E+00           0.00000000E+00
  -0.74000000E+00           0.00000000E+00
  -0.73000000E+00           0.00000000E+00
  -0.72000000E+00           0.00000000E+00
  -0.71000000E+00           0.00000000E+00
  -0.70000000E+00           0.00000000E+00
  -0.69000000E+00           0.00000000E+00
  -0.68000000E+00           0.00000000E+00
  -0.67000000E+00           0.00000000E+00
  -0.66000000E+00           0.00000000E+00
  -0.65000000E+00           0.00000000E+00
  -0.64000000E+00           0.00000000E+00
  -0.63000000E+00           0.00000000E+00
  -0.62000000E+00           0.00000000E+00
  -0.61000000E+00           0.00000000E+00
  -0.60000000E+00           0.00000000E+00
  -0.59000000E+00           0.00000000E+00
  -0.58000000E+00           0.00000000E+00
  -0.57000000E+00           0.00000000E+00
  -0.56000000E+00           0.00000000E+00
  -0.55000000E+00           0.00000000E+00
  -0.54000000E+00           0.00000000E+00
  -0.53000000E+00           0.00000000E+00
  -0.52000000E+00           0.00000000E+00
  -0.51000000E+00           0.00000000E+00
  -0.50000000E+00           0.00000000E+00
  -0.49000000E+00           0.00000000E+00
  -0.48000000E+00           0.00000000E+00
  -0.47000000E+00           0.00000000E+00
  -0.46000000E+00           0.00000000E+00
  -0.45000000E+00           0.00000000E+00
  -0.44000000E+00           0.00000000E+00
  -0.43000000E+00           0.00000000E+00
  -0.42000000E+00           0.00000000E+00
  -0.41000000E+00           0.00000000E+00
  -0.40000000E+00           0.00000000E+00
  -0.39000000E+00           0.00000000E+00
  -0.38000000E+00           0.00000000E+00
  -0.37000000E+00           0.00000000E+00
  -0.36000000E+00           0.00000000E+00
  -0.35000000E+00           0.00000000E+00
  -0.34000000E+00           0.00000000E+00
  -0.33000000E+00           0.00000000E+00
  -0.32000000E+00           0.00000000E+00
  -0.31000000E+00           0.00000000E+00
  -0.30000000E+00           0.00000000E+00
  -0.29000000E+00           0.00000000E+00
  -0.28000000E+00           0.00000000E+00
  -0.27000000E+00           0.00000000E+00
  -0.26000000E+00           0.00000000E+00
  -0.25000000E+00           0.00000000E+00
  -0.24000000E+00           0.00000000E+00
  -0.23000000E+00           0.00000000E+00
  -0.22000000E+00           0.00000000E+00
  -0.21000000E+00           0.00000000E+00
  -0.20000000E+00           0.00000000E+00
  -0.19000000E+00           0.00000000E+00
  -0.18000000E+00           0.00000000E+00
  -0.17000000E+00           0.00000000E+00
  -0.16000000E+00           0.00000000E+00
  -0.15000000E+00           0.00000000E+00
  -0.14000000E+00           0.00000000E+00
  -0.13000000E+00           0.00000000E+00
  -0.12000000E+00           0.00000000E+00
  -0.11000000E+00           0.00000000E+00
  -0.10000000E+00           0.00000000E+00
  -0.90000000E-01           0.00000000E+00
  -0.80000000E-01           0.00000000E+00
  -0.70000000E-01           0.00000000E+00
  -0.60000000E-01           0.00000000E+00
  -0.50000000E-01           0.00000000E+00
  -0.40000000E-01           0.00000000E+00
  -0.30000000E-01           0.00000000E+00
  -0.20000000E-01           0.00000000E+00
  -0.10000000E-01           0.00000000E+00
   0.00000000E+00           0.34602333E-02
   0.10000000E-01           0.27676867E-01
   0.20000000E-01           0.55402633E-01
   0.30000000E-01           0.82939567E-01
   0.40000000E-01           0.11038017E+00
   0.50000000E-01           0.13755183E+00
   0.60000000E-01           0.16483197E+00
   0.70000000E-01           0.19181163E+00
   0.80000000E-01           0.21861987E+00
   0.90000000E-01           0.24531563E+00
   0.10000000E+00           0.27145057E+00
   0.11000000E+00           0.29736693E+00
   0.12000000E+00           0.32250027E+00
   0.13000000E+00           0.34778713E+00
   0.14000000E+00           0.37243707E+00
   0.15000000E+00           0.39696680E+00
   0.16000000E+00           0.42061980E+00
   0.17000000E+00           0.44392153E+00
   0.18000000E+00           0.46660117E+00
   0.19000000E+00           0.48914830E+00
   0.20000000E+00           0.51046677E+00
   0.21000000E+00           0.53182650E+00
   0.22000000E+00           0.55261517E+00
   0.23000000E+00           0.57287267E+00
   0.24000000E+00           0.59129097E+00
   0.25000000E+00           0.60984660E+00
   0.26000000E+00           0.62828653E+00
   0.27000000E+00           0.64559047E+00
   0.28000000E+00           0.66201630E+00
   0.29000000E+00           0.67761703E+00
   0.30000000E+00           0.69276407E+00
   0.31000000E+00           0.70743247E+00
   0.32000000E+00           0.72092463E+00
   0.33000000E+00           0.73377403E+00
   0.34000000E+00           0.74581960E+00
   0.35000000E+00           0.75726333E+00
   0.36000000E+00           0.76778243E+00
   0.37000000E+00           0.77715770E+00
   0.38000000E+00           0.78655653E+00
   0.39000000E+00           0.79503720E+00
   0.40000000E+00           0.80167330E+00
   0.41000000E+00           0.80905580E+00
   0.42000000E+00           0.81416810E+00
   0.43000000E+00           0.81976853E+00
   0.44000000E+00           0.82343183E+00
   0.45000000E+00           0.82708667E+00
   0.46000000E+00           0.82982490E+00
   0.47000000E+00           0.83207280E+00
   0.48000000E+00           0.83295500E+00
   0.49000000E+00           0.83426763E+00
   0.50000000E+00           0.83378820E+00
   0.51000000E+00           0.83223150E+00
   0.52000000E+00           0.83064640E+00
   0.53000000E+00           0.82857753E+00
   0.54000000E+00           0.82602137E+00
   0.55000000E+00           0.82295993E+00
   0.56000000E+00           0.81840680E+00
   0.57000000E+00           0.81376943E+00
   0.58000000E+00           0.80871573E+00
   0.59000000E+00           0.80289633E+00
   0.60000000E+00           0.79583150E+00
   0.61000000E+00           0.78917717E+00
   0.62000000E+00           0.78212633E+00
   0.63000000E+00           0.77436670E+00
   0.64000000E+00           0.76561390E+00
   0.65000000E+00           0.75695577E+00
   0.66000000E+00           0.74772070E+00
   0.67000000E+00           0.73720103E+00
   0.68000000E+00           0.72726073E+00
   0.69000000E+00           0.71692187E+00
   0.70000000E+00           0.70601880E+00
   0.71000000E+00           0.69500473E+00
   0.72000000E+00           0.68332690E+00
   0.73000000E+00           0.67221340E+00
   0.74000000E+00           0.65970750E+00
   0.75000000E+00           0.64826253E+00
   0.76000000E+00           0.63580343E+00
   0.77000000E+00           0.62282747E+00
   0.78000000E+00           0.61028097E+00
   0.79000000E+00           0.59733810E+00
   0.80000000E+00           0.58451963E+00
   0.81000000E+00           0.57125093E+00
   0.82000000E+00           0.55822120E+00
   0.83000000E+00           0.54551673E+00
   0.84000000E+00           0.53157050E+00
   0.85000000E+00           0.51856230E+00
   0.86000000E+00           0.50527820E+00
   0.87000000E+00           0.49188797E+00
   0.88000000E+00           0.47817437E+00
   0.89000000E+00           0.46498487E+00
   0.90000000E+00           0.45219893E+00
   0.91000000E+00           0.43865813E+00
   0.92000000E+00           0.42572687E+00
   0.93000000E+00           0.41300260E+00
   0.94000000E+00           0.40020540E+00
   0.95000000E+00           0.38788527E+00
   0.96000000E+00           0.37507607E+00
   0.97000000E+00           0.36266913E+00
   0.98000000E+00           0.35065780E+00
   0.99000000E+00           0.33828853E+00
   0.10000000E+01           0.32678083E+00
   0.10100000E+01           0.31509743E+00
   0.10200000E+01           0.30346910E+00
   0.10300000E+01           0.29229980E+00
   0.10400000E+01           0.28148163E+00
   0.10500000E+01           0.27068530E+00
   0.10600000E+01           0.26009780E+00
   0.10700000E+01           0.24957200E+00
   0.10800000E+01           0.23958323E+00
   0.10900000E+01           0.22974207E+00
   0.11000000E+01           0.22032513E+00
   0.11100000E+01           0.21123940E+00
   0.11200000E+01           0.20199600E+00
   0.11300000E+01           0.19282127E+00
   0.11400000E+01           0.18469233E+00
   0.11500000E+01           0.17634800E+00
   0.11600000E+01           0.16824950E+00
   0.11700000E+01           0.16070513E+00
   0.11800000E+01           0.15301460E+00
   0.11900000E+01           0.14595713E+00
   0.12000000E+01           0.13900950E+00
   0.12100000E+01           0.13232523E+00
   0.12200000E+01           0.12612863E+00
   0.12300000E+01           0.11980260E+00
   0.12400000E+01           0.11407143E+00
   0.12500000E+01           0.10851720E+00
   0.12600000E+01           0.10324043E+00
   0.12700000E+01           0.98287033E-01
   0.12800000E+01           0.93430600E-01
   0.12900000E+01           0.89036667E-01
   0.13000000E+01           0.84757100E-01
   0.13100000E+01           0.80721500E-01
   0.13200000E+01           0.77015833E-01
   0.13300000E+01           0.73577800E-01
   0.13400000E+01           0.70492367E-01
   0.13500000E+01           0.67612367E-01
   0.13600000E+01           0.64892667E-01
   0.13700000E+01           0.62687267E-01
   0.13800000E+01           0.60430900E-01
   0.13900000E+01           0.58790800E-01
   0.14000000E+01           0.57356933E-01
   0.14100000E+01           0.56007067E-01
   0.14200000E+01           0.55074933E-01
   0.14300000E+01           0.54393000E-01
   0.14400000E+01           0.54129000E-01
   0.14500000E+01           0.54070633E-01
   0.14600000E+01           0.54587233E-01
   0.14700000E+01           0.55157333E-01
   0.14800000E+01           0.56292633E-01
   0.14900000E+01           0.57740400E-01
   0.15000000E+01           0.59611000E-01
   0.15100000E+01           0.61934000E-01
   0.15200000E+01           0.64264967E-01
   0.15300000E+01           0.67458967E-01
   0.15400000E+01           0.71039900E-01
   0.15500000E+01           0.75211333E-01
   0.15600000E+01           0.79848267E-01
   0.15700000E+01           0.85194800E-01
   0.15800000E+01           0.91072933E-01
   0.15900000E+01           0.97797467E-01
   0.16000000E+01           0.10508727E+00
   0.16100000E+01           0.11329140E+00
   0.16200000E+01           0.12210773E+00
   0.16300000E+01           0.13195497E+00
   0.16400000E+01           0.14288213E+00
   0.16500000E+01           0.15449763E+00
   0.16600000E+01           0.16777740E+00
   0.16700000E+01           0.18208987E+00
   0.16800000E+01           0.19775087E+00
   0.16900000E+01           0.21482097E+00
   0.17000000E+01           0.23346253E+00
   0.17100000E+01           0.25404777E+00
   0.17200000E+01           0.27626177E+00
   0.17300000E+01           0.30031697E+00
   0.17400000E+01           0.32666663E+00
   0.17500000E+01           0.35604647E+00
   0.17600000E+01           0.38764923E+00
   0.17700000E+01           0.42183700E+00
   0.17800000E+01           0.45936527E+00
   0.17900000E+01           0.50023160E+00
   0.18000000E+01           0.54470270E+00
   0.18100000E+01           0.59264343E+00
   0.18200000E+01           0.64578850E+00
   0.18300000E+01           0.70332007E+00
   0.18400000E+01           0.76553177E+00
   0.18500000E+01           0.83295673E+00
   0.18600000E+01           0.90753977E+00
   0.18700000E+01           0.98810653E+00
   0.18800000E+01           0.10755075E+01
   0.18900000E+01           0.11718122E+01
   0.19000000E+01           0.12750619E+01
   0.19100000E+01           0.13889253E+01
   0.19200000E+01           0.15121441E+01
   0.19300000E+01           0.16463620E+01
   0.19400000E+01           0.17915008E+01
   0.19500000E+01           0.19509800E+01
   0.19600000E+01           0.21228216E+01
   0.19700000E+01           0.23112844E+01
   0.19800000E+01           0.25152802E+01
   0.19900000E+01           0.27386375E+01
   0.20000000E+01           0.14593754E+01
 #T=     5.0000
  -0.20000000E+01           0.00000000E+00
  -0.19900000E+01           0.00000000E+00
  -0.19800000E+01           0.00000000E+00
  -0.19700000E+01           0.00000000E+00
  -0.19600000E+01           0.00000000E+00
  -0.19500000E+01           0.00000000E+00
  -0.19400000E+01           0.00000000E+00
  -0.19300000E+01           0.00000000E+00
  -0.19200000E+01           0.00000000E+00
  -0.19100000E+01           0.00000000E+00
  -0.19000000E+01           0.00000000E+00
  -0.18900000E+01           0.00000000E+00
  -0.18800000E+01           0.00000000E+00
  -0.18700000E+01           0.00000000E+00
  -0.18600000E+01           0.00000000E+00
  -0.18500000E+01           0.00000000E+00
  -0.18400000E+01           0.00000000E+00
  -0.18300000E+01           0.00000000E+00
  -0.18200000E+01           0.00000000E+00
  -0.18100000E+01           0.00000000E+00
  -0.18000000E+01           0.00000000E+00
  -0.17900000E+01           0.00000000E+00
  -0.17800000E+01           0.00000000E+00
  -0.17700000E+01           0.00000000E+00
  -0.17600000E+01           0.00000000E+00
  -0.17500000E+01           0.00000000E+00
  -0.17400000E+01           0.00000000E+00
  -0.17300000E+01           0.00000000E+00
  -0.17200000E+01           0.00000000E+00
  -0.17100000E+01           0.00000000E+00
  -0.17000000E+01           0.00000000E+00
  -0.16900000E+01           0.00000000E+00
  -0.16800000E+01           0.00000000E+00
  -0.16700000E+01           0.00000000E+00
  -0.16600000E+01           0.00000000E+00
  -0.16500000E+01           0.00000000E+00
  -0.16400000E+01           0.00000000E+00
  -0.16300000E+01           0.00000000E+00
  -0.16200000E+01           0.00000000E+00
  -0.16100000E+01           0.00000000E+00
  -0.16000000E+01           0.00000000E+00
  -0.15900000E+01           0.00000000E+00
  -0.15800000E+01           0.00000000E+00
  -0.15700000E+01           0.00000000E+00
  -0.15600000E+01           0.00000000E+00
  -0.15500000E+01           0.00000000E+00
  -0.15400000E+01           0.00000000E+00
  -0.15300000E+01           0.00000000E+00
  -0.15200000E+01           0.00000000E+00
  -0.15100000E+01           0.00000000E+00
  -0.15000000E+01           0.00000000E+00
  -0.14900000E+01           0.00000000E+00
  -0.14800000E+01           0.00000000E+00
  -0.14700000E+01           0.00000000E+00
  -0.14600000E+01           0.00000000E+00
  -0.14500000E+01           0.00000000E+00
  -0.14400000E+01           0.00000000E+00
  -0.14300000E+01           0.00000000E+00
  -0.14200000E+01           0.00000000E+00
  -0.14100000E+01           0.00000000E+00
  -0.14000000E+01           0.00000000E+00
  -0.13900000E+01           0.00000000E+00
  -0.13800000E+01           0.00000000E+00
  -0.13700000E+01           0.00000000E+00
  -0.13600000E+01           0.00000000E+00
  -0.13500000E+01           0.00000000E+00
  -0.13400000E+01           0.00000000E+00
  -0.13300000E+01           0.00000000E+00
  -0.13200000E+01           0.00000000E+00
  -0.13100000E+01           0.00000000E+00
  -0.13000000E+01           0.00000000E+00
  -0.12900000E+01           0.00000000E+00
  -0.12800000E+01           0.00000000E+00
  -0.12700000E+01           0.00000000E+00
  -0.12600000E+01           0.00000000E+00
  -0.12500000E+01           0.00000000E+00
  -0.12400000E+01           0.00000000E+00
  -0.12300000E+01           0.00000000E+00
  -0.12200000E+01           0.00000000E+00
  -0.12100000E+01           0.00000000E+00
  -0.12000000E+01           0.00000000E+00
  -0.11900000E+01           0.00000000E+00
  -0.11800000E+01           0.00000000E+00
  -0.11700000E+01           0.00000000E+00
  -0.11600000E+01           0.00000000E+00
  -0.11500000E+01           0.00000000E+00
  -0.11400000E+01           0.00000000E+00
  -0.11300000E+01           0.00000000E+00
  -0.11200000E+01           0.00000000E+00
  -0.11100000E+01           0.00000000E+00
  -0.11000000E+01           0.00000000E+00
  -0.10900000E+01           0.00000000E+00
  -0.10800000E+01           0.00000000E+00
  -0.10700000E+01           0.00000000E+00
  -0.10600000E+01           0.00000000E+00
  -0.10500000E+01           0.00000000E+00
  -0.10400000E+01           0.00000000E+00
  -0.10300000E+01           0.00000000E+00
  -0.10200000E+01           0.00000000E+00
  -0.10100000E+01           0.00000000E+00
  -0.10000000E+01           0.00000000E+00
  -0.99000000E+00           0.00000000E+00
  -0.98000000E+00           0.00000000E+00
  -0.97000000E+00           0.00000000E+00
  -0.96000000E+00           0.00000000E+00
  -0.95000000E+00           0.00000000E+00
  -0.94000000E+00           0.00000000E+00
  -0.93000000E+00           0.00000000E+00
  -0.92000000E+00           0.00000000E+00
  -0.91000000E+00           0.00000000E+00
  -0.90000000E+00           0.00000000E+00
  -0.89000000E+00           0.00000000E+00
  -0.88000000E+00           0.00000000E+00
  -0.87000000E+00           0.00000000E+00
  -0.86000000E+00           0.00000000E+00
  -0.85000000E+00           0.00000000E+00
  -0.84000000E+00           0.00000000E+00
  -0.83000000E+00           0.00000000E+00
  -0.82000000E+00           0.00000000E+00
  -0.81000000E+00           0.00000000E+00
  -0.80000000E+00           0.00000000E+00
  -0.79000000E+00           0.00000000E+00
  -0.78000000E+00           0.00000000E+00
  -0.77000000E+00           0.00000000E+00
  -0.76000000E+00           0.00000000E+00
  -0.75000000E+00           0.00000000E+00
  -0.74000000E+00           0.00000000E+00
  -0.73000000E+00           0.00000000E+00
  -0.72000000E+00           0.00000000E+00
  -0.71000000E+00           0.00000000E+00
  -0.70000000E+00           0.00000000E+00
  -0.69000000E+00           0.00000000E+00
  -0.68000000E+00           0.00000000E+00
  -0.67000000E+00           0.00000000E+00
  -0.66000000E+00           0.00000000E+00
  -0.65000000E+00           0.00000000E+00
  -0.64000000E+00           0.00000000E+00
  -0.63000000E+00           0.00000000E+00
  -0.62000000E+00           0.00000000E+00
  -0.61000000E+00           0.00000000E+00
  -0.60000000E+00           0.00000000E+00
  -0.59000000E+00           0.00000000E+00
  -0.58000000E+00           0.00000000E+00
  -0.57000000E+00           0.00000000E+00
  -0.56000000E+00           0.00000000E+00
  -0.55000000E+00           0.00000000E+00
  -0.54000000E+00           0.00000000E+00
  -0.53000000E+00           0.00000000E+00
  -0.52000000E+00           0.00000000E+00
  -0.51000000E+00           0.00000000E+00
  -0.50000000E+00           0.00000000E+00
  -0.49000000E+00           0.00000000E+00
  -0.48000000E+00           0.00000000E+00
  -0.47000000E+00           0.00000000E+00
  -0.46000000E+00           0.00000000E+00
  -0.45000000E+00           0.00000000E+00
  -0.44000000E+00           0.00000000E+00
  -0.43000000E+00           0.00000000E+00
  -0.42000000E+00           0.00000000E+00
  -0.41000000E+00           0.00000000E+00
  -0.40000000E+00           0.00000000E+00
  -0.39000000E+00           0.00000000E+00
  -0.38000000E+00           0.00000000E+00
  -0.37000000E+00           0.00000000E+00
  -0.36000000E+00           0.00000000E+00
  -0.35000000E+00           0.00000000E+00
  -0.34000000E+00           0.00000000E+00
  -0.33000000E+00           0.00000000E+00
  -0.32000000E+00           0.00000000E+00
  -0.31000000E+00           0.00000000E+00
  -0.30000000E+00           0.00000000E+00
  -0.29000000E+00           0.00000000E+00
  -0.28000000E+00           0.00000000E+00
  -0.27000000E+00           0.00000000E+00
  -0.26000000E+00           0.00000000E+00
  -0.25000000E+00           0.00000000E+00
  -0.24000000E+00           0.00000000E+00
  -0.23000000E+00           0.00000000E+00
  -0.22000000E+00           0.00000000E+00
  -0.21000000E+00           0.00000000E+00
  -0.20000000E+00           0.00000000E+00
  -0.19000000E+00           0.00000000E+00
  -0.18000000E+00           0.00000000E+00
  -0.17000000E+00           0.00000000E+00
  -0.16000000E+00           0.00000000E+00
  -0.15000000E+00           0.00000000E+00
  -0.14000000E+00           0.00000000E+00
  -0.13000000E+00           0.00000000E+00
  -0.12000000E+00           0.00000000E+00
  -0.11000000E+00           0.00000000E+00
  -0.10000000E+00           0.00000000E+00
  -0.90000000E-01           0.00000000E+00
  -0.80000000E-01           0.00000000E+00
  -0.70000000E-01           0.00000000E+00
  -0.60000000E-01           0.00000000E+00
  -0.50000000E-01           0.00000000E+00
  -0.40000000E-01           0.00000000E+00
  -0.30000000E-01           0.00000000E+00
  -0.20000000E-01           0.00000000E+00
  -0.10000000E-01           0.00000000E+00
   0.00000000E+00           0.14628333E-02
   0.10000000E-01           0.11504033E-01
   0.20000000E-01           0.23021067E-01
   0.30000000E-01           0.34577600E-01
   0.40000000E-01           0.45872833E-01
   0.50000000E-01           0.57397900E-01
   0.60000000E-01           0.68587000E-01
   0.70000000E-01           0.80013600E-01
   0.80000000E-01           0.91196000E-01
   0.90000000E-01           0.10225197E+00
   0.10000000E+00           0.11343977E+00
   0.11000000E+00           0.12408770E+00
   0.12000000E+00           0.13525840E+00
   0.13000000E+00           0.14574107E+00
   0.14000000E+00           0.15640167E+00
   0.15000000E+00           0.16678747E+00
   0.16000000E+00           0.17708090E+00
   0.17000000E+00           0.18744840E+00
   0.18000000E+00           0.19707300E+00
   0.19000000E+00           0.20680493E+00
   0.20000000E+00           0.21677570E+00
   0.21000000E+00           0.22601403E+00
   0.22000000E+00           0.23526017E+00
   0.23000000E+00           0.24434810E+00
   0.24000000E+00           0.25321673E+00
   0.25000000E+00           0.26171347E+00
   0.26000000E+00           0.26993930E+00
   0.27000000E+00           0.27802073E+00
   0.28000000E+00           0.28604340E+00
   0.29000000E+00           0.29381190E+00
   0.30000000E+00           0.30118750E+00
   0.31000000E+00           0.30852223E+00
   0.32000000E+00           0.31538630E+00
   0.33000000E+00           0.32181287E+00
   0.34000000E+00           0.32828173E+00
   0.35000000E+00           0.33411540E+00
   0.36000000E+00           0.34028560E+00
   0.37000000E+00           0.34526607E+00
   0.38000000E+00           0.35108063E+00
   0.39000000E+00           0.35611367E+00
   0.40000000E+00           0.36062530E+00
   0.41000000E+00           0.36509500E+00
   0.42000000E+00           0.36908387E+00
   0.43000000E+00           0.37308240E+00
   0.44000000E+00           0.37670300E+00
   0.45000000E+00           0.38001697E+00
   0.46000000E+00           0.38311387E+00
   0.47000000E+00           0.38582463E+00
   0.48000000E+00           0.38802297E+00
   0.49000000E+00           0.39048490E+00
[...]
   0.13800000E+01           0.69006063E+00
   0.13900000E+01           0.69469330E+00
   0.14000000E+01           0.69979450E+00
   0.14100000E+01           0.70499317E+00
   0.14200000E+01           0.70984527E+00
   0.14300000E+01           0.71468887E+00
   0.14400000E+01           0.71979867E+00
   0.14500000E+01           0.72510837E+00
   0.14600000E+01           0.72985110E+00
   0.14700000E+01           0.73492080E+00
   0.14800000E+01           0.73994690E+00
   0.14900000E+01           0.74487430E+00
   0.15000000E+01           0.74977410E+00
   0.15100000E+01           0.75465023E+00
   0.15200000E+01           0.75984797E+00
   0.15300000E+01           0.76482370E+00
   0.15400000E+01           0.76978727E+00
   0.15500000E+01           0.77470413E+00
   0.15600000E+01           0.77991367E+00
   0.15700000E+01           0.78489317E+00
   0.15800000E+01           0.78983603E+00
   0.15900000E+01           0.79506717E+00
   0.16000000E+01           0.79982547E+00
   0.16100000E+01           0.80489300E+00
   0.16200000E+01           0.80979150E+00
   0.16300000E+01           0.81493230E+00
   0.16400000E+01           0.82010267E+00
   0.16500000E+01           0.82477337E+00
   0.16600000E+01           0.82983723E+00
   0.16700000E+01           0.83501803E+00
   0.16800000E+01           0.83998227E+00
   0.16900000E+01           0.84511500E+00
   0.17000000E+01           0.84970337E+00
   0.17100000E+01           0.85530890E+00
   0.17200000E+01           0.85972997E+00
   0.17300000E+01           0.86477410E+00
   0.17400000E+01           0.86978647E+00
   0.17500000E+01           0.87505893E+00
   0.17600000E+01           0.88008307E+00
   0.17700000E+01           0.88522013E+00
   0.17800000E+01           0.89010173E+00
   0.17900000E+01           0.89506870E+00
   0.18000000E+01           0.90000523E+00
   0.18100000E+01           0.90524193E+00
   0.18200000E+01           0.90994450E+00
   0.18300000E+01           0.91476763E+00
   0.18400000E+01           0.92018620E+00
   0.18500000E+01           0.92518710E+00
   0.18600000E+01           0.93020497E+00
   0.18700000E+01           0.93523343E+00
   0.18800000E+01           0.94013707E+00
   0.18900000E+01           0.94509810E+00
   0.19000000E+01           0.95037203E+00
   0.19100000E+01           0.95549563E+00
   0.19200000E+01           0.96074553E+00
   0.19300000E+01           0.96476227E+00
   0.19400000E+01           0.96993417E+00
   0.19500000E+01           0.97514883E+00
   0.19600000E+01           0.98042037E+00
   0.19700000E+01           0.98536680E+00
   0.19800000E+01           0.99035443E+00
   0.19900000E+01           0.99525493E+00
   0.20000000E+01           0.49962810E+00
 #T=    40.0000
  -0.20000000E+01           0.00000000E+00
  -0.19900000E+01           0.00000000E+00
  -0.19800000E+01           0.00000000E+00
  -0.19700000E+01           0.00000000E+00
  -0.19600000E+01           0.00000000E+00
  -0.19500000E+01           0.00000000E+00
  -0.19400000E+01           0.00000000E+00
  -0.19300000E+01           0.00000000E+00
  -0.19200000E+01           0.00000000E+00
  -0.19100000E+01           0.00000000E+00
  -0.19000000E+01           0.00000000E+00
  -0.18900000E+01           0.00000000E+00
  -0.18800000E+01           0.00000000E+00
  -0.18700000E+01           0.00000000E+00
  -0.18600000E+01           0.00000000E+00
  -0.18500000E+01           0.00000000E+00
  -0.18400000E+01           0.00000000E+00
  -0.18300000E+01           0.00000000E+00
  -0.18200000E+01           0.00000000E+00
  -0.18100000E+01           0.00000000E+00
  -0.18000000E+01           0.00000000E+00
  -0.17900000E+01           0.00000000E+00
  -0.17800000E+01           0.00000000E+00
  -0.17700000E+01           0.00000000E+00
  -0.17600000E+01           0.00000000E+00
  -0.17500000E+01           0.00000000E+00
  -0.17400000E+01           0.00000000E+00
  -0.17300000E+01           0.00000000E+00
  -0.17200000E+01           0.00000000E+00
  -0.17100000E+01           0.00000000E+00
  -0.17000000E+01           0.00000000E+00
  -0.16900000E+01           0.00000000E+00
  -0.16800000E+01           0.00000000E+00
  -0.16700000E+01           0.00000000E+00
  -0.16600000E+01           0.00000000E+00
  -0.16500000E+01           0.00000000E+00
  -0.16400000E+01           0.00000000E+00
  -0.16300000E+01           0.00000000E+00
  -0.16200000E+01           0.00000000E+00
  -0.16100000E+01           0.00000000E+00
  -0.16000000E+01           0.00000000E+00
  -0.15900000E+01           0.00000000E+00
  -0.15800000E+01           0.00000000E+00
  -0.15700000E+01           0.00000000E+00
  -0.15600000E+01           0.00000000E+00
  -0.15500000E+01           0.00000000E+00
  -0.15400000E+01           0.00000000E+00
  -0.15300000E+01           0.00000000E+00
  -0.15200000E+01           0.00000000E+00
  -0.15100000E+01           0.00000000E+00
  -0.15000000E+01           0.00000000E+00
  -0.14900000E+01           0.00000000E+00
  -0.14800000E+01           0.00000000E+00
  -0.14700000E+01           0.00000000E+00
  -0.14600000E+01           0.00000000E+00
  -0.14500000E+01           0.00000000E+00
  -0.14400000E+01           0.00000000E+00
  -0.14300000E+01           0.00000000E+00
  -0.14200000E+01           0.00000000E+00
  -0.14100000E+01           0.00000000E+00
  -0.14000000E+01           0.00000000E+00
  -0.13900000E+01           0.00000000E+00
  -0.13800000E+01           0.00000000E+00
  -0.13700000E+01           0.00000000E+00
  -0.13600000E+01           0.00000000E+00
  -0.13500000E+01           0.00000000E+00
  -0.13400000E+01           0.00000000E+00
  -0.13300000E+01           0.00000000E+00
  -0.13200000E+01           0.00000000E+00
  -0.13100000E+01           0.00000000E+00
  -0.13000000E+01           0.00000000E+00
  -0.12900000E+01           0.00000000E+00
  -0.12800000E+01           0.00000000E+00
  -0.12700000E+01           0.00000000E+00
  -0.12600000E+01           0.00000000E+00
  -0.12500000E+01           0.00000000E+00
  -0.12400000E+01           0.00000000E+00
  -0.12300000E+01           0.00000000E+00
  -0.12200000E+01           0.00000000E+00
  -0.12100000E+01           0.00000000E+00
  -0.12000000E+01           0.00000000E+00
  -0.11900000E+01           0.00000000E+00
  -0.11800000E+01           0.00000000E+00
  -0.11700000E+01           0.00000000E+00
  -0.11600000E+01           0.00000000E+00
  -0.11500000E+01           0.00000000E+00
  -0.11400000E+01           0.00000000E+00
  -0.11300000E+01           0.00000000E+00
  -0.11200000E+01           0.00000000E+00
  -0.11100000E+01           0.00000000E+00
  -0.11000000E+01           0.00000000E+00
  -0.10900000E+01           0.00000000E+00
  -0.10800000E+01           0.00000000E+00
  -0.10700000E+01           0.00000000E+00
  -0.10600000E+01           0.00000000E+00
  -0.10500000E+01           0.00000000E+00
  -0.10400000E+01           0.00000000E+00
  -0.10300000E+01           0.00000000E+00
  -0.10200000E+01           0.00000000E+00
  -0.10100000E+01           0.00000000E+00
  -0.10000000E+01           0.00000000E+00
  -0.99000000E+00           0.00000000E+00
  -0.98000000E+00           0.00000000E+00
  -0.97000000E+00           0.00000000E+00
  -0.96000000E+00           0.00000000E+00
  -0.95000000E+00           0.00000000E+00
  -0.94000000E+00           0.00000000E+00
  -0.93000000E+00           0.00000000E+00
  -0.92000000E+00           0.00000000E+00
  -0.91000000E+00           0.00000000E+00
  -0.90000000E+00           0.00000000E+00
  -0.89000000E+00           0.00000000E+00
  -0.88000000E+00           0.00000000E+00
  -0.87000000E+00           0.00000000E+00
  -0.86000000E+00           0.00000000E+00
  -0.85000000E+00           0.00000000E+00
  -0.84000000E+00           0.00000000E+00
  -0.83000000E+00           0.00000000E+00
  -0.82000000E+00           0.00000000E+00
  -0.81000000E+00           0.00000000E+00
  -0.80000000E+00           0.00000000E+00
  -0.79000000E+00           0.00000000E+00
  -0.78000000E+00           0.00000000E+00
  -0.77000000E+00           0.00000000E+00
  -0.76000000E+00           0.00000000E+00
  -0.75000000E+00           0.00000000E+00
  -0.74000000E+00           0.00000000E+00
  -0.73000000E+00           0.00000000E+00
  -0.72000000E+00           0.00000000E+00
  -0.71000000E+00           0.00000000E+00
  -0.70000000E+00           0.00000000E+00
  -0.69000000E+00           0.00000000E+00
  -0.68000000E+00           0.00000000E+00
  -0.67000000E+00           0.00000000E+00
  -0.66000000E+00           0.00000000E+00
  -0.65000000E+00           0.00000000E+00
  -0.64000000E+00           0.00000000E+00
  -0.63000000E+00           0.00000000E+00
  -0.62000000E+00           0.00000000E+00
  -0.61000000E+00           0.00000000E+00
  -0.60000000E+00           0.00000000E+00
  -0.59000000E+00           0.00000000E+00
  -0.58000000E+00           0.00000000E+00
  -0.57000000E+00           0.00000000E+00
  -0.56000000E+00           0.00000000E+00
  -0.55000000E+00           0.00000000E+00
  -0.54000000E+00           0.00000000E+00
  -0.53000000E+00           0.00000000E+00
  -0.52000000E+00           0.00000000E+00
  -0.51000000E+00           0.00000000E+00
  -0.50000000E+00           0.00000000E+00
  -0.49000000E+00           0.00000000E+00
  -0.48000000E+00           0.00000000E+00
  -0.47000000E+00           0.00000000E+00
  -0.46000000E+00           0.00000000E+00
  -0.45000000E+00           0.00000000E+00
  -0.44000000E+00           0.00000000E+00
  -0.43000000E+00           0.00000000E+00
  -0.42000000E+00           0.00000000E+00
  -0.41000000E+00           0.00000000E+00
  -0.40000000E+00           0.00000000E+00
  -0.39000000E+00           0.00000000E+00
  -0.38000000E+00           0.00000000E+00
  -0.37000000E+00           0.00000000E+00
  -0.36000000E+00           0.00000000E+00
  -0.35000000E+00           0.00000000E+00
  -0.34000000E+00           0.00000000E+00
  -0.33000000E+00           0.00000000E+00
  -0.32000000E+00           0.00000000E+00
  -0.31000000E+00           0.00000000E+00
  -0.30000000E+00           0.00000000E+00
  -0.29000000E+00           0.00000000E+00
  -0.28000000E+00           0.00000000E+00
  -0.27000000E+00           0.00000000E+00
  -0.26000000E+00           0.00000000E+00
  -0.25000000E+00           0.00000000E+00
  -0.24000000E+00           0.00000000E+00
  -0.23000000E+00           0.00000000E+00
  -0.22000000E+00           0.00000000E+00
  -0.21000000E+00           0.00000000E+00
  -0.20000000E+00           0.00000000E+00
  -0.19000000E+00           0.00000000E+00
  -0.18000000E+00           0.00000000E+00
  -0.17000000E+00           0.00000000E+00
  -0.16000000E+00           0.00000000E+00
  -0.15000000E+00           0.00000000E+00
  -0.14000000E+00           0.00000000E+00
  -0.13000000E+00           0.00000000E+00
  -0.12000000E+00           0.00000000E+00
  -0.11000000E+00           0.00000000E+00
  -0.10000000E+00           0.00000000E+00
  -0.90000000E-01           0.00000000E+00
  -0.80000000E-01           0.00000000E+00
  -0.70000000E-01           0.00000000E+00
  -0.60000000E-01           0.00000000E+00
  -0.50000000E-01           0.00000000E+00
  -0.40000000E-01           0.00000000E+00
  -0.30000000E-01           0.00000000E+00
  -0.20000000E-01           0.00000000E+00
  -0.10000000E-01           0.00000000E+00
   0.00000000E+00           0.62106667E-03
   0.10000000E-01           0.50156333E-02
   0.20000000E-01           0.10009733E-01
   0.30000000E-01           0.15043800E-01
   0.40000000E-01           0.20012533E-01
   0.50000000E-01           0.24985900E-01
   0.60000000E-01           0.29982633E-01
   0.70000000E-01           0.34941967E-01
   0.80000000E-01           0.40057700E-01
   0.90000000E-01           0.44987867E-01
   0.10000000E+00           0.50010633E-01
   0.11000000E+00           0.55114633E-01
   0.12000000E+00           0.60027367E-01
   0.13000000E+00           0.64989033E-01
   0.14000000E+00           0.70061033E-01
   0.15000000E+00           0.75004733E-01
   0.16000000E+00           0.80023467E-01
   0.17000000E+00           0.85023967E-01
   0.18000000E+00           0.90122467E-01
   0.19000000E+00           0.95002333E-01
   0.20000000E+00           0.10003080E+00
   0.21000000E+00           0.10507667E+00
   0.22000000E+00           0.11005223E+00
   0.23000000E+00           0.11506387E+00
   0.24000000E+00           0.12004717E+00
   0.25000000E+00           0.12506500E+00
   0.26000000E+00           0.13014813E+00
   0.27000000E+00           0.13515527E+00
   0.28000000E+00           0.14016610E+00
   0.29000000E+00           0.14501610E+00
   0.30000000E+00           0.15009857E+00
   0.31000000E+00           0.15501883E+00
   0.32000000E+00           0.15997640E+00
   0.33000000E+00           0.16502847E+00
   0.34000000E+00           0.17002347E+00
   0.35000000E+00           0.17498597E+00
   0.36000000E+00           0.18010263E+00
   0.37000000E+00           0.18511570E+00
   0.38000000E+00           0.19014640E+00
   0.39000000E+00           0.19510567E+00
   0.40000000E+00           0.20008037E+00
   0.41000000E+00           0.20489810E+00
   0.42000000E+00           0.20999780E+00
   0.43000000E+00           0.21476883E+00
   0.44000000E+00           0.22002823E+00
   0.45000000E+00           0.22509913E+00
   0.46000000E+00           0.22998863E+00
   0.47000000E+00           0.23514480E+00
   0.48000000E+00           0.24013837E+00
   0.49000000E+00           0.24497677E+00
   0.50000000E+00           0.25012567E+00
   0.51000000E+00           0.25502970E+00
   0.52000000E+00           0.26009453E+00
   0.53000000E+00           0.26506547E+00
   0.54000000E+00           0.27018360E+00
   0.55000000E+00           0.27516023E+00
   0.56000000E+00           0.28005517E+00
   0.57000000E+00           0.28507010E+00
   0.58000000E+00           0.29003080E+00
   0.59000000E+00           0.29500840E+00
   0.60000000E+00           0.30006080E+00
   0.61000000E+00           0.30504830E+00
   0.62000000E+00           0.31007963E+00
   0.63000000E+00           0.31488067E+00
   0.64000000E+00           0.32003187E+00
   0.65000000E+00           0.32519883E+00
   0.66000000E+00           0.33006690E+00
   0.67000000E+00           0.33518353E+00
   0.68000000E+00           0.34020653E+00
   0.69000000E+00           0.34519950E+00
   0.70000000E+00           0.35018230E+00
   0.71000000E+00           0.35520910E+00
   0.72000000E+00           0.35981227E+00
   0.73000000E+00           0.36508283E+00
   0.74000000E+00           0.37002983E+00
   0.75000000E+00           0.37501763E+00
   0.76000000E+00           0.38022127E+00
   0.77000000E+00           0.38510193E+00
   0.78000000E+00           0.39002327E+00
   0.79000000E+00           0.39510440E+00
   0.80000000E+00           0.40009220E+00
   0.81000000E+00           0.40497040E+00
   0.82000000E+00           0.41008267E+00
   0.83000000E+00           0.41505130E+00
   0.84000000E+00           0.41995477E+00
   0.85000000E+00           0.42517143E+00
   0.86000000E+00           0.43021223E+00
   0.87000000E+00           0.43507787E+00
   0.88000000E+00           0.44035657E+00
   0.89000000E+00           0.44506297E+00
   0.90000000E+00           0.45009733E+00
   0.91000000E+00           0.45485887E+00
   0.92000000E+00           0.45995607E+00
   0.93000000E+00           0.46475170E+00
   0.94000000E+00           0.47002947E+00
   0.95000000E+00           0.47494203E+00
   0.96000000E+00           0.48003847E+00
   0.97000000E+00           0.48502207E+00
   0.98000000E+00           0.49005540E+00
   0.99000000E+00           0.49488957E+00
   0.10000000E+01           0.49999683E+00
   0.10100000E+01           0.50468863E+00
   0.10200000E+01           0.50986310E+00
   0.10300000E+01           0.51494790E+00
   0.10400000E+01           0.51987263E+00
   0.10500000E+01           0.52492537E+00
   0.10600000E+01           0.52994433E+00
   0.10700000E+01           0.53485447E+00
   0.10800000E+01           0.53977677E+00
   0.10900000E+01           0.54495467E+00
   0.11000000E+01           0.54963237E+00
   0.11100000E+01           0.55483687E+00
   0.11200000E+01           0.56002643E+00
   0.11300000E+01           0.56483913E+00
   0.11400000E+01           0.56982120E+00
   0.11500000E+01           0.57487267E+00
   0.11600000E+01           0.57999317E+00
   0.11700000E+01           0.58479420E+00
   0.11800000E+01           0.58965643E+00
   0.11900000E+01           0.59502067E+00
   0.12000000E+01           0.60008793E+00
   0.12100000E+01           0.60488030E+00
   0.12200000E+01           0.60964617E+00
   0.12300000E+01           0.61488107E+00
   0.12400000E+01           0.61965353E+00
   0.12500000E+01           0.62498817E+00
   0.12600000E+01           0.62991027E+00
   0.12700000E+01           0.63477907E+00
   0.12800000E+01           0.63998410E+00
   0.12900000E+01           0.64482053E+00
   0.13000000E+01           0.64986533E+00
   0.13100000E+01           0.65465347E+00
   0.13200000E+01           0.65990733E+00
   0.13300000E+01           0.66507257E+00
   0.13400000E+01           0.66982213E+00
   0.13500000E+01           0.67476380E+00
   0.13600000E+01           0.67976847E+00
   0.13700000E+01           0.68486140E+00
   0.13800000E+01           0.68975423E+00
   0.13900000E+01           0.69506560E+00
   0.14000000E+01           0.69965257E+00
   0.14100000E+01           0.70468103E+00
   0.14200000E+01           0.70999317E+00
   0.14300000E+01           0.71492113E+00
   0.14400000E+01           0.71993210E+00
   0.14500000E+01           0.72473857E+00
   0.14600000E+01           0.73004203E+00
   0.14700000E+01           0.73475543E+00
   0.14800000E+01           0.73992113E+00
   0.14900000E+01           0.74468817E+00
   0.15000000E+01           0.74981097E+00
   0.15100000E+01           0.75481883E+00
   0.15200000E+01           0.75989067E+00
   0.15300000E+01           0.76476630E+00
   0.15400000E+01           0.76966057E+00
   0.15500000E+01           0.77481980E+00
   0.15600000E+01           0.77992083E+00
   0.15700000E+01           0.78470617E+00
   0.15800000E+01           0.78995543E+00
   0.15900000E+01           0.79473927E+00
   0.16000000E+01           0.79963163E+00
   0.16100000E+01           0.80476510E+00
   0.16200000E+01           0.80976277E+00
   0.16300000E+01           0.81530030E+00
   0.16400000E+01           0.81990607E+00
   0.16500000E+01           0.82522027E+00
   0.16600000E+01           0.82988123E+00
   0.16700000E+01           0.83522747E+00
   0.16800000E+01           0.83984140E+00
   0.16900000E+01           0.84486407E+00
   0.17000000E+01           0.84995777E+00
   0.17100000E+01           0.85513583E+00
   0.17200000E+01           0.86010453E+00
   0.17300000E+01           0.86488197E+00
   0.17400000E+01           0.87021073E+00
   0.17500000E+01           0.87501077E+00
   0.17600000E+01           0.88010493E+00
   0.17700000E+01           0.88515127E+00
   0.17800000E+01           0.89012790E+00
   0.17900000E+01           0.89483407E+00
   0.18000000E+01           0.89979627E+00
   0.18100000E+01           0.90485297E+00
   0.18200000E+01           0.91017287E+00
   0.18300000E+01           0.91472640E+00
   0.18400000E+01           0.91999040E+00
   0.18500000E+01           0.92506713E+00
   0.18600000E+01           0.93004750E+00
   0.18700000E+01           0.93524633E+00
   0.18800000E+01           0.94037327E+00
   0.18900000E+01           0.94525717E+00
   0.19000000E+01           0.95033463E+00
   0.19100000E+01           0.95520707E+00
   0.19200000E+01           0.96039083E+00
   0.19300000E+01           0.96527017E+00
   0.19400000E+01           0.97019873E+00
   0.19500000E+01           0.97537163E+00
   0.19600000E+01           0.98040770E+00
   0.19700000E+01           0.98547257E+00
   0.19800000E+01           0.99014583E+00
   0.19900000E+01           0.99538037E+00
   0.20000000E+01           0.49965123E+00
