 #written on 30Nov2024 at 13:06:14 
 #----------------- MONTECARLO -------------------#
 #        M                      P(M)             #
 #------------------------------------------------#
 #T=   140.0000
  -0.20000000E+01           0.00000000E+00
  -0.19900000E+01           0.00000000E+00
  -0.19800000E+01           0.00000000E+00
  -0.19700000E+01           0.00000000E+00
  -0.19600000E+01           0.00000000E+00
  -0.19500000E+01           0.00000000E+00
  -0.19400000E+01           0.00000000E+00
  -0.19300000E+01           0.00000000E+00
  -0.19200000E+01           0.00000000E+00
  -0.19100000E+01           0.00000000E+00
  -0.19000000E+01           0.00000000E+00
  -0.18900000E+01           0.00000000E+00
  -0.18800000E+01           0.00000000E+00
  -0.18700000E+01           0.00000000E+00
  -0.18600000E+01           0.00000000E+00
  -0.18500000E+01           0.00000000E+00
  -0.18400000E+01           0.00000000E+00
  -0.18300000E+01           0.00000000E+00
  -0.18200000E+01           0.00000000E+00
  -0.18100000E+01           0.00000000E+00
  -0.18000000E+01           0.00000000E+00
  -0.17900000E+01           0.00000000E+00
  -0.17800000E+01           0.00000000E+00
  -0.17700000E+01           0.00000000E+00
  -0.17600000E+01           0.00000000E+00
  -0.17500000E+01           0.00000000E+00
  -0.17400000E+01           0.00000000E+00
  -0.17300000E+01           0.00000000E+00
  -0.17200000E+01           0.00000000E+00
  -0.17100000E+01           0.00000000E+00
  -0.17000000E+01           0.00000000E+00
  -0.16900000E+01           0.00000000E+00
  -0.16800000E+01           0.00000000E+00
  -0.16700000E+01           0.00000000E+00
  -0.16600000E+01           0.00000000E+00
  -0.16500000E+01           0.00000000E+00
  -0.16400000E+01           0.00000000E+00
  -0.16300000E+01           0.00000000E+00
  -0.16200000E+01           0.00000000E+00
  -0.16100000E+01           0.00000000E+00
  -0.16000000E+01           0.00000000E+00
  -0.15900000E+01           0.00000000E+00
  -0.15800000E+01           0.00000000E+00
  -0.15700000E+01           0.00000000E+00
  -0.15600000E+01           0.00000000E+00
  -0.15500000E+01           0.00000000E+00
  -0.15400000E+01           0.00000000E+00
  -0.15300000E+01           0.00000000E+00
  -0.15200000E+01           0.00000000E+00
  -0.15100000E+01           0.00000000E+00
  -0.15000000E+01           0.00000000E+00
  -0.14900000E+01           0.00000000E+00
  -0.14800000E+01           0.00000000E+00
  -0.14700000E+01           0.00000000E+00
  -0.14600000E+01           0.00000000E+00
  -0.14500000E+01           0.00000000E+00
  -0.14400000E+01           0.00000000E+00
  -0.14300000E+01           0.00000000E+00
  -0.14200000E+01           0.00000000E+00
  -0.14100000E+01           0.00000000E+00
  -0.14000000E+01           0.00000000E+00
  -0.13900000E+01           0.00000000E+00
  -0.13800000E+01           0.00000000E+00
  -0.13700000E+01           0.00000000E+00
  -0.13600000E+01           0.00000000E+00
  -0.13500000E+01           0.00000000E+00
  -0.13400000E+01           0.00000000E+00
  -0.13300000E+01           0.00000000E+00
  -0.13200000E+01           0.00000000E+00
  -0.13100000E+01           0.00000000E+00
  -0.13000000E+01           0.00000000E+00
  -0.12900000E+01           0.00000000E+00
  -0.12800000E+01           0.00000000E+00
  -0.12700000E+01           0.00000000E+00
  -0.12600000E+01           0.00000000E+00
  -0.12500000E+01           0.00000000E+00
  -0.12400000E+01           0.00000000E+00
  -0.12300000E+01           0.00000000E+00
  -0.12200000E+01           0.00000000E+00
  -0.12100000E+01           0.00000000E+00
  -0.12000000E+01           0.00000000E+00
  -0.11900000E+01           0.00000000E+00
  -0.11800000E+01           0.00000000E+00
  -0.11700000E+01           0.00000000E+00
  -0.11600000E+01           0.00000000E+00
  -0.11500000E+01           0.00000000E+00
  -0.11400000E+01           0.00000000E+00
  -0.11300000E+01           0.00000000E+00
  -0.11200000E+01           0.00000000E+00
  -0.11100000E+01           0.00000000E+00
  -0.11000000E+01           0.00000000E+00
  -0.10900000E+01           0.00000000E+00
  -0.10800000E+01           0.00000000E+00
  -0.10700000E+01           0.00000000E+00
  -0.10600000E+01           0.00000000E+00
  -0.10500000E+01           0.00000000E+00
  -0.10400000E+01           0.00000000E+00
  -0.10300000E+01           0.00000000E+00
  -0.10200000E+01           0.00000000E+00
  -0.10100000E+01           0.00000000E+00
  -0.10000000E+01           0.00000000E+00
  -0.99000000E+00           0.00000000E+00
  -0.98000000E+00           0.00000000E+00
  -0.97000000E+00           0.00000000E+00
  -0.96000000E+00           0.00000000E+00
  -0.95000000E+00           0.00000000E+00
  -0.94000000E+00           0.00000000E+00
  -0.93000000E+00           0.00000000E+00
  -0.92000000E+00           0.00000000E+00
  -0.91000000E+00           0.00000000E+00
  -0.90000000E+00           0.00000000E+00
  -0.89000000E+00           0.00000000E+00
  -0.88000000E+00           0.00000000E+00
  -0.87000000E+00           0.00000000E+00
  -0.86000000E+00           0.00000000E+00
  -0.85000000E+00           0.00000000E+00
  -0.84000000E+00           0.00000000E+00
  -0.83000000E+00           0.00000000E+00
  -0.82000000E+00           0.00000000E+00
  -0.81000000E+00           0.00000000E+00
  -0.80000000E+00           0.00000000E+00
  -0.79000000E+00           0.00000000E+00
  -0.78000000E+00           0.00000000E+00
  -0.77000000E+00           0.00000000E+00
  -0.76000000E+00           0.00000000E+00
  -0.75000000E+00           0.00000000E+00
  -0.74000000E+00           0.00000000E+00
  -0.73000000E+00           0.00000000E+00
  -0.72000000E+00           0.00000000E+00
  -0.71000000E+00           0.00000000E+00
  -0.70000000E+00           0.00000000E+00
  -0.69000000E+00           0.00000000E+00
  -0.68000000E+00           0.00000000E+00
  -0.67000000E+00           0.00000000E+00
  -0.66000000E+00           0.00000000E+00
  -0.65000000E+00           0.00000000E+00
  -0.64000000E+00           0.00000000E+00
  -0.63000000E+00           0.00000000E+00
  -0.62000000E+00           0.00000000E+00
  -0.61000000E+00           0.00000000E+00
  -0.60000000E+00           0.00000000E+00
  -0.59000000E+00           0.00000000E+00
  -0.58000000E+00           0.00000000E+00
  -0.57000000E+00           0.00000000E+00
  -0.56000000E+00           0.00000000E+00
  -0.55000000E+00           0.00000000E+00
  -0.54000000E+00           0.00000000E+00
  -0.53000000E+00           0.00000000E+00
  -0.52000000E+00           0.00000000E+00
  -0.51000000E+00           0.00000000E+00
  -0.50000000E+00           0.00000000E+00
  -0.49000000E+00           0.00000000E+00
  -0.48000000E+00           0.00000000E+00
  -0.47000000E+00           0.00000000E+00
  -0.46000000E+00           0.00000000E+00
  -0.45000000E+00           0.00000000E+00
  -0.44000000E+00           0.00000000E+00
  -0.43000000E+00           0.00000000E+00
  -0.42000000E+00           0.00000000E+00
  -0.41000000E+00           0.00000000E+00
  -0.40000000E+00           0.00000000E+00
  -0.39000000E+00           0.00000000E+00
  -0.38000000E+00           0.00000000E+00
  -0.37000000E+00           0.00000000E+00
  -0.36000000E+00           0.00000000E+00
  -0.35000000E+00           0.00000000E+00
  -0.34000000E+00           0.00000000E+00
  -0.33000000E+00           0.00000000E+00
  -0.32000000E+00           0.00000000E+00
  -0.31000000E+00           0.00000000E+00
  -0.30000000E+00           0.00000000E+00
  -0.29000000E+00           0.00000000E+00
  -0.28000000E+00           0.00000000E+00
  -0.27000000E+00           0.00000000E+00
  -0.26000000E+00           0.00000000E+00
  -0.25000000E+00           0.00000000E+00
  -0.24000000E+00           0.00000000E+00
  -0.23000000E+00           0.00000000E+00
  -0.22000000E+00           0.00000000E+00
  -0.21000000E+00           0.00000000E+00
  -0.20000000E+00           0.00000000E+00
  -0.19000000E+00           0.00000000E+00
  -0.18000000E+00           0.00000000E+00
  -0.17000000E+00           0.00000000E+00
  -0.16000000E+00           0.00000000E+00
  -0.15000000E+00           0.00000000E+00
  -0.14000000E+00           0.00000000E+00
  -0.13000000E+00           0.00000000E+00
  -0.12000000E+00           0.00000000E+00
  -0.11000000E+00           0.00000000E+00
  -0.10000000E+00           0.00000000E+00
  -0.90000000E-01           0.00000000E+00
  -0.80000000E-01           0.00000000E+00
  -0.70000000E-01           0.00000000E+00
  -0.60000000E-01           0.00000000E+00
  -0.50000000E-01           0.00000000E+00
  -0.40000000E-01           0.00000000E+00
  -0.30000000E-01           0.00000000E+00
  -0.20000000E-01           0.00000000E+00
  -0.10000000E-01           0.00000000E+00
   0.00000000E+00           0.57289966E-02
   0.10000000E-01           0.45776446E-01
   0.20000000E-01           0.91404932E-01
   0.30000000E-01           0.13677007E+00
   0.40000000E-01           0.18261709E+00
   0.50000000E-01           0.22764558E+00
   0.60000000E-01           0.27235757E+00
   0.70000000E-01           0.31673053E+00
   0.80000000E-01           0.36123827E+00
   0.90000000E-01           0.40454073E+00
   0.10000000E+00           0.44768767E+00
   0.11000000E+00           0.49014515E+00
   0.12000000E+00           0.53178546E+00
   0.13000000E+00           0.57282313E+00
   0.14000000E+00           0.61420374E+00
   0.15000000E+00           0.65243036E+00
   0.16000000E+00           0.69123418E+00
   0.17000000E+00           0.72930417E+00
   0.18000000E+00           0.76509116E+00
   0.19000000E+00           0.80181794E+00
   0.20000000E+00           0.83680536E+00
   0.21000000E+00           0.86971454E+00
   0.22000000E+00           0.90272925E+00
   0.23000000E+00           0.93398427E+00
   0.24000000E+00           0.96492236E+00
   0.25000000E+00           0.99521105E+00
   0.26000000E+00           0.10219787E+01
   0.27000000E+00           0.10482662E+01
   0.28000000E+00           0.10739018E+01
   0.29000000E+00           0.10977287E+01
   0.30000000E+00           0.11216857E+01
   0.31000000E+00           0.11417981E+01
   0.32000000E+00           0.11628349E+01
   0.33000000E+00           0.11821150E+01
   0.34000000E+00           0.11993570E+01
   0.35000000E+00           0.12154986E+01
   0.36000000E+00           0.12302202E+01
   0.37000000E+00           0.12435466E+01
   0.38000000E+00           0.12555072E+01
   0.39000000E+00           0.12669020E+01
   0.40000000E+00           0.12758616E+01
   0.41000000E+00           0.12842497E+01
   0.42000000E+00           0.12901895E+01
   0.43000000E+00           0.12966065E+01
   0.44000000E+00           0.13002298E+01
   0.45000000E+00           0.13044985E+01
   0.46000000E+00           0.13047426E+01
   0.47000000E+00           0.13055945E+01
   0.48000000E+00           0.13055396E+01
   0.49000000E+00           0.13036515E+01
   0.50000000E+00           0.13009347E+01
   0.51000000E+00           0.12970670E+01
   0.52000000E+00           0.12928355E+01
   0.53000000E+00           0.12860163E+01
   0.54000000E+00           0.12785389E+01
   0.55000000E+00           0.12702218E+01
   0.56000000E+00           0.12605815E+01
   0.57000000E+00           0.12508568E+01
   0.58000000E+00           0.12400821E+01
   0.59000000E+00           0.12273767E+01
   0.60000000E+00           0.12162526E+01
   0.61000000E+00           0.12022623E+01
   0.62000000E+00           0.11886512E+01
   0.63000000E+00           0.11736238E+01
   0.64000000E+00           0.11578230E+01
   0.65000000E+00           0.11406385E+01
   0.66000000E+00           0.11255171E+01
   0.67000000E+00           0.11083736E+01
   0.68000000E+00           0.10897139E+01
   0.69000000E+00           0.10723764E+01
   0.70000000E+00           0.10534866E+01
   0.71000000E+00           0.10351091E+01
   0.72000000E+00           0.10162428E+01
   0.73000000E+00           0.99596352E+00
   0.74000000E+00           0.97622092E+00
   0.75000000E+00           0.95614345E+00
   0.76000000E+00           0.93503741E+00
   0.77000000E+00           0.91477364E+00
   0.78000000E+00           0.89496420E+00
   0.79000000E+00           0.87412526E+00
   0.80000000E+00           0.85363954E+00
   0.81000000E+00           0.83258248E+00
   0.82000000E+00           0.81185459E+00
   0.83000000E+00           0.79124099E+00
   0.84000000E+00           0.77004940E+00
   0.85000000E+00           0.74993036E+00
   0.86000000E+00           0.72858231E+00
   0.87000000E+00           0.70837517E+00
   0.88000000E+00           0.68820995E+00
   0.89000000E+00           0.66793061E+00
   0.90000000E+00           0.64776463E+00
   0.91000000E+00           0.62827738E+00
   0.92000000E+00           0.60880553E+00
   0.93000000E+00           0.58947577E+00
   0.94000000E+00           0.57141454E+00
   0.95000000E+00           0.55157304E+00
   0.96000000E+00           0.53382381E+00
   0.97000000E+00           0.51544660E+00
   0.98000000E+00           0.49748308E+00
   0.99000000E+00           0.47992908E+00
   0.10000000E+01           0.46217253E+00
   0.10100000E+01           0.44590247E+00
   0.10200000E+01           0.42936633E+00
   0.10300000E+01           0.41313282E+00
   0.10400000E+01           0.39736913E+00
   0.10500000E+01           0.38206939E+00
   0.10600000E+01           0.36656105E+00
   0.10700000E+01           0.35202806E+00
   0.10800000E+01           0.33794269E+00
   0.10900000E+01           0.32382772E+00
   0.11000000E+01           0.31034039E+00
   0.11100000E+01           0.29726454E+00
   0.11200000E+01           0.28423827E+00
   0.11300000E+01           0.27208121E+00
   0.11400000E+01           0.26016139E+00
   0.11500000E+01           0.24850825E+00
   0.11600000E+01           0.23705357E+00
   0.11700000E+01           0.22625221E+00
   0.11800000E+01           0.21577662E+00
   0.11900000E+01           0.20582457E+00
   0.12000000E+01           0.19607585E+00
   0.12100000E+01           0.18631624E+00
   0.12200000E+01           0.17703036E+00
   0.12300000E+01           0.16858920E+00
   0.12400000E+01           0.15991743E+00
   0.12500000E+01           0.15183350E+00
   0.12600000E+01           0.14414541E+00
   0.12700000E+01           0.13659813E+00
   0.12800000E+01           0.12972321E+00
   0.12900000E+01           0.12248112E+00
   0.13000000E+01           0.11602041E+00
   0.13100000E+01           0.10974150E+00
   0.13200000E+01           0.10368070E+00
   0.13300000E+01           0.97865221E-01
   0.13400000E+01           0.92234949E-01
   0.13500000E+01           0.87026871E-01
   0.13600000E+01           0.82141241E-01
   0.13700000E+01           0.77306803E-01
   0.13800000E+01           0.72675425E-01
   0.13900000E+01           0.68311139E-01
   0.14000000E+01           0.64205867E-01
   0.14100000E+01           0.60394898E-01
   0.14200000E+01           0.56754167E-01
   0.14300000E+01           0.53149660E-01
   0.14400000E+01           0.49842687E-01
   0.14500000E+01           0.46707653E-01
   0.14600000E+01           0.43601531E-01
   0.14700000E+01           0.40878316E-01
   0.14800000E+01           0.38118367E-01
   0.14900000E+01           0.35686310E-01
   0.15000000E+01           0.33144048E-01
   0.15100000E+01           0.30797109E-01
   0.15200000E+01           0.28781293E-01
   0.15300000E+01           0.26810969E-01
   0.15400000E+01           0.25022024E-01
   0.15500000E+01           0.23089116E-01
   0.15600000E+01           0.21490391E-01
   0.15700000E+01           0.19962840E-01
   0.15800000E+01           0.18493112E-01
   0.15900000E+01           0.17123129E-01
   0.16000000E+01           0.15831633E-01
   0.16100000E+01           0.14580867E-01
   0.16200000E+01           0.13616156E-01
   0.16300000E+01           0.12449150E-01
   0.16400000E+01           0.11466922E-01
   0.16500000E+01           0.10575510E-01
   0.16600000E+01           0.97635204E-02
   0.16700000E+01           0.89882653E-02
   0.16800000E+01           0.82051871E-02
   0.16900000E+01           0.75373299E-02
   0.17000000E+01           0.69004252E-02
   0.17100000E+01           0.63083333E-02
   0.17200000E+01           0.57636905E-02
   0.17300000E+01           0.52634354E-02
   0.17400000E+01           0.47901361E-02
   0.17500000E+01           0.43738095E-02
   0.17600000E+01           0.39862245E-02
   0.17700000E+01           0.35966837E-02
   0.17800000E+01           0.32446429E-02
   0.17900000E+01           0.29781463E-02
   0.18000000E+01           0.26442177E-02
   0.18100000E+01           0.24345238E-02
   0.18200000E+01           0.21806122E-02
   0.18300000E+01           0.19708333E-02
   0.18400000E+01           0.17698129E-02
   0.18500000E+01           0.15994898E-02
   0.18600000E+01           0.14053571E-02
   0.18700000E+01           0.12700680E-02
   0.18800000E+01           0.11232993E-02
   0.18900000E+01           0.99540816E-03
   0.19000000E+01           0.88767007E-03
   0.19100000E+01           0.77108844E-03
   0.19200000E+01           0.68911565E-03
   0.19300000E+01           0.59319728E-03
   0.19400000E+01           0.52193878E-03
   0.19500000E+01           0.47304422E-03
   0.19600000E+01           0.38630952E-03
   0.19700000E+01           0.33988095E-03
   0.19800000E+01           0.30680272E-03
   0.19900000E+01           0.25654762E-03
   0.20000000E+01           0.11547619E-03
 #T=   141.0000
  -0.20000000E+01           0.00000000E+00
  -0.19900000E+01           0.00000000E+00
  -0.19800000E+01           0.00000000E+00
  -0.19700000E+01           0.00000000E+00
  -0.19600000E+01           0.00000000E+00
  -0.19500000E+01           0.00000000E+00
  -0.19400000E+01           0.00000000E+00
  -0.19300000E+01           0.00000000E+00
  -0.19200000E+01           0.00000000E+00
  -0.19100000E+01           0.00000000E+00
  -0.19000000E+01           0.00000000E+00
  -0.18900000E+01           0.00000000E+00
  -0.18800000E+01           0.00000000E+00
  -0.18700000E+01           0.00000000E+00
  -0.18600000E+01           0.00000000E+00
  -0.18500000E+01           0.00000000E+00
  -0.18400000E+01           0.00000000E+00
  -0.18300000E+01           0.00000000E+00
  -0.18200000E+01           0.00000000E+00
  -0.18100000E+01           0.00000000E+00
  -0.18000000E+01           0.00000000E+00
  -0.17900000E+01           0.00000000E+00
  -0.17800000E+01           0.00000000E+00
  -0.17700000E+01           0.00000000E+00
  -0.17600000E+01           0.00000000E+00
  -0.17500000E+01           0.00000000E+00
  -0.17400000E+01           0.00000000E+00
  -0.17300000E+01           0.00000000E+00
  -0.17200000E+01           0.00000000E+00
  -0.17100000E+01           0.00000000E+00
  -0.17000000E+01           0.00000000E+00
  -0.16900000E+01           0.00000000E+00
  -0.16800000E+01           0.00000000E+00
  -0.16700000E+01           0.00000000E+00
  -0.16600000E+01           0.00000000E+00
  -0.16500000E+01           0.00000000E+00
  -0.16400000E+01           0.00000000E+00
  -0.16300000E+01           0.00000000E+00
  -0.16200000E+01           0.00000000E+00
  -0.16100000E+01           0.00000000E+00
  -0.16000000E+01           0.00000000E+00
  -0.15900000E+01           0.00000000E+00
  -0.15800000E+01           0.00000000E+00
  -0.15700000E+01           0.00000000E+00
  -0.15600000E+01           0.00000000E+00
  -0.15500000E+01           0.00000000E+00
  -0.15400000E+01           0.00000000E+00
  -0.15300000E+01           0.00000000E+00
  -0.15200000E+01           0.00000000E+00
  -0.15100000E+01           0.00000000E+00
  -0.15000000E+01           0.00000000E+00
  -0.14900000E+01           0.00000000E+00
  -0.14800000E+01           0.00000000E+00
  -0.14700000E+01           0.00000000E+00
  -0.14600000E+01           0.00000000E+00
  -0.14500000E+01           0.00000000E+00
  -0.14400000E+01           0.00000000E+00
  -0.14300000E+01           0.00000000E+00
  -0.14200000E+01           0.00000000E+00
  -0.14100000E+01           0.00000000E+00
  -0.14000000E+01           0.00000000E+00
  -0.13900000E+01           0.00000000E+00
  -0.13800000E+01           0.00000000E+00
  -0.13700000E+01           0.00000000E+00
  -0.13600000E+01           0.00000000E+00
  -0.13500000E+01           0.00000000E+00
  -0.13400000E+01           0.00000000E+00
  -0.13300000E+01           0.00000000E+00
  -0.13200000E+01           0.00000000E+00
  -0.13100000E+01           0.00000000E+00
  -0.13000000E+01           0.00000000E+00
  -0.12900000E+01           0.00000000E+00
  -0.12800000E+01           0.00000000E+00
  -0.12700000E+01           0.00000000E+00
  -0.12600000E+01           0.00000000E+00
  -0.12500000E+01           0.00000000E+00
  -0.12400000E+01           0.00000000E+00
  -0.12300000E+01           0.00000000E+00
  -0.12200000E+01           0.00000000E+00
  -0.12100000E+01           0.00000000E+00
  -0.12000000E+01           0.00000000E+00
  -0.11900000E+01           0.00000000E+00
  -0.11800000E+01           0.00000000E+00
  -0.11700000E+01           0.00000000E+00
  -0.11600000E+01           0.00000000E+00
  -0.11500000E+01           0.00000000E+00
  -0.11400000E+01           0.00000000E+00
  -0.11300000E+01           0.00000000E+00
  -0.11200000E+01           0.00000000E+00
  -0.11100000E+01           0.00000000E+00
  -0.11000000E+01           0.00000000E+00
  -0.10900000E+01           0.00000000E+00
  -0.10800000E+01           0.00000000E+00
  -0.10700000E+01           0.00000000E+00
  -0.10600000E+01           0.00000000E+00
  -0.10500000E+01           0.00000000E+00
  -0.10400000E+01           0.00000000E+00
  -0.10300000E+01           0.00000000E+00
  -0.10200000E+01           0.00000000E+00
  -0.10100000E+01           0.00000000E+00
  -0.10000000E+01           0.00000000E+00
  -0.99000000E+00           0.00000000E+00
  -0.98000000E+00           0.00000000E+00
  -0.97000000E+00           0.00000000E+00
  -0.96000000E+00           0.00000000E+00
  -0.95000000E+00           0.00000000E+00
  -0.94000000E+00           0.00000000E+00
  -0.93000000E+00           0.00000000E+00
  -0.92000000E+00           0.00000000E+00
  -0.91000000E+00           0.00000000E+00
  -0.90000000E+00           0.00000000E+00
  -0.89000000E+00           0.00000000E+00
  -0.88000000E+00           0.00000000E+00
  -0.87000000E+00           0.00000000E+00
  -0.86000000E+00           0.00000000E+00
  -0.85000000E+00           0.00000000E+00
  -0.84000000E+00           0.00000000E+00
  -0.83000000E+00           0.00000000E+00
  -0.82000000E+00           0.00000000E+00
  -0.81000000E+00           0.00000000E+00
  -0.80000000E+00           0.00000000E+00
  -0.79000000E+00           0.00000000E+00
  -0.78000000E+00           0.00000000E+00
  -0.77000000E+00           0.00000000E+00
  -0.76000000E+00           0.00000000E+00
  -0.75000000E+00           0.00000000E+00
  -0.74000000E+00           0.00000000E+00
  -0.73000000E+00           0.00000000E+00
  -0.72000000E+00           0.00000000E+00
  -0.71000000E+00           0.00000000E+00
  -0.70000000E+00           0.00000000E+00
  -0.69000000E+00           0.00000000E+00
  -0.68000000E+00           0.00000000E+00
  -0.67000000E+00           0.00000000E+00
  -0.66000000E+00           0.00000000E+00
  -0.65000000E+00           0.00000000E+00
  -0.64000000E+00           0.00000000E+00
  -0.63000000E+00           0.00000000E+00
  -0.62000000E+00           0.00000000E+00
  -0.61000000E+00           0.00000000E+00
  -0.60000000E+00           0.00000000E+00
  -0.59000000E+00           0.00000000E+00
  -0.58000000E+00           0.00000000E+00
  -0.57000000E+00           0.00000000E+00
  -0.56000000E+00           0.00000000E+00
  -0.55000000E+00           0.00000000E+00
  -0.54000000E+00           0.00000000E+00
  -0.53000000E+00           0.00000000E+00
  -0.52000000E+00           0.00000000E+00
  -0.51000000E+00           0.00000000E+00
  -0.50000000E+00           0.00000000E+00
  -0.49000000E+00           0.00000000E+00
  -0.48000000E+00           0.00000000E+00
  -0.47000000E+00           0.00000000E+00
  -0.46000000E+00           0.00000000E+00
  -0.45000000E+00           0.00000000E+00
  -0.44000000E+00           0.00000000E+00
  -0.43000000E+00           0.00000000E+00
  -0.42000000E+00           0.00000000E+00
  -0.41000000E+00           0.00000000E+00
  -0.40000000E+00           0.00000000E+00
  -0.39000000E+00           0.00000000E+00
  -0.38000000E+00           0.00000000E+00
  -0.37000000E+00           0.00000000E+00
  -0.36000000E+00           0.00000000E+00
  -0.35000000E+00           0.00000000E+00
  -0.34000000E+00           0.00000000E+00
  -0.33000000E+00           0.00000000E+00
  -0.32000000E+00           0.00000000E+00
  -0.31000000E+00           0.00000000E+00
  -0.30000000E+00           0.00000000E+00
  -0.29000000E+00           0.00000000E+00
  -0.28000000E+00           0.00000000E+00
  -0.27000000E+00           0.00000000E+00
  -0.26000000E+00           0.00000000E+00
  -0.25000000E+00           0.00000000E+00
  -0.24000000E+00           0.00000000E+00
  -0.23000000E+00           0.00000000E+00
  -0.22000000E+00           0.00000000E+00
  -0.21000000E+00           0.00000000E+00
  -0.20000000E+00           0.00000000E+00
  -0.19000000E+00           0.00000000E+00
  -0.18000000E+00           0.00000000E+00
  -0.17000000E+00           0.00000000E+00
  -0.16000000E+00           0.00000000E+00
  -0.15000000E+00           0.00000000E+00
  -0.14000000E+00           0.00000000E+00
  -0.13000000E+00           0.00000000E+00
  -0.12000000E+00           0.00000000E+00
  -0.11000000E+00           0.00000000E+00
  -0.10000000E+00           0.00000000E+00
  -0.90000000E-01           0.00000000E+00
  -0.80000000E-01           0.00000000E+00
  -0.70000000E-01           0.00000000E+00
  -0.60000000E-01           0.00000000E+00
  -0.50000000E-01           0.00000000E+00
  -0.40000000E-01           0.00000000E+00
  -0.30000000E-01           0.00000000E+00
  -0.20000000E-01           0.00000000E+00
  -0.10000000E-01           0.00000000E+00
   0.00000000E+00           0.56392007E-02
   0.10000000E-01           0.45336565E-01
   0.20000000E-01           0.90750510E-01
   0.30000000E-01           0.13581616E+00
   0.40000000E-01           0.18119218E+00
   0.50000000E-01           0.22565816E+00
   0.60000000E-01           0.26970706E+00
   0.70000000E-01           0.31495587E+00
   0.80000000E-01           0.35862491E+00
   0.90000000E-01           0.40121905E+00
   0.10000000E+00           0.44394490E+00
   0.11000000E+00           0.48629651E+00
   0.12000000E+00           0.52772806E+00
   0.13000000E+00           0.56786565E+00
   0.14000000E+00           0.60892611E+00
   0.15000000E+00           0.64779838E+00
   0.16000000E+00           0.68644983E+00
   0.17000000E+00           0.72467287E+00
   0.18000000E+00           0.76009022E+00
   0.19000000E+00           0.79588707E+00
   0.20000000E+00           0.83082577E+00
   0.21000000E+00           0.86339464E+00
   0.22000000E+00           0.89613359E+00
   0.23000000E+00           0.92793665E+00
   0.24000000E+00           0.95794031E+00
   0.25000000E+00           0.98704668E+00
   0.26000000E+00           0.10158745E+01
   0.27000000E+00           0.10423091E+01
   0.28000000E+00           0.10674589E+01
   0.29000000E+00           0.10907338E+01
   0.30000000E+00           0.11139331E+01
   0.31000000E+00           0.11348381E+01
   0.32000000E+00           0.11554770E+01
   0.33000000E+00           0.11745709E+01
   0.34000000E+00           0.11930287E+01
   0.35000000E+00           0.12086227E+01
   0.36000000E+00           0.12231821E+01
   0.37000000E+00           0.12361395E+01
   0.38000000E+00           0.12491141E+01
   0.39000000E+00           0.12607132E+01
   0.40000000E+00           0.12703839E+01
   0.41000000E+00           0.12778555E+01
   0.42000000E+00           0.12850054E+01
   0.43000000E+00           0.12903237E+01
   0.44000000E+00           0.12954043E+01
   0.45000000E+00           0.12981095E+01
   0.46000000E+00           0.13000723E+01
   0.47000000E+00           0.13008695E+01
   0.48000000E+00           0.13004425E+01
   0.49000000E+00           0.12979701E+01
   0.50000000E+00           0.12964524E+01
   0.51000000E+00           0.12912037E+01
   0.52000000E+00           0.12889820E+01
   0.53000000E+00           0.12819394E+01
   0.54000000E+00           0.12741391E+01
   0.55000000E+00           0.12675246E+01
   0.56000000E+00           0.12584337E+01
   0.57000000E+00           0.12479064E+01
   0.58000000E+00           0.12378386E+01
   0.59000000E+00           0.12257185E+01
   0.60000000E+00           0.12146612E+01
   0.61000000E+00           0.12010227E+01
   0.62000000E+00           0.11864471E+01
   0.63000000E+00           0.11724836E+01
   0.64000000E+00           0.11569045E+01
   0.65000000E+00           0.11425501E+01
   0.66000000E+00           0.11250532E+01
   0.67000000E+00           0.11087868E+01
   0.68000000E+00           0.10903750E+01
   0.69000000E+00           0.10723177E+01
   0.70000000E+00           0.10552429E+01
   0.71000000E+00           0.10364289E+01
   0.72000000E+00           0.10170943E+01
   0.73000000E+00           0.99811871E+00
   0.74000000E+00           0.97781794E+00
   0.75000000E+00           0.95859813E+00
   0.76000000E+00           0.93848571E+00
   0.77000000E+00           0.91752891E+00
   0.78000000E+00           0.89680442E+00
   0.79000000E+00           0.87709345E+00
   0.80000000E+00           0.85678121E+00
   0.81000000E+00           0.83586539E+00
   0.82000000E+00           0.81587398E+00
   0.83000000E+00           0.79488631E+00
   0.84000000E+00           0.77392423E+00
   0.85000000E+00           0.75331565E+00
   0.86000000E+00           0.73349056E+00
   0.87000000E+00           0.71240408E+00
   0.88000000E+00           0.69312687E+00
   0.89000000E+00           0.67279405E+00
   0.90000000E+00           0.65266616E+00
   0.91000000E+00           0.63294107E+00
   0.92000000E+00           0.61353912E+00
   0.93000000E+00           0.59406862E+00
   0.94000000E+00           0.57559558E+00
   0.95000000E+00           0.55699243E+00
   0.96000000E+00           0.53764855E+00
   0.97000000E+00           0.52011684E+00
   0.98000000E+00           0.50180910E+00
   0.99000000E+00           0.48496760E+00
   0.10000000E+01           0.46722474E+00
   0.10100000E+01           0.45078767E+00
   0.10200000E+01           0.43416437E+00
   0.10300000E+01           0.41777007E+00
   0.10400000E+01           0.40195740E+00
   0.10500000E+01           0.38701446E+00
   0.10600000E+01           0.37156777E+00
   0.10700000E+01           0.35687126E+00
   0.10800000E+01           0.34241973E+00
   0.10900000E+01           0.32832679E+00
   0.11000000E+01           0.31507781E+00
   0.11100000E+01           0.30191658E+00
   0.11200000E+01           0.28875264E+00
   0.11300000E+01           0.27646352E+00
   0.11400000E+01           0.26421973E+00
   0.11500000E+01           0.25253673E+00
   0.11600000E+01           0.24129328E+00
   0.11700000E+01           0.23015102E+00
   0.11800000E+01           0.22009286E+00
   0.11900000E+01           0.20938087E+00
   0.12000000E+01           0.19948844E+00
   0.12100000E+01           0.19024524E+00
   0.12200000E+01           0.18095519E+00
   0.12300000E+01           0.17222287E+00
   0.12400000E+01           0.16340927E+00
   0.12500000E+01           0.15525893E+00
   0.12600000E+01           0.14732296E+00
   0.12700000E+01           0.13994881E+00
   0.12800000E+01           0.13254124E+00
   0.12900000E+01           0.12534022E+00
   0.13000000E+01           0.11870638E+00
   0.13100000E+01           0.11247968E+00
   0.13200000E+01           0.10627653E+00
   0.13300000E+01           0.10035306E+00
   0.13400000E+01           0.94760374E-01
   0.13500000E+01           0.89630357E-01
   0.13600000E+01           0.84681293E-01
   0.13700000E+01           0.79568027E-01
   0.13800000E+01           0.74729847E-01
   0.13900000E+01           0.70429422E-01
   0.14000000E+01           0.66381718E-01
   0.14100000E+01           0.62307993E-01
   0.14200000E+01           0.58545323E-01
   0.14300000E+01           0.54811395E-01
   0.14400000E+01           0.51399150E-01
   0.14500000E+01           0.48138180E-01
   0.14600000E+01           0.45114711E-01
   0.14700000E+01           0.42220493E-01
   0.14800000E+01           0.39482738E-01
   0.14900000E+01           0.36860969E-01
   0.15000000E+01           0.34537245E-01
   0.15100000E+01           0.32111820E-01
   0.15200000E+01           0.30016071E-01
   0.15300000E+01           0.27853912E-01
   0.15400000E+01           0.25977466E-01
   0.15500000E+01           0.24152041E-01
   0.15600000E+01           0.22428486E-01
   0.15700000E+01           0.20784269E-01
   0.15800000E+01           0.19271259E-01
   0.15900000E+01           0.17859524E-01
   0.16000000E+01           0.16458759E-01
   0.16100000E+01           0.15337585E-01
   0.16200000E+01           0.14068282E-01
   0.16300000E+01           0.13048129E-01
   0.16400000E+01           0.12075595E-01
   0.16500000E+01           0.11125510E-01
   0.16600000E+01           0.10244303E-01
   0.16700000E+01           0.93906463E-02
   0.16800000E+01           0.86106293E-02
   0.16900000E+01           0.78878401E-02
   0.17000000E+01           0.72729592E-02
   0.17100000E+01           0.66307823E-02
   0.17200000E+01           0.61091837E-02
   0.17300000E+01           0.55171769E-02
   0.17400000E+01           0.50851190E-02
   0.17500000E+01           0.46244048E-02
   0.17600000E+01           0.42053571E-02
   0.17700000E+01           0.38083333E-02
   0.17800000E+01           0.34900510E-02
   0.17900000E+01           0.31277211E-02
   0.18000000E+01           0.28674320E-02
   0.18100000E+01           0.25824830E-02
   0.18200000E+01           0.23034864E-02
   0.18300000E+01           0.21020408E-02
   0.18400000E+01           0.18834184E-02
   0.18500000E+01           0.16732143E-02
   0.18600000E+01           0.15089286E-02
   0.18700000E+01           0.13424320E-02
   0.18800000E+01           0.11853741E-02
   0.18900000E+01           0.10523810E-02
   0.19000000E+01           0.94115646E-03
   0.19100000E+01           0.83860544E-03
   0.19200000E+01           0.72627551E-03
   0.19300000E+01           0.64676871E-03
   0.19400000E+01           0.57091837E-03
   0.19500000E+01           0.50017007E-03
   0.19600000E+01           0.43197279E-03
   0.19700000E+01           0.37874150E-03
   0.19800000E+01           0.31870748E-03
   0.19900000E+01           0.28350340E-03
   0.20000000E+01           0.12117347E-03
 #T=   142.0000
  -0.20000000E+01           0.00000000E+00
  -0.19900000E+01           0.00000000E+00
  -0.19800000E+01           0.00000000E+00
  -0.19700000E+01           0.00000000E+00
  -0.19600000E+01           0.00000000E+00
  -0.19500000E+01           0.00000000E+00
  -0.19400000E+01           0.00000000E+00
  -0.19300000E+01           0.00000000E+00
  -0.19200000E+01           0.00000000E+00
  -0.19100000E+01           0.00000000E+00
  -0.19000000E+01           0.00000000E+00
  -0.18900000E+01           0.00000000E+00
  -0.18800000E+01           0.00000000E+00
  -0.18700000E+01           0.00000000E+00
  -0.18600000E+01           0.00000000E+00
  -0.18500000E+01           0.00000000E+00
  -0.18400000E+01           0.00000000E+00
  -0.18300000E+01           0.00000000E+00
  -0.18200000E+01           0.00000000E+00
  -0.18100000E+01           0.00000000E+00
  -0.18000000E+01           0.00000000E+00
  -0.17900000E+01           0.00000000E+00
  -0.17800000E+01           0.00000000E+00
  -0.17700000E+01           0.00000000E+00
  -0.17600000E+01           0.00000000E+00
  -0.17500000E+01           0.00000000E+00
  -0.17400000E+01           0.00000000E+00
  -0.17300000E+01           0.00000000E+00
  -0.17200000E+01           0.00000000E+00
  -0.17100000E+01           0.00000000E+00
  -0.17000000E+01           0.00000000E+00
  -0.16900000E+01           0.00000000E+00
  -0.16800000E+01           0.00000000E+00
  -0.16700000E+01           0.00000000E+00
  -0.16600000E+01           0.00000000E+00
  -0.16500000E+01           0.00000000E+00
  -0.16400000E+01           0.00000000E+00
  -0.16300000E+01           0.00000000E+00
  -0.16200000E+01           0.00000000E+00
  -0.16100000E+01           0.00000000E+00
  -0.16000000E+01           0.00000000E+00
  -0.15900000E+01           0.00000000E+00
  -0.15800000E+01           0.00000000E+00
  -0.15700000E+01           0.00000000E+00
  -0.15600000E+01           0.00000000E+00
  -0.15500000E+01           0.00000000E+00
  -0.15400000E+01           0.00000000E+00
  -0.15300000E+01           0.00000000E+00
  -0.15200000E+01           0.00000000E+00
  -0.15100000E+01           0.00000000E+00
  -0.15000000E+01           0.00000000E+00
  -0.14900000E+01           0.00000000E+00
  -0.14800000E+01           0.00000000E+00
  -0.14700000E+01           0.00000000E+00
  -0.14600000E+01           0.00000000E+00
  -0.14500000E+01           0.00000000E+00
  -0.14400000E+01           0.00000000E+00
  -0.14300000E+01           0.00000000E+00
  -0.14200000E+01           0.00000000E+00
  -0.14100000E+01           0.00000000E+00
  -0.14000000E+01           0.00000000E+00
  -0.13900000E+01           0.00000000E+00
  -0.13800000E+01           0.00000000E+00
  -0.13700000E+01           0.00000000E+00
  -0.13600000E+01           0.00000000E+00
  -0.13500000E+01           0.00000000E+00
  -0.13400000E+01           0.00000000E+00
  -0.13300000E+01           0.00000000E+00
  -0.13200000E+01           0.00000000E+00
  -0.13100000E+01           0.00000000E+00
  -0.13000000E+01           0.00000000E+00
  -0.12900000E+01           0.00000000E+00
  -0.12800000E+01           0.00000000E+00
  -0.12700000E+01           0.00000000E+00
  -0.12600000E+01           0.00000000E+00
  -0.12500000E+01           0.00000000E+00
  -0.12400000E+01           0.00000000E+00
  -0.12300000E+01           0.00000000E+00
  -0.12200000E+01           0.00000000E+00
  -0.12100000E+01           0.00000000E+00
  -0.12000000E+01           0.00000000E+00
  -0.11900000E+01           0.00000000E+00
  -0.11800000E+01           0.00000000E+00
  -0.11700000E+01           0.00000000E+00
  -0.11600000E+01           0.00000000E+00
  -0.11500000E+01           0.00000000E+00
  -0.11400000E+01           0.00000000E+00
  -0.11300000E+01           0.00000000E+00
  -0.11200000E+01           0.00000000E+00
  -0.11100000E+01           0.00000000E+00
  -0.11000000E+01           0.00000000E+00
  -0.10900000E+01           0.00000000E+00
  -0.10800000E+01           0.00000000E+00
  -0.10700000E+01           0.00000000E+00
  -0.10600000E+01           0.00000000E+00
  -0.10500000E+01           0.00000000E+00
  -0.10400000E+01           0.00000000E+00
  -0.10300000E+01           0.00000000E+00
  -0.10200000E+01           0.00000000E+00
  -0.10100000E+01           0.00000000E+00
  -0.10000000E+01           0.00000000E+00
  -0.99000000E+00           0.00000000E+00
  -0.98000000E+00           0.00000000E+00
  -0.97000000E+00           0.00000000E+00
  -0.96000000E+00           0.00000000E+00
  -0.95000000E+00           0.00000000E+00
  -0.94000000E+00           0.00000000E+00
  -0.93000000E+00           0.00000000E+00
  -0.92000000E+00           0.00000000E+00
  -0.91000000E+00           0.00000000E+00
  -0.90000000E+00           0.00000000E+00
  -0.89000000E+00           0.00000000E+00
  -0.88000000E+00           0.00000000E+00
  -0.87000000E+00           0.00000000E+00
  -0.86000000E+00           0.00000000E+00
  -0.85000000E+00           0.00000000E+00
  -0.84000000E+00           0.00000000E+00
  -0.83000000E+00           0.00000000E+00
  -0.82000000E+00           0.00000000E+00
  -0.81000000E+00           0.00000000E+00
  -0.80000000E+00           0.00000000E+00
  -0.79000000E+00           0.00000000E+00
  -0.78000000E+00           0.00000000E+00
  -0.77000000E+00           0.00000000E+00
  -0.76000000E+00           0.00000000E+00
  -0.75000000E+00           0.00000000E+00
  -0.74000000E+00           0.00000000E+00
  -0.73000000E+00           0.00000000E+00
  -0.72000000E+00           0.00000000E+00
  -0.71000000E+00           0.00000000E+00
  -0.70000000E+00           0.00000000E+00
  -0.69000000E+00           0.00000000E+00
  -0.68000000E+00           0.00000000E+00
  -0.67000000E+00           0.00000000E+00
  -0.66000000E+00           0.00000000E+00
  -0.65000000E+00           0.00000000E+00
  -0.64000000E+00           0.00000000E+00
  -0.63000000E+00           0.00000000E+00
  -0.62000000E+00           0.00000000E+00
  -0.61000000E+00           0.00000000E+00
  -0.60000000E+00           0.00000000E+00
  -0.59000000E+00           0.00000000E+00
  -0.58000000E+00           0.00000000E+00
  -0.57000000E+00           0.00000000E+00
  -0.56000000E+00           0.00000000E+00
  -0.55000000E+00           0.00000000E+00
  -0.54000000E+00           0.00000000E+00
  -0.53000000E+00           0.00000000E+00
  -0.52000000E+00           0.00000000E+00
  -0.51000000E+00           0.00000000E+00
  -0.50000000E+00           0.00000000E+00
  -0.49000000E+00           0.00000000E+00
  -0.48000000E+00           0.00000000E+00
  -0.47000000E+00           0.00000000E+00
  -0.46000000E+00           0.00000000E+00
  -0.45000000E+00           0.00000000E+00
  -0.44000000E+00           0.00000000E+00
  -0.43000000E+00           0.00000000E+00
  -0.42000000E+00           0.00000000E+00
  -0.41000000E+00           0.00000000E+00
  -0.40000000E+00           0.00000000E+00
  -0.39000000E+00           0.00000000E+00
  -0.38000000E+00           0.00000000E+00
  -0.37000000E+00           0.00000000E+00
  -0.36000000E+00           0.00000000E+00
  -0.35000000E+00           0.00000000E+00
  -0.34000000E+00           0.00000000E+00
  -0.33000000E+00           0.00000000E+00
  -0.32000000E+00           0.00000000E+00
  -0.31000000E+00           0.00000000E+00
  -0.30000000E+00           0.00000000E+00
  -0.29000000E+00           0.00000000E+00
  -0.28000000E+00           0.00000000E+00
  -0.27000000E+00           0.00000000E+00
  -0.26000000E+00           0.00000000E+00
  -0.25000000E+00           0.00000000E+00
  -0.24000000E+00           0.00000000E+00
  -0.23000000E+00           0.00000000E+00
  -0.22000000E+00           0.00000000E+00
  -0.21000000E+00           0.00000000E+00
  -0.20000000E+00           0.00000000E+00
  -0.19000000E+00           0.00000000E+00
  -0.18000000E+00           0.00000000E+00
  -0.17000000E+00           0.00000000E+00
  -0.16000000E+00           0.00000000E+00
  -0.15000000E+00           0.00000000E+00
  -0.14000000E+00           0.00000000E+00
  -0.13000000E+00           0.00000000E+00
  -0.12000000E+00           0.00000000E+00
  -0.11000000E+00           0.00000000E+00
  -0.10000000E+00           0.00000000E+00
  -0.90000000E-01           0.00000000E+00
  -0.80000000E-01           0.00000000E+00
  -0.70000000E-01           0.00000000E+00
  -0.60000000E-01           0.00000000E+00
  -0.50000000E-01           0.00000000E+00
  -0.40000000E-01           0.00000000E+00
  -0.30000000E-01           0.00000000E+00
  -0.20000000E-01           0.00000000E+00
  -0.10000000E-01           0.00000000E+00
   0.00000000E+00           0.56569728E-02
   0.10000000E-01           0.45070153E-01
   0.20000000E-01           0.90329422E-01
   0.30000000E-01           0.13469855E+00
   0.40000000E-01           0.17946012E+00
   0.50000000E-01           0.22416556E+00
   0.60000000E-01           0.26854609E+00
   0.70000000E-01           0.31188895E+00
   0.80000000E-01           0.35512398E+00
   0.90000000E-01           0.39837636E+00
   0.10000000E+00           0.44004626E+00
   0.11000000E+00           0.48268554E+00
   0.12000000E+00           0.52349413E+00
   0.13000000E+00           0.56422526E+00
   0.14000000E+00           0.60427526E+00
   0.15000000E+00           0.64343554E+00
   0.16000000E+00           0.68090085E+00
   0.17000000E+00           0.71860247E+00
   0.18000000E+00           0.75441514E+00
   0.19000000E+00           0.78996735E+00
   0.20000000E+00           0.82454609E+00
   0.21000000E+00           0.85817423E+00
   0.22000000E+00           0.88972075E+00
   0.23000000E+00           0.92041412E+00
   0.24000000E+00           0.95253087E+00
   0.25000000E+00           0.98097466E+00
   0.26000000E+00           0.10090207E+01
   0.27000000E+00           0.10340232E+01
   0.28000000E+00           0.10610790E+01
   0.29000000E+00           0.10843284E+01
   0.30000000E+00           0.11072866E+01
   0.31000000E+00           0.11280457E+01
   0.32000000E+00           0.11491899E+01
   0.33000000E+00           0.11685806E+01
   0.34000000E+00           0.11844555E+01
   0.35000000E+00           0.12017377E+01
   0.36000000E+00           0.12164978E+01
   0.37000000E+00           0.12300521E+01
   0.38000000E+00           0.12423606E+01
   0.39000000E+00           0.12539849E+01
   0.40000000E+00           0.12633438E+01
   0.41000000E+00           0.12716378E+01
   0.42000000E+00           0.12786786E+01
   0.43000000E+00           0.12847644E+01
   0.44000000E+00           0.12884964E+01
   0.45000000E+00           0.12922860E+01
   0.46000000E+00           0.12946731E+01
   0.47000000E+00           0.12961601E+01
   0.48000000E+00           0.12954254E+01
   0.49000000E+00           0.12938385E+01
   0.50000000E+00           0.12915879E+01
   0.51000000E+00           0.12883830E+01
   0.52000000E+00           0.12838912E+01
   0.53000000E+00           0.12786107E+01
   0.54000000E+00           0.12704558E+01
   0.55000000E+00           0.12641626E+01
   0.56000000E+00           0.12547838E+01
   0.57000000E+00           0.12449163E+01
   0.58000000E+00           0.12353568E+01
   0.59000000E+00           0.12244580E+01
   0.60000000E+00           0.12122017E+01
   0.61000000E+00           0.11992785E+01
   0.62000000E+00           0.11859566E+01
   0.63000000E+00           0.11717060E+01
   0.64000000E+00           0.11562734E+01
   0.65000000E+00           0.11418410E+01
   0.66000000E+00           0.11250070E+01
   0.67000000E+00           0.11072972E+01
   0.68000000E+00           0.10913242E+01
   0.69000000E+00           0.10737649E+01
   0.70000000E+00           0.10546373E+01
   0.71000000E+00           0.10370571E+01
   0.72000000E+00           0.10181730E+01
   0.73000000E+00           0.99992483E+00
   0.74000000E+00           0.98015459E+00
   0.75000000E+00           0.96066020E+00
   0.76000000E+00           0.94049983E+00
   0.77000000E+00           0.92140136E+00
   0.78000000E+00           0.90004184E+00
   0.79000000E+00           0.87982270E+00
   0.80000000E+00           0.86002679E+00
   0.81000000E+00           0.83961344E+00
   0.82000000E+00           0.81868614E+00
   0.83000000E+00           0.79845213E+00
   0.84000000E+00           0.77784600E+00
   0.85000000E+00           0.75774855E+00
   0.86000000E+00           0.73713027E+00
   0.87000000E+00           0.71652236E+00
   0.88000000E+00           0.69706539E+00
   0.89000000E+00           0.67712483E+00
   0.90000000E+00           0.65689456E+00
   0.91000000E+00           0.63708665E+00
   0.92000000E+00           0.61842951E+00
   0.93000000E+00           0.59854218E+00
   0.94000000E+00           0.57964252E+00
   0.95000000E+00           0.56155706E+00
   0.96000000E+00           0.54286003E+00
   0.97000000E+00           0.52476726E+00
   0.98000000E+00           0.50703197E+00
   0.99000000E+00           0.49008733E+00
   0.10000000E+01           0.47231922E+00
   0.10100000E+01           0.45562245E+00
   0.10200000E+01           0.43912653E+00
   0.10300000E+01           0.42292483E+00
   0.10400000E+01           0.40658716E+00
   0.10500000E+01           0.39147491E+00
   0.10600000E+01           0.37694566E+00
   0.10700000E+01           0.36160043E+00
   0.10800000E+01           0.34734184E+00
   0.10900000E+01           0.33348861E+00
   0.11000000E+01           0.31959736E+00
   0.11100000E+01           0.30614617E+00
   0.11200000E+01           0.29343954E+00
   0.11300000E+01           0.28062219E+00
   0.11400000E+01           0.26897823E+00
   0.11500000E+01           0.25726156E+00
   0.11600000E+01           0.24560349E+00
   0.11700000E+01           0.23429957E+00
   0.11800000E+01           0.22377747E+00
   0.11900000E+01           0.21364388E+00
   0.12000000E+01           0.20350910E+00
   0.12100000E+01           0.19390952E+00
   0.12200000E+01           0.18471616E+00
   0.12300000E+01           0.17559286E+00
   0.12400000E+01           0.16677993E+00
   0.12500000E+01           0.15874609E+00
   0.12600000E+01           0.15059906E+00
   0.12700000E+01           0.14299430E+00
   0.12800000E+01           0.13544286E+00
   0.12900000E+01           0.12856386E+00
   0.13000000E+01           0.12195867E+00
   0.13100000E+01           0.11518946E+00
   0.13200000E+01           0.10870638E+00
   0.13300000E+01           0.10308163E+00
   0.13400000E+01           0.97425850E-01
   0.13500000E+01           0.91945493E-01
   0.13600000E+01           0.86725680E-01
   0.13700000E+01           0.81819983E-01
   0.13800000E+01           0.77010459E-01
   0.13900000E+01           0.72561480E-01
   0.14000000E+01           0.68198299E-01
   0.14100000E+01           0.64086224E-01
   0.14200000E+01           0.60387500E-01
   0.14300000E+01           0.56407738E-01
   0.14400000E+01           0.53097449E-01
   0.14500000E+01           0.49916582E-01
   0.14600000E+01           0.46789286E-01
   0.14700000E+01           0.43698980E-01
   0.14800000E+01           0.40877466E-01
   0.14900000E+01           0.38249150E-01
   0.15000000E+01           0.35659099E-01
   0.15100000E+01           0.33302381E-01
   0.15200000E+01           0.31087245E-01
   0.15300000E+01           0.29010714E-01
   0.15400000E+01           0.26949915E-01
   0.15500000E+01           0.25026020E-01
   0.15600000E+01           0.23320408E-01
   0.15700000E+01           0.21652126E-01
   0.15800000E+01           0.20127126E-01
   0.15900000E+01           0.18630442E-01
   0.16000000E+01           0.17219643E-01
   0.16100000E+01           0.15996344E-01
   0.16200000E+01           0.14805272E-01
   0.16300000E+01           0.13654507E-01
   0.16400000E+01           0.12638350E-01
   0.16500000E+01           0.11629592E-01
   0.16600000E+01           0.10723129E-01
   0.16700000E+01           0.99334184E-02
   0.16800000E+01           0.91319728E-02
   0.16900000E+01           0.83374150E-02
   0.17000000E+01           0.76937925E-02
   0.17100000E+01           0.69983844E-02
   0.17200000E+01           0.64608844E-02
   0.17300000E+01           0.59285714E-02
   0.17400000E+01           0.53026361E-02
   0.17500000E+01           0.48607143E-02
   0.17600000E+01           0.44963435E-02
   0.17700000E+01           0.40835034E-02
   0.17800000E+01           0.37209184E-02
   0.17900000E+01           0.33393707E-02
   0.18000000E+01           0.30359694E-02
   0.18100000E+01           0.27312925E-02
   0.18200000E+01           0.24866497E-02
   0.18300000E+01           0.22289966E-02
   0.18400000E+01           0.20227891E-02
   0.18500000E+01           0.18115646E-02
   0.18600000E+01           0.15978741E-02
   0.18700000E+01           0.14369898E-02
   0.18800000E+01           0.12908163E-02
   0.18900000E+01           0.11536565E-02
   0.19000000E+01           0.10173469E-02
   0.19100000E+01           0.90799320E-03
   0.19200000E+01           0.80459184E-03
   0.19300000E+01           0.70867347E-03
   0.19400000E+01           0.61930272E-03
   0.19500000E+01           0.54013605E-03
   0.19600000E+01           0.46505102E-03
   0.19700000E+01           0.40867347E-03
   0.19800000E+01           0.36768707E-03
   0.19900000E+01           0.30527211E-03
   0.20000000E+01           0.13392857E-03
 #T=   143.0000
  -0.20000000E+01           0.00000000E+00
  -0.19900000E+01           0.00000000E+00
  -0.19800000E+01           0.00000000E+00
  -0.19700000E+01           0.00000000E+00
  -0.19600000E+01           0.00000000E+00
  -0.19500000E+01           0.00000000E+00
  -0.19400000E+01           0.00000000E+00
  -0.19300000E+01           0.00000000E+00
  -0.19200000E+01           0.00000000E+00
  -0.19100000E+01           0.00000000E+00
  -0.19000000E+01           0.00000000E+00
  -0.18900000E+01           0.00000000E+00
  -0.18800000E+01           0.00000000E+00
  -0.18700000E+01           0.00000000E+00
  -0.18600000E+01           0.00000000E+00
  -0.18500000E+01           0.00000000E+00
  -0.18400000E+01           0.00000000E+00
  -0.18300000E+01           0.00000000E+00
  -0.18200000E+01           0.00000000E+00
  -0.18100000E+01           0.00000000E+00
  -0.18000000E+01           0.00000000E+00
  -0.17900000E+01           0.00000000E+00
  -0.17800000E+01           0.00000000E+00
  -0.17700000E+01           0.00000000E+00
  -0.17600000E+01           0.00000000E+00
  -0.17500000E+01           0.00000000E+00
  -0.17400000E+01           0.00000000E+00
  -0.17300000E+01           0.00000000E+00
  -0.17200000E+01           0.00000000E+00
  -0.17100000E+01           0.00000000E+00
  -0.17000000E+01           0.00000000E+00
  -0.16900000E+01           0.00000000E+00
  -0.16800000E+01           0.00000000E+00
  -0.16700000E+01           0.00000000E+00
  -0.16600000E+01           0.00000000E+00
  -0.16500000E+01           0.00000000E+00
  -0.16400000E+01           0.00000000E+00
  -0.16300000E+01           0.00000000E+00
  -0.16200000E+01           0.00000000E+00
  -0.16100000E+01           0.00000000E+00
  -0.16000000E+01           0.00000000E+00
  -0.15900000E+01           0.00000000E+00
  -0.15800000E+01           0.00000000E+00
  -0.15700000E+01           0.00000000E+00
  -0.15600000E+01           0.00000000E+00
  -0.15500000E+01           0.00000000E+00
  -0.15400000E+01           0.00000000E+00
  -0.15300000E+01           0.00000000E+00
  -0.15200000E+01           0.00000000E+00
  -0.15100000E+01           0.00000000E+00
  -0.15000000E+01           0.00000000E+00
  -0.14900000E+01           0.00000000E+00
  -0.14800000E+01           0.00000000E+00
  -0.14700000E+01           0.00000000E+00
  -0.14600000E+01           0.00000000E+00
  -0.14500000E+01           0.00000000E+00
  -0.14400000E+01           0.00000000E+00
  -0.14300000E+01           0.00000000E+00
  -0.14200000E+01           0.00000000E+00
  -0.14100000E+01           0.00000000E+00
  -0.14000000E+01           0.00000000E+00
  -0.13900000E+01           0.00000000E+00
  -0.13800000E+01           0.00000000E+00
  -0.13700000E+01           0.00000000E+00
  -0.13600000E+01           0.00000000E+00
  -0.13500000E+01           0.00000000E+00
  -0.13400000E+01           0.00000000E+00
  -0.13300000E+01           0.00000000E+00
  -0.13200000E+01           0.00000000E+00
  -0.13100000E+01           0.00000000E+00
  -0.13000000E+01           0.00000000E+00
  -0.12900000E+01           0.00000000E+00
  -0.12800000E+01           0.00000000E+00
  -0.12700000E+01           0.00000000E+00
  -0.12600000E+01           0.00000000E+00
  -0.12500000E+01           0.00000000E+00
  -0.12400000E+01           0.00000000E+00
  -0.12300000E+01           0.00000000E+00
  -0.12200000E+01           0.00000000E+00
  -0.12100000E+01           0.00000000E+00
  -0.12000000E+01           0.00000000E+00
  -0.11900000E+01           0.00000000E+00
  -0.11800000E+01           0.00000000E+00
  -0.11700000E+01           0.00000000E+00
  -0.11600000E+01           0.00000000E+00
  -0.11500000E+01           0.00000000E+00
  -0.11400000E+01           0.00000000E+00
  -0.11300000E+01           0.00000000E+00
  -0.11200000E+01           0.00000000E+00
  -0.11100000E+01           0.00000000E+00
  -0.11000000E+01           0.00000000E+00
  -0.10900000E+01           0.00000000E+00
  -0.10800000E+01           0.00000000E+00
  -0.10700000E+01           0.00000000E+00
  -0.10600000E+01           0.00000000E+00
  -0.10500000E+01           0.00000000E+00
  -0.10400000E+01           0.00000000E+00
  -0.10300000E+01           0.00000000E+00
  -0.10200000E+01           0.00000000E+00
  -0.10100000E+01           0.00000000E+00
  -0.10000000E+01           0.00000000E+00
  -0.99000000E+00           0.00000000E+00
  -0.98000000E+00           0.00000000E+00
  -0.97000000E+00           0.00000000E+00
  -0.96000000E+00           0.00000000E+00
  -0.95000000E+00           0.00000000E+00
  -0.94000000E+00           0.00000000E+00
  -0.93000000E+00           0.00000000E+00
  -0.92000000E+00           0.00000000E+00
  -0.91000000E+00           0.00000000E+00
  -0.90000000E+00           0.00000000E+00
  -0.89000000E+00           0.00000000E+00
  -0.88000000E+00           0.00000000E+00
  -0.87000000E+00           0.00000000E+00
  -0.86000000E+00           0.00000000E+00
  -0.85000000E+00           0.00000000E+00
  -0.84000000E+00           0.00000000E+00
  -0.83000000E+00           0.00000000E+00
  -0.82000000E+00           0.00000000E+00
  -0.81000000E+00           0.00000000E+00
  -0.80000000E+00           0.00000000E+00
  -0.79000000E+00           0.00000000E+00
  -0.78000000E+00           0.00000000E+00
  -0.77000000E+00           0.00000000E+00
  -0.76000000E+00           0.00000000E+00
  -0.75000000E+00           0.00000000E+00
  -0.74000000E+00           0.00000000E+00
  -0.73000000E+00           0.00000000E+00
  -0.72000000E+00           0.00000000E+00
  -0.71000000E+00           0.00000000E+00
  -0.70000000E+00           0.00000000E+00
  -0.69000000E+00           0.00000000E+00
  -0.68000000E+00           0.00000000E+00
  -0.67000000E+00           0.00000000E+00
  -0.66000000E+00           0.00000000E+00
  -0.65000000E+00           0.00000000E+00
  -0.64000000E+00           0.00000000E+00
  -0.63000000E+00           0.00000000E+00
  -0.62000000E+00           0.00000000E+00
  -0.61000000E+00           0.00000000E+00
  -0.60000000E+00           0.00000000E+00
  -0.59000000E+00           0.00000000E+00
  -0.58000000E+00           0.00000000E+00
  -0.57000000E+00           0.00000000E+00
  -0.56000000E+00           0.00000000E+00
  -0.55000000E+00           0.00000000E+00
  -0.54000000E+00           0.00000000E+00
  -0.53000000E+00           0.00000000E+00
  -0.52000000E+00           0.00000000E+00
  -0.51000000E+00           0.00000000E+00
  -0.50000000E+00           0.00000000E+00
  -0.49000000E+00           0.00000000E+00
  -0.48000000E+00           0.00000000E+00
  -0.47000000E+00           0.00000000E+00
  -0.46000000E+00           0.00000000E+00
  -0.45000000E+00           0.00000000E+00
  -0.44000000E+00           0.00000000E+00
  -0.43000000E+00           0.00000000E+00
  -0.42000000E+00           0.00000000E+00
  -0.41000000E+00           0.00000000E+00
  -0.40000000E+00           0.00000000E+00
  -0.39000000E+00           0.00000000E+00
  -0.38000000E+00           0.00000000E+00
  -0.37000000E+00           0.00000000E+00
  -0.36000000E+00           0.00000000E+00
  -0.35000000E+00           0.00000000E+00
  -0.34000000E+00           0.00000000E+00
  -0.33000000E+00           0.00000000E+00
  -0.32000000E+00           0.00000000E+00
  -0.31000000E+00           0.00000000E+00
  -0.30000000E+00           0.00000000E+00
  -0.29000000E+00           0.00000000E+00
  -0.28000000E+00           0.00000000E+00
  -0.27000000E+00           0.00000000E+00
  -0.26000000E+00           0.00000000E+00
  -0.25000000E+00           0.00000000E+00
  -0.24000000E+00           0.00000000E+00
  -0.23000000E+00           0.00000000E+00
  -0.22000000E+00           0.00000000E+00
  -0.21000000E+00           0.00000000E+00
  -0.20000000E+00           0.00000000E+00
  -0.19000000E+00           0.00000000E+00
  -0.18000000E+00           0.00000000E+00
  -0.17000000E+00           0.00000000E+00
  -0.16000000E+00           0.00000000E+00
  -0.15000000E+00           0.00000000E+00
  -0.14000000E+00           0.00000000E+00
  -0.13000000E+00           0.00000000E+00
  -0.12000000E+00           0.00000000E+00
  -0.11000000E+00           0.00000000E+00
  -0.10000000E+00           0.00000000E+00
  -0.90000000E-01           0.00000000E+00
  -0.80000000E-01           0.00000000E+00
  -0.70000000E-01           0.00000000E+00
  -0.60000000E-01           0.00000000E+00
  -0.50000000E-01           0.00000000E+00
  -0.40000000E-01           0.00000000E+00
  -0.30000000E-01           0.00000000E+00
  -0.20000000E-01           0.00000000E+00
  -0.10000000E-01           0.00000000E+00
   0.00000000E+00           0.56120748E-02
   0.10000000E-01           0.44794643E-01
   0.20000000E-01           0.89307823E-01
   0.30000000E-01           0.13403605E+00
   0.40000000E-01           0.17826930E+00
   0.50000000E-01           0.22262440E+00
   0.60000000E-01           0.26612279E+00
   0.70000000E-01           0.30968716E+00
   0.80000000E-01           0.35236488E+00
   0.90000000E-01           0.39540731E+00
   0.10000000E+00           0.43731871E+00
   0.11000000E+00           0.47957730E+00
   0.12000000E+00           0.51965799E+00
   0.13000000E+00           0.55934626E+00
   0.14000000E+00           0.59969031E+00
   0.15000000E+00           0.63826803E+00
   0.16000000E+00           0.67595051E+00
   0.17000000E+00           0.71331709E+00
   0.18000000E+00           0.74892168E+00
   0.19000000E+00           0.78481607E+00
   0.20000000E+00           0.81851616E+00
   0.21000000E+00           0.85156956E+00
   0.22000000E+00           0.88428622E+00
   0.23000000E+00           0.91531131E+00
   0.24000000E+00           0.94466692E+00
   0.25000000E+00           0.97454507E+00
   0.26000000E+00           0.10012638E+01
   0.27000000E+00           0.10276674E+01
   0.28000000E+00           0.10531556E+01
   0.29000000E+00           0.10771276E+01
   0.30000000E+00           0.11005105E+01
   0.31000000E+00           0.11212948E+01
   0.32000000E+00           0.11414009E+01
   0.33000000E+00           0.11614927E+01
   0.34000000E+00           0.11779605E+01
   0.35000000E+00           0.11952608E+01
   0.36000000E+00           0.12095074E+01
   0.37000000E+00           0.12234700E+01
   0.38000000E+00           0.12361671E+01
   0.39000000E+00           0.12469814E+01
   0.40000000E+00           0.12567599E+01
   0.41000000E+00           0.12659906E+01
   0.42000000E+00           0.12730021E+01
   0.43000000E+00           0.12786620E+01
   0.44000000E+00           0.12830453E+01
   0.45000000E+00           0.12886408E+01
   0.46000000E+00           0.12893743E+01
   0.47000000E+00           0.12910455E+01
   0.48000000E+00           0.12913806E+01
   0.49000000E+00           0.12889721E+01
   0.50000000E+00           0.12873756E+01
   0.51000000E+00           0.12851299E+01
   0.52000000E+00           0.12790512E+01
   0.53000000E+00           0.12744625E+01
   0.54000000E+00           0.12675820E+01
   0.55000000E+00           0.12607860E+01
   0.56000000E+00           0.12528275E+01
   0.57000000E+00           0.12432632E+01
   0.58000000E+00           0.12332435E+01
   0.59000000E+00           0.12214266E+01
   0.60000000E+00           0.12094372E+01
   0.61000000E+00           0.11976841E+01
   0.62000000E+00           0.11843991E+01
   0.63000000E+00           0.11705838E+01
   0.64000000E+00           0.11553432E+01
   0.65000000E+00           0.11406912E+01
   0.66000000E+00           0.11243849E+01
   0.67000000E+00           0.11087030E+01
   0.68000000E+00           0.10914213E+01
   0.69000000E+00           0.10746461E+01
   0.70000000E+00           0.10567141E+01
   0.71000000E+00           0.10380776E+01
   0.72000000E+00           0.10194384E+01
   0.73000000E+00           0.10017118E+01
   0.74000000E+00           0.98101658E+00
   0.75000000E+00           0.96295247E+00
   0.76000000E+00           0.94275315E+00
   0.77000000E+00           0.92265833E+00
   0.78000000E+00           0.90399405E+00
   0.79000000E+00           0.88286386E+00
   0.80000000E+00           0.86261250E+00
   0.81000000E+00           0.84235595E+00
   0.82000000E+00           0.82244694E+00
   0.83000000E+00           0.80181165E+00
   0.84000000E+00           0.78194634E+00
   0.85000000E+00           0.76112202E+00
   0.86000000E+00           0.74109073E+00
   0.87000000E+00           0.72087304E+00
   0.88000000E+00           0.70095663E+00
   0.89000000E+00           0.68098903E+00
   0.90000000E+00           0.66145136E+00
   0.91000000E+00           0.64202509E+00
   0.92000000E+00           0.62279090E+00
   0.93000000E+00           0.60393146E+00
   0.94000000E+00           0.58543622E+00
   0.95000000E+00           0.56620731E+00
   0.96000000E+00           0.54738231E+00
   0.97000000E+00           0.52980901E+00
   0.98000000E+00           0.51199983E+00
   0.99000000E+00           0.49445587E+00
   0.10000000E+01           0.47689966E+00
   0.10100000E+01           0.46018656E+00
   0.10200000E+01           0.44350578E+00
   0.10300000E+01           0.42746037E+00
   0.10400000E+01           0.41206990E+00
   0.10500000E+01           0.39592900E+00
   0.10600000E+01           0.38100629E+00
   0.10700000E+01           0.36653827E+00
   0.10800000E+01           0.35193248E+00
   0.10900000E+01           0.33762296E+00
   0.11000000E+01           0.32446641E+00
   0.11100000E+01           0.31110051E+00
   0.11200000E+01           0.29770561E+00
   0.11300000E+01           0.28513418E+00
   0.11400000E+01           0.27266624E+00
   0.11500000E+01           0.26094507E+00
   0.11600000E+01           0.24958019E+00
   0.11700000E+01           0.23846735E+00
   0.11800000E+01           0.22774872E+00
   0.11900000E+01           0.21751020E+00
   0.12000000E+01           0.20705952E+00
   0.12100000E+01           0.19725595E+00
   0.12200000E+01           0.18812058E+00
   0.12300000E+01           0.17901862E+00
   0.12400000E+01           0.17023444E+00
   0.12500000E+01           0.16203920E+00
   0.12600000E+01           0.15367823E+00
   0.12700000E+01           0.14623384E+00
   0.12800000E+01           0.13871480E+00
   0.12900000E+01           0.13141514E+00
   0.13000000E+01           0.12477806E+00
   0.13100000E+01           0.11809328E+00
   0.13200000E+01           0.11180187E+00
   0.13300000E+01           0.10560714E+00
   0.13400000E+01           0.99992602E-01
   0.13500000E+01           0.94189711E-01
   0.13600000E+01           0.89135544E-01
   0.13700000E+01           0.83991071E-01
   0.13800000E+01           0.79233078E-01
   0.13900000E+01           0.74591241E-01
   0.14000000E+01           0.70231888E-01
   0.14100000E+01           0.65926701E-01
   0.14200000E+01           0.62107653E-01
   0.14300000E+01           0.58345408E-01
   0.14400000E+01           0.54849660E-01
   0.14500000E+01           0.51539541E-01
   0.14600000E+01           0.48242347E-01
   0.14700000E+01           0.45017517E-01
   0.14800000E+01           0.42280102E-01
   0.14900000E+01           0.39551361E-01
   0.15000000E+01           0.36840646E-01
   0.15100000E+01           0.34573980E-01
   0.15200000E+01           0.32168793E-01
   0.15300000E+01           0.29937160E-01
   0.15400000E+01           0.28011480E-01
   0.15500000E+01           0.26021599E-01
   0.15600000E+01           0.24233163E-01
   0.15700000E+01           0.22585289E-01
   0.15800000E+01           0.20951276E-01
   0.15900000E+01           0.19440306E-01
   0.16000000E+01           0.17980952E-01
   0.16100000E+01           0.16701361E-01
   0.16200000E+01           0.15490816E-01
   0.16300000E+01           0.14261735E-01
   0.16400000E+01           0.13203656E-01
   0.16500000E+01           0.12164541E-01
   0.16600000E+01           0.11215646E-01
   0.16700000E+01           0.10314116E-01
   0.16800000E+01           0.95233844E-02
   0.16900000E+01           0.87663265E-02
   0.17000000E+01           0.80395408E-02
   0.17100000E+01           0.73605442E-02
   0.17200000E+01           0.67448129E-02
   0.17300000E+01           0.62163265E-02
   0.17400000E+01           0.56540816E-02
   0.17500000E+01           0.51362245E-02
   0.17600000E+01           0.47086735E-02
   0.17700000E+01           0.42455782E-02
   0.17800000E+01           0.39238095E-02
   0.17900000E+01           0.34924320E-02
   0.18000000E+01           0.31972789E-02
   0.18100000E+01           0.29125000E-02
   0.18200000E+01           0.26518707E-02
   0.18300000E+01           0.23660714E-02
   0.18400000E+01           0.21510204E-02
   0.18500000E+01           0.19075680E-02
   0.18600000E+01           0.17548469E-02
   0.18700000E+01           0.15522959E-02
   0.18800000E+01           0.13958333E-02
   0.18900000E+01           0.12335034E-02
   0.19000000E+01           0.10942177E-02
   0.19100000E+01           0.98443878E-03
   0.19200000E+01           0.87210884E-03
   0.19300000E+01           0.76836735E-03
   0.19400000E+01           0.66726190E-03
   0.19500000E+01           0.58809524E-03
   0.19600000E+01           0.51700680E-03
   0.19700000E+01           0.43205782E-03
   0.19800000E+01           0.38826531E-03
   0.19900000E+01           0.32210884E-03
   0.20000000E+01           0.14727891E-03
 #T=   144.0000
  -0.20000000E+01           0.00000000E+00
  -0.19900000E+01           0.00000000E+00
  -0.19800000E+01           0.00000000E+00
  -0.19700000E+01           0.00000000E+00
  -0.19600000E+01           0.00000000E+00
  -0.19500000E+01           0.00000000E+00
  -0.19400000E+01           0.00000000E+00
  -0.19300000E+01           0.00000000E+00
  -0.19200000E+01           0.00000000E+00
  -0.19100000E+01           0.00000000E+00
  -0.19000000E+01           0.00000000E+00
  -0.18900000E+01           0.00000000E+00
  -0.18800000E+01           0.00000000E+00
  -0.18700000E+01           0.00000000E+00
  -0.18600000E+01           0.00000000E+00
  -0.18500000E+01           0.00000000E+00
  -0.18400000E+01           0.00000000E+00
  -0.18300000E+01           0.00000000E+00
  -0.18200000E+01           0.00000000E+00
  -0.18100000E+01           0.00000000E+00
  -0.18000000E+01           0.00000000E+00
  -0.17900000E+01           0.00000000E+00
  -0.17800000E+01           0.00000000E+00
  -0.17700000E+01           0.00000000E+00
  -0.17600000E+01           0.00000000E+00
  -0.17500000E+01           0.00000000E+00
  -0.17400000E+01           0.00000000E+00
  -0.17300000E+01           0.00000000E+00
  -0.17200000E+01           0.00000000E+00
  -0.17100000E+01           0.00000000E+00
  -0.17000000E+01           0.00000000E+00
  -0.16900000E+01           0.00000000E+00
  -0.16800000E+01           0.00000000E+00
  -0.16700000E+01           0.00000000E+00
  -0.16600000E+01           0.00000000E+00
  -0.16500000E+01           0.00000000E+00
  -0.16400000E+01           0.00000000E+00
  -0.16300000E+01           0.00000000E+00
  -0.16200000E+01           0.00000000E+00
  -0.16100000E+01           0.00000000E+00
  -0.16000000E+01           0.00000000E+00
  -0.15900000E+01           0.00000000E+00
  -0.15800000E+01           0.00000000E+00
  -0.15700000E+01           0.00000000E+00
  -0.15600000E+01           0.00000000E+00
  -0.15500000E+01           0.00000000E+00
  -0.15400000E+01           0.00000000E+00
  -0.15300000E+01           0.00000000E+00
  -0.15200000E+01           0.00000000E+00
  -0.15100000E+01           0.00000000E+00
  -0.15000000E+01           0.00000000E+00
  -0.14900000E+01           0.00000000E+00
  -0.14800000E+01           0.00000000E+00
  -0.14700000E+01           0.00000000E+00
  -0.14600000E+01           0.00000000E+00
  -0.14500000E+01           0.00000000E+00
  -0.14400000E+01           0.00000000E+00
  -0.14300000E+01           0.00000000E+00
  -0.14200000E+01           0.00000000E+00
  -0.14100000E+01           0.00000000E+00
  -0.14000000E+01           0.00000000E+00
  -0.13900000E+01           0.00000000E+00
  -0.13800000E+01           0.00000000E+00
  -0.13700000E+01           0.00000000E+00
  -0.13600000E+01           0.00000000E+00
  -0.13500000E+01           0.00000000E+00
  -0.13400000E+01           0.00000000E+00
  -0.13300000E+01           0.00000000E+00
  -0.13200000E+01           0.00000000E+00
  -0.13100000E+01           0.00000000E+00
  -0.13000000E+01           0.00000000E+00
  -0.12900000E+01           0.00000000E+00
  -0.12800000E+01           0.00000000E+00
  -0.12700000E+01           0.00000000E+00
  -0.12600000E+01           0.00000000E+00
  -0.12500000E+01           0.00000000E+00
  -0.12400000E+01           0.00000000E+00
  -0.12300000E+01           0.00000000E+00
  -0.12200000E+01           0.00000000E+00
  -0.12100000E+01           0.00000000E+00
  -0.12000000E+01           0.00000000E+00
  -0.11900000E+01           0.00000000E+00
  -0.11800000E+01           0.00000000E+00
  -0.11700000E+01           0.00000000E+00
  -0.11600000E+01           0.00000000E+00
  -0.11500000E+01           0.00000000E+00
  -0.11400000E+01           0.00000000E+00
  -0.11300000E+01           0.00000000E+00
  -0.11200000E+01           0.00000000E+00
  -0.11100000E+01           0.00000000E+00
  -0.11000000E+01           0.00000000E+00
  -0.10900000E+01           0.00000000E+00
  -0.10800000E+01           0.00000000E+00
  -0.10700000E+01           0.00000000E+00
  -0.10600000E+01           0.00000000E+00
  -0.10500000E+01           0.00000000E+00
  -0.10400000E+01           0.00000000E+00
  -0.10300000E+01           0.00000000E+00
  -0.10200000E+01           0.00000000E+00
  -0.10100000E+01           0.00000000E+00
  -0.10000000E+01           0.00000000E+00
  -0.99000000E+00           0.00000000E+00
  -0.98000000E+00           0.00000000E+00
  -0.97000000E+00           0.00000000E+00
  -0.96000000E+00           0.00000000E+00
  -0.95000000E+00           0.00000000E+00
  -0.94000000E+00           0.00000000E+00
  -0.93000000E+00           0.00000000E+00
  -0.92000000E+00           0.00000000E+00
  -0.91000000E+00           0.00000000E+00
  -0.90000000E+00           0.00000000E+00
  -0.89000000E+00           0.00000000E+00
  -0.88000000E+00           0.00000000E+00
  -0.87000000E+00           0.00000000E+00
  -0.86000000E+00           0.00000000E+00
  -0.85000000E+00           0.00000000E+00
  -0.84000000E+00           0.00000000E+00
  -0.83000000E+00           0.00000000E+00
  -0.82000000E+00           0.00000000E+00
  -0.81000000E+00           0.00000000E+00
  -0.80000000E+00           0.00000000E+00
  -0.79000000E+00           0.00000000E+00
  -0.78000000E+00           0.00000000E+00
  -0.77000000E+00           0.00000000E+00
  -0.76000000E+00           0.00000000E+00
  -0.75000000E+00           0.00000000E+00
  -0.74000000E+00           0.00000000E+00
  -0.73000000E+00           0.00000000E+00
  -0.72000000E+00           0.00000000E+00
  -0.71000000E+00           0.00000000E+00
  -0.70000000E+00           0.00000000E+00
  -0.69000000E+00           0.00000000E+00
  -0.68000000E+00           0.00000000E+00
  -0.67000000E+00           0.00000000E+00
  -0.66000000E+00           0.00000000E+00
  -0.65000000E+00           0.00000000E+00
  -0.64000000E+00           0.00000000E+00
  -0.63000000E+00           0.00000000E+00
  -0.62000000E+00           0.00000000E+00
  -0.61000000E+00           0.00000000E+00
  -0.60000000E+00           0.00000000E+00
  -0.59000000E+00           0.00000000E+00
  -0.58000000E+00           0.00000000E+00
  -0.57000000E+00           0.00000000E+00
  -0.56000000E+00           0.00000000E+00
  -0.55000000E+00           0.00000000E+00
  -0.54000000E+00           0.00000000E+00
  -0.53000000E+00           0.00000000E+00
  -0.52000000E+00           0.00000000E+00
  -0.51000000E+00           0.00000000E+00
  -0.50000000E+00           0.00000000E+00
  -0.49000000E+00           0.00000000E+00
  -0.48000000E+00           0.00000000E+00
  -0.47000000E+00           0.00000000E+00
  -0.46000000E+00           0.00000000E+00
  -0.45000000E+00           0.00000000E+00
  -0.44000000E+00           0.00000000E+00
  -0.43000000E+00           0.00000000E+00
  -0.42000000E+00           0.00000000E+00
  -0.41000000E+00           0.00000000E+00
  -0.40000000E+00           0.00000000E+00
  -0.39000000E+00           0.00000000E+00
  -0.38000000E+00           0.00000000E+00
  -0.37000000E+00           0.00000000E+00
  -0.36000000E+00           0.00000000E+00
  -0.35000000E+00           0.00000000E+00
  -0.34000000E+00           0.00000000E+00
  -0.33000000E+00           0.00000000E+00
  -0.32000000E+00           0.00000000E+00
  -0.31000000E+00           0.00000000E+00
  -0.30000000E+00           0.00000000E+00
  -0.29000000E+00           0.00000000E+00
  -0.28000000E+00           0.00000000E+00
  -0.27000000E+00           0.00000000E+00
  -0.26000000E+00           0.00000000E+00
  -0.25000000E+00           0.00000000E+00
  -0.24000000E+00           0.00000000E+00
  -0.23000000E+00           0.00000000E+00
  -0.22000000E+00           0.00000000E+00
  -0.21000000E+00           0.00000000E+00
  -0.20000000E+00           0.00000000E+00
  -0.19000000E+00           0.00000000E+00
  -0.18000000E+00           0.00000000E+00
  -0.17000000E+00           0.00000000E+00
  -0.16000000E+00           0.00000000E+00
  -0.15000000E+00           0.00000000E+00
  -0.14000000E+00           0.00000000E+00
  -0.13000000E+00           0.00000000E+00
  -0.12000000E+00           0.00000000E+00
  -0.11000000E+00           0.00000000E+00
  -0.10000000E+00           0.00000000E+00
  -0.90000000E-01           0.00000000E+00
  -0.80000000E-01           0.00000000E+00
  -0.70000000E-01           0.00000000E+00
  -0.60000000E-01           0.00000000E+00
  -0.50000000E-01           0.00000000E+00
  -0.40000000E-01           0.00000000E+00
  -0.30000000E-01           0.00000000E+00
  -0.20000000E-01           0.00000000E+00
  -0.10000000E-01           0.00000000E+00
   0.00000000E+00           0.55453231E-02
   0.10000000E-01           0.44508333E-01
   0.20000000E-01           0.88859864E-01
   0.30000000E-01           0.13284711E+00
   0.40000000E-01           0.17699498E+00
   0.50000000E-01           0.22056284E+00
   0.60000000E-01           0.26418537E+00
   0.70000000E-01           0.30696616E+00
   0.80000000E-01           0.35056454E+00
   0.90000000E-01           0.39243376E+00
   0.10000000E+00           0.43384252E+00
   0.11000000E+00           0.47567355E+00
   0.12000000E+00           0.51560876E+00
   0.13000000E+00           0.55571156E+00
   0.14000000E+00           0.59506956E+00
   0.15000000E+00           0.63339838E+00
   0.16000000E+00           0.67084133E+00
   0.17000000E+00           0.70763954E+00
   0.18000000E+00           0.74340306E+00
   0.19000000E+00           0.77877883E+00
   0.20000000E+00           0.81301063E+00
   0.21000000E+00           0.84687628E+00
   0.22000000E+00           0.87742313E+00
   0.23000000E+00           0.90979150E+00
   0.24000000E+00           0.93862117E+00
   0.25000000E+00           0.96694039E+00
   0.26000000E+00           0.99450493E+00
   0.27000000E+00           0.10211388E+01
   0.28000000E+00           0.10462574E+01
   0.29000000E+00           0.10699906E+01
   0.30000000E+00           0.10932410E+01
   0.31000000E+00           0.11152823E+01
   0.32000000E+00           0.11349011E+01
   0.33000000E+00           0.11548168E+01
   0.34000000E+00           0.11715145E+01
   0.35000000E+00           0.11870739E+01
   0.36000000E+00           0.12026095E+01
   0.37000000E+00           0.12162250E+01
   0.38000000E+00           0.12294612E+01
   0.39000000E+00           0.12411884E+01
   0.40000000E+00           0.12505731E+01
   0.41000000E+00           0.12591616E+01
   0.42000000E+00           0.12658560E+01
   0.43000000E+00           0.12733853E+01
   0.44000000E+00           0.12782159E+01
   0.45000000E+00           0.12818120E+01
   0.46000000E+00           0.12849810E+01
   0.47000000E+00           0.12857180E+01
   0.48000000E+00           0.12851936E+01
   0.49000000E+00           0.12842795E+01
[...]
   0.13800000E+01           0.41790230E+00
   0.13900000E+01           0.40932713E+00
   0.14000000E+01           0.40144490E+00
   0.14100000E+01           0.39319549E+00
   0.14200000E+01           0.38491344E+00
   0.14300000E+01           0.37686896E+00
   0.14400000E+01           0.36843027E+00
   0.14500000E+01           0.36049184E+00
   0.14600000E+01           0.35305017E+00
   0.14700000E+01           0.34507202E+00
   0.14800000E+01           0.33780451E+00
   0.14900000E+01           0.32985791E+00
   0.15000000E+01           0.32235366E+00
   0.15100000E+01           0.31509643E+00
   0.15200000E+01           0.30809600E+00
   0.15300000E+01           0.30056633E+00
   0.15400000E+01           0.29384048E+00
   0.15500000E+01           0.28646769E+00
   0.15600000E+01           0.27982066E+00
   0.15700000E+01           0.27279592E+00
   0.15800000E+01           0.26607219E+00
   0.15900000E+01           0.25973087E+00
   0.16000000E+01           0.25306862E+00
   0.16100000E+01           0.24671692E+00
   0.16200000E+01           0.24048503E+00
   0.16300000E+01           0.23407092E+00
   0.16400000E+01           0.22854617E+00
   0.16500000E+01           0.22255434E+00
   0.16600000E+01           0.21641318E+00
   0.16700000E+01           0.21078146E+00
   0.16800000E+01           0.20532253E+00
   0.16900000E+01           0.19974847E+00
   0.17000000E+01           0.19413954E+00
   0.17100000E+01           0.18886956E+00
   0.17200000E+01           0.18382942E+00
   0.17300000E+01           0.17857925E+00
   0.17400000E+01           0.17366063E+00
   0.17500000E+01           0.16892483E+00
   0.17600000E+01           0.16408801E+00
   0.17700000E+01           0.15918929E+00
   0.17800000E+01           0.15473359E+00
   0.17900000E+01           0.15049745E+00
   0.18000000E+01           0.14571726E+00
   0.18100000E+01           0.14144243E+00
   0.18200000E+01           0.13727491E+00
   0.18300000E+01           0.13328461E+00
   0.18400000E+01           0.12918554E+00
   0.18500000E+01           0.12534201E+00
   0.18600000E+01           0.12138512E+00
   0.18700000E+01           0.11769872E+00
   0.18800000E+01           0.11401548E+00
   0.18900000E+01           0.11063053E+00
   0.19000000E+01           0.10719932E+00
   0.19100000E+01           0.10368852E+00
   0.19200000E+01           0.10048580E+00
   0.19300000E+01           0.97056293E-01
   0.19400000E+01           0.94100850E-01
   0.19500000E+01           0.91122109E-01
   0.19600000E+01           0.88216837E-01
   0.19700000E+01           0.85134524E-01
   0.19800000E+01           0.82262075E-01
   0.19900000E+01           0.79692857E-01
   0.20000000E+01           0.39003316E-01
 #T=   259.0000
  -0.20000000E+01           0.00000000E+00
  -0.19900000E+01           0.00000000E+00
  -0.19800000E+01           0.00000000E+00
  -0.19700000E+01           0.00000000E+00
  -0.19600000E+01           0.00000000E+00
  -0.19500000E+01           0.00000000E+00
  -0.19400000E+01           0.00000000E+00
  -0.19300000E+01           0.00000000E+00
  -0.19200000E+01           0.00000000E+00
  -0.19100000E+01           0.00000000E+00
  -0.19000000E+01           0.00000000E+00
  -0.18900000E+01           0.00000000E+00
  -0.18800000E+01           0.00000000E+00
  -0.18700000E+01           0.00000000E+00
  -0.18600000E+01           0.00000000E+00
  -0.18500000E+01           0.00000000E+00
  -0.18400000E+01           0.00000000E+00
  -0.18300000E+01           0.00000000E+00
  -0.18200000E+01           0.00000000E+00
  -0.18100000E+01           0.00000000E+00
  -0.18000000E+01           0.00000000E+00
  -0.17900000E+01           0.00000000E+00
  -0.17800000E+01           0.00000000E+00
  -0.17700000E+01           0.00000000E+00
  -0.17600000E+01           0.00000000E+00
  -0.17500000E+01           0.00000000E+00
  -0.17400000E+01           0.00000000E+00
  -0.17300000E+01           0.00000000E+00
  -0.17200000E+01           0.00000000E+00
  -0.17100000E+01           0.00000000E+00
  -0.17000000E+01           0.00000000E+00
  -0.16900000E+01           0.00000000E+00
  -0.16800000E+01           0.00000000E+00
  -0.16700000E+01           0.00000000E+00
  -0.16600000E+01           0.00000000E+00
  -0.16500000E+01           0.00000000E+00
  -0.16400000E+01           0.00000000E+00
  -0.16300000E+01           0.00000000E+00
  -0.16200000E+01           0.00000000E+00
  -0.16100000E+01           0.00000000E+00
  -0.16000000E+01           0.00000000E+00
  -0.15900000E+01           0.00000000E+00
  -0.15800000E+01           0.00000000E+00
  -0.15700000E+01           0.00000000E+00
  -0.15600000E+01           0.00000000E+00
  -0.15500000E+01           0.00000000E+00
  -0.15400000E+01           0.00000000E+00
  -0.15300000E+01           0.00000000E+00
  -0.15200000E+01           0.00000000E+00
  -0.15100000E+01           0.00000000E+00
  -0.15000000E+01           0.00000000E+00
  -0.14900000E+01           0.00000000E+00
  -0.14800000E+01           0.00000000E+00
  -0.14700000E+01           0.00000000E+00
  -0.14600000E+01           0.00000000E+00
  -0.14500000E+01           0.00000000E+00
  -0.14400000E+01           0.00000000E+00
  -0.14300000E+01           0.00000000E+00
  -0.14200000E+01           0.00000000E+00
  -0.14100000E+01           0.00000000E+00
  -0.14000000E+01           0.00000000E+00
  -0.13900000E+01           0.00000000E+00
  -0.13800000E+01           0.00000000E+00
  -0.13700000E+01           0.00000000E+00
  -0.13600000E+01           0.00000000E+00
  -0.13500000E+01           0.00000000E+00
  -0.13400000E+01           0.00000000E+00
  -0.13300000E+01           0.00000000E+00
  -0.13200000E+01           0.00000000E+00
  -0.13100000E+01           0.00000000E+00
  -0.13000000E+01           0.00000000E+00
  -0.12900000E+01           0.00000000E+00
  -0.12800000E+01           0.00000000E+00
  -0.12700000E+01           0.00000000E+00
  -0.12600000E+01           0.00000000E+00
  -0.12500000E+01           0.00000000E+00
  -0.12400000E+01           0.00000000E+00
  -0.12300000E+01           0.00000000E+00
  -0.12200000E+01           0.00000000E+00
  -0.12100000E+01           0.00000000E+00
  -0.12000000E+01           0.00000000E+00
  -0.11900000E+01           0.00000000E+00
  -0.11800000E+01           0.00000000E+00
  -0.11700000E+01           0.00000000E+00
  -0.11600000E+01           0.00000000E+00
  -0.11500000E+01           0.00000000E+00
  -0.11400000E+01           0.00000000E+00
  -0.11300000E+01           0.00000000E+00
  -0.11200000E+01           0.00000000E+00
  -0.11100000E+01           0.00000000E+00
  -0.11000000E+01           0.00000000E+00
  -0.10900000E+01           0.00000000E+00
  -0.10800000E+01           0.00000000E+00
  -0.10700000E+01           0.00000000E+00
  -0.10600000E+01           0.00000000E+00
  -0.10500000E+01           0.00000000E+00
  -0.10400000E+01           0.00000000E+00
  -0.10300000E+01           0.00000000E+00
  -0.10200000E+01           0.00000000E+00
  -0.10100000E+01           0.00000000E+00
  -0.10000000E+01           0.00000000E+00
  -0.99000000E+00           0.00000000E+00
  -0.98000000E+00           0.00000000E+00
  -0.97000000E+00           0.00000000E+00
  -0.96000000E+00           0.00000000E+00
  -0.95000000E+00           0.00000000E+00
  -0.94000000E+00           0.00000000E+00
  -0.93000000E+00           0.00000000E+00
  -0.92000000E+00           0.00000000E+00
  -0.91000000E+00           0.00000000E+00
  -0.90000000E+00           0.00000000E+00
  -0.89000000E+00           0.00000000E+00
  -0.88000000E+00           0.00000000E+00
  -0.87000000E+00           0.00000000E+00
  -0.86000000E+00           0.00000000E+00
  -0.85000000E+00           0.00000000E+00
  -0.84000000E+00           0.00000000E+00
  -0.83000000E+00           0.00000000E+00
  -0.82000000E+00           0.00000000E+00
  -0.81000000E+00           0.00000000E+00
  -0.80000000E+00           0.00000000E+00
  -0.79000000E+00           0.00000000E+00
  -0.78000000E+00           0.00000000E+00
  -0.77000000E+00           0.00000000E+00
  -0.76000000E+00           0.00000000E+00
  -0.75000000E+00           0.00000000E+00
  -0.74000000E+00           0.00000000E+00
  -0.73000000E+00           0.00000000E+00
  -0.72000000E+00           0.00000000E+00
  -0.71000000E+00           0.00000000E+00
  -0.70000000E+00           0.00000000E+00
  -0.69000000E+00           0.00000000E+00
  -0.68000000E+00           0.00000000E+00
  -0.67000000E+00           0.00000000E+00
  -0.66000000E+00           0.00000000E+00
  -0.65000000E+00           0.00000000E+00
  -0.64000000E+00           0.00000000E+00
  -0.63000000E+00           0.00000000E+00
  -0.62000000E+00           0.00000000E+00
  -0.61000000E+00           0.00000000E+00
  -0.60000000E+00           0.00000000E+00
  -0.59000000E+00           0.00000000E+00
  -0.58000000E+00           0.00000000E+00
  -0.57000000E+00           0.00000000E+00
  -0.56000000E+00           0.00000000E+00
  -0.55000000E+00           0.00000000E+00
  -0.54000000E+00           0.00000000E+00
  -0.53000000E+00           0.00000000E+00
  -0.52000000E+00           0.00000000E+00
  -0.51000000E+00           0.00000000E+00
  -0.50000000E+00           0.00000000E+00
  -0.49000000E+00           0.00000000E+00
  -0.48000000E+00           0.00000000E+00
  -0.47000000E+00           0.00000000E+00
  -0.46000000E+00           0.00000000E+00
  -0.45000000E+00           0.00000000E+00
  -0.44000000E+00           0.00000000E+00
  -0.43000000E+00           0.00000000E+00
  -0.42000000E+00           0.00000000E+00
  -0.41000000E+00           0.00000000E+00
  -0.40000000E+00           0.00000000E+00
  -0.39000000E+00           0.00000000E+00
  -0.38000000E+00           0.00000000E+00
  -0.37000000E+00           0.00000000E+00
  -0.36000000E+00           0.00000000E+00
  -0.35000000E+00           0.00000000E+00
  -0.34000000E+00           0.00000000E+00
  -0.33000000E+00           0.00000000E+00
  -0.32000000E+00           0.00000000E+00
  -0.31000000E+00           0.00000000E+00
  -0.30000000E+00           0.00000000E+00
  -0.29000000E+00           0.00000000E+00
  -0.28000000E+00           0.00000000E+00
  -0.27000000E+00           0.00000000E+00
  -0.26000000E+00           0.00000000E+00
  -0.25000000E+00           0.00000000E+00
  -0.24000000E+00           0.00000000E+00
  -0.23000000E+00           0.00000000E+00
  -0.22000000E+00           0.00000000E+00
  -0.21000000E+00           0.00000000E+00
  -0.20000000E+00           0.00000000E+00
  -0.19000000E+00           0.00000000E+00
  -0.18000000E+00           0.00000000E+00
  -0.17000000E+00           0.00000000E+00
  -0.16000000E+00           0.00000000E+00
  -0.15000000E+00           0.00000000E+00
  -0.14000000E+00           0.00000000E+00
  -0.13000000E+00           0.00000000E+00
  -0.12000000E+00           0.00000000E+00
  -0.11000000E+00           0.00000000E+00
  -0.10000000E+00           0.00000000E+00
  -0.90000000E-01           0.00000000E+00
  -0.80000000E-01           0.00000000E+00
  -0.70000000E-01           0.00000000E+00
  -0.60000000E-01           0.00000000E+00
  -0.50000000E-01           0.00000000E+00
  -0.40000000E-01           0.00000000E+00
  -0.30000000E-01           0.00000000E+00
  -0.20000000E-01           0.00000000E+00
  -0.10000000E-01           0.00000000E+00
   0.00000000E+00           0.25085034E-02
   0.10000000E-01           0.20295578E-01
   0.20000000E-01           0.40624320E-01
   0.30000000E-01           0.60923980E-01
   0.40000000E-01           0.81232483E-01
   0.50000000E-01           0.10142194E+00
   0.60000000E-01           0.12167228E+00
   0.70000000E-01           0.14170876E+00
   0.80000000E-01           0.16154167E+00
   0.90000000E-01           0.18135017E+00
   0.10000000E+00           0.20113435E+00
   0.11000000E+00           0.22093597E+00
   0.12000000E+00           0.24039209E+00
   0.13000000E+00           0.25983061E+00
   0.14000000E+00           0.27923971E+00
   0.15000000E+00           0.29860510E+00
   0.16000000E+00           0.31728495E+00
   0.17000000E+00           0.33603308E+00
   0.18000000E+00           0.35425187E+00
   0.19000000E+00           0.37289235E+00
   0.20000000E+00           0.39041122E+00
   0.21000000E+00           0.40884838E+00
   0.22000000E+00           0.42610791E+00
   0.23000000E+00           0.44331020E+00
   0.24000000E+00           0.46068027E+00
   0.25000000E+00           0.47800340E+00
   0.26000000E+00           0.49397798E+00
   0.27000000E+00           0.50988257E+00
   0.28000000E+00           0.52625918E+00
   0.29000000E+00           0.54186701E+00
   0.30000000E+00           0.55804303E+00
   0.31000000E+00           0.57213333E+00
   0.32000000E+00           0.58727891E+00
   0.33000000E+00           0.60185408E+00
   0.34000000E+00           0.61570408E+00
   0.35000000E+00           0.62928078E+00
   0.36000000E+00           0.64276667E+00
   0.37000000E+00           0.65626684E+00
   0.38000000E+00           0.66872160E+00
   0.39000000E+00           0.68002372E+00
   0.40000000E+00           0.69293231E+00
   0.41000000E+00           0.70479039E+00
   0.42000000E+00           0.71529796E+00
   0.43000000E+00           0.72659957E+00
   0.44000000E+00           0.73687857E+00
   0.45000000E+00           0.74660867E+00
   0.46000000E+00           0.75645196E+00
   0.47000000E+00           0.76608597E+00
   0.48000000E+00           0.77474745E+00
   0.49000000E+00           0.78282474E+00
   0.50000000E+00           0.79115077E+00
   0.51000000E+00           0.79889345E+00
   0.52000000E+00           0.80657798E+00
   0.53000000E+00           0.81290060E+00
   0.54000000E+00           0.81960519E+00
   0.55000000E+00           0.82579243E+00
   0.56000000E+00           0.83145714E+00
   0.57000000E+00           0.83621276E+00
   0.58000000E+00           0.84131207E+00
   0.59000000E+00           0.84597798E+00
   0.60000000E+00           0.85016131E+00
   0.61000000E+00           0.85403920E+00
   0.62000000E+00           0.85704252E+00
   0.63000000E+00           0.86061216E+00
   0.64000000E+00           0.86268878E+00
   0.65000000E+00           0.86500128E+00
   0.66000000E+00           0.86696114E+00
   0.67000000E+00           0.86812925E+00
   0.68000000E+00           0.86979056E+00
   0.69000000E+00           0.87029515E+00
   0.70000000E+00           0.87050366E+00
   0.71000000E+00           0.87056684E+00
   0.72000000E+00           0.87061658E+00
   0.73000000E+00           0.86982959E+00
   0.74000000E+00           0.86866624E+00
   0.75000000E+00           0.86771573E+00
   0.76000000E+00           0.86571488E+00
   0.77000000E+00           0.86390451E+00
   0.78000000E+00           0.86167449E+00
   0.79000000E+00           0.85932185E+00
   0.80000000E+00           0.85605077E+00
   0.81000000E+00           0.85333257E+00
   0.82000000E+00           0.85024422E+00
   0.83000000E+00           0.84655995E+00
   0.84000000E+00           0.84230646E+00
   0.85000000E+00           0.83830757E+00
   0.86000000E+00           0.83388444E+00
   0.87000000E+00           0.82873699E+00
   0.88000000E+00           0.82333980E+00
   0.89000000E+00           0.81877874E+00
   0.90000000E+00           0.81293087E+00
   0.91000000E+00           0.80690374E+00
   0.92000000E+00           0.80150884E+00
   0.93000000E+00           0.79506207E+00
   0.94000000E+00           0.78836718E+00
   0.95000000E+00           0.78294617E+00
   0.96000000E+00           0.77570272E+00
   0.97000000E+00           0.76939141E+00
   0.98000000E+00           0.76193291E+00
   0.99000000E+00           0.75539711E+00
   0.10000000E+01           0.74763665E+00
   0.10100000E+01           0.73988580E+00
   0.10200000E+01           0.73223818E+00
   0.10300000E+01           0.72433036E+00
   0.10400000E+01           0.71708121E+00
   0.10500000E+01           0.70854371E+00
   0.10600000E+01           0.69986735E+00
   0.10700000E+01           0.69198189E+00
   0.10800000E+01           0.68386369E+00
   0.10900000E+01           0.67535408E+00
   0.11000000E+01           0.66667619E+00
   0.11100000E+01           0.65809677E+00
   0.11200000E+01           0.64956709E+00
   0.11300000E+01           0.64136650E+00
   0.11400000E+01           0.63262696E+00
   0.11500000E+01           0.62323937E+00
   0.11600000E+01           0.61461156E+00
   0.11700000E+01           0.60589592E+00
   0.11800000E+01           0.59725204E+00
   0.11900000E+01           0.58788980E+00
   0.12000000E+01           0.57849864E+00
   0.12100000E+01           0.56985655E+00
   0.12200000E+01           0.56098002E+00
   0.12300000E+01           0.55210757E+00
   0.12400000E+01           0.54300952E+00
   0.12500000E+01           0.53412151E+00
   0.12600000E+01           0.52484218E+00
   0.12700000E+01           0.51601871E+00
   0.12800000E+01           0.50713784E+00
   0.12900000E+01           0.49802704E+00
   0.13000000E+01           0.48928061E+00
   0.13100000E+01           0.48058053E+00
   0.13200000E+01           0.47212109E+00
   0.13300000E+01           0.46283818E+00
   0.13400000E+01           0.45438036E+00
   0.13500000E+01           0.44555485E+00
   0.13600000E+01           0.43761505E+00
   0.13700000E+01           0.42833639E+00
   0.13800000E+01           0.42020349E+00
   0.13900000E+01           0.41162798E+00
   0.14000000E+01           0.40349872E+00
   0.14100000E+01           0.39524243E+00
   0.14200000E+01           0.38700230E+00
   0.14300000E+01           0.37895493E+00
   0.14400000E+01           0.37096037E+00
   0.14500000E+01           0.36295119E+00
   0.14600000E+01           0.35544430E+00
   0.14700000E+01           0.34747296E+00
   0.14800000E+01           0.33948180E+00
   0.14900000E+01           0.33192917E+00
   0.15000000E+01           0.32475952E+00
   0.15100000E+01           0.31734566E+00
   0.15200000E+01           0.31000425E+00
   0.15300000E+01           0.30263971E+00
   0.15400000E+01           0.29537321E+00
   0.15500000E+01           0.28857781E+00
   0.15600000E+01           0.28151182E+00
   0.15700000E+01           0.27510170E+00
   0.15800000E+01           0.26814626E+00
   0.15900000E+01           0.26161199E+00
   0.16000000E+01           0.25507381E+00
   0.16100000E+01           0.24870417E+00
   0.16200000E+01           0.24252747E+00
   0.16300000E+01           0.23627806E+00
   0.16400000E+01           0.23032058E+00
   0.16500000E+01           0.22439167E+00
   0.16600000E+01           0.21819294E+00
   0.16700000E+01           0.21269184E+00
   0.16800000E+01           0.20708776E+00
   0.16900000E+01           0.20153155E+00
   0.17000000E+01           0.19602891E+00
   0.17100000E+01           0.19041718E+00
   0.17200000E+01           0.18551335E+00
   0.17300000E+01           0.18056037E+00
   0.17400000E+01           0.17544464E+00
   0.17500000E+01           0.17057738E+00
   0.17600000E+01           0.16572109E+00
   0.17700000E+01           0.16111505E+00
   0.17800000E+01           0.15645000E+00
   0.17900000E+01           0.15199864E+00
   0.18000000E+01           0.14734124E+00
   0.18100000E+01           0.14324643E+00
   0.18200000E+01           0.13882024E+00
   0.18300000E+01           0.13480740E+00
   0.18400000E+01           0.13076658E+00
   0.18500000E+01           0.12666267E+00
   0.18600000E+01           0.12285366E+00
   0.18700000E+01           0.11916616E+00
   0.18800000E+01           0.11570544E+00
   0.18900000E+01           0.11193741E+00
   0.19000000E+01           0.10832594E+00
   0.19100000E+01           0.10508767E+00
   0.19200000E+01           0.10172968E+00
   0.19300000E+01           0.98502976E-01
   0.19400000E+01           0.95602551E-01
   0.19500000E+01           0.92506973E-01
   0.19600000E+01           0.89258844E-01
   0.19700000E+01           0.86437840E-01
   0.19800000E+01           0.83740646E-01
   0.19900000E+01           0.81008759E-01
   0.20000000E+01           0.39392007E-01
