 #written on 26Aug2024 at 14:19:18 
 #----------------- MONTECARLO -------------------#
 #        M                      P(M)             #
 #------------------------------------------------#
 #T=    30.0000
  -0.40000000E+01           0.00000000E+00
  -0.39900000E+01           0.00000000E+00
  -0.39800000E+01           0.00000000E+00
  -0.39700000E+01           0.00000000E+00
  -0.39600000E+01           0.00000000E+00
  -0.39500000E+01           0.00000000E+00
  -0.39400000E+01           0.00000000E+00
  -0.39300000E+01           0.00000000E+00
  -0.39200000E+01           0.00000000E+00
  -0.39100000E+01           0.00000000E+00
  -0.39000000E+01           0.00000000E+00
  -0.38900000E+01           0.00000000E+00
  -0.38800000E+01           0.00000000E+00
  -0.38700000E+01           0.00000000E+00
  -0.38600000E+01           0.00000000E+00
  -0.38500000E+01           0.00000000E+00
  -0.38400000E+01           0.00000000E+00
  -0.38300000E+01           0.00000000E+00
  -0.38200000E+01           0.00000000E+00
  -0.38100000E+01           0.00000000E+00
  -0.38000000E+01           0.00000000E+00
  -0.37900000E+01           0.00000000E+00
  -0.37800000E+01           0.00000000E+00
  -0.37700000E+01           0.00000000E+00
  -0.37600000E+01           0.00000000E+00
  -0.37500000E+01           0.00000000E+00
  -0.37400000E+01           0.00000000E+00
  -0.37300000E+01           0.00000000E+00
  -0.37200000E+01           0.00000000E+00
  -0.37100000E+01           0.00000000E+00
  -0.37000000E+01           0.00000000E+00
  -0.36900000E+01           0.00000000E+00
  -0.36800000E+01           0.00000000E+00
  -0.36700000E+01           0.00000000E+00
  -0.36600000E+01           0.00000000E+00
  -0.36500000E+01           0.00000000E+00
  -0.36400000E+01           0.00000000E+00
  -0.36300000E+01           0.00000000E+00
  -0.36200000E+01           0.00000000E+00
  -0.36100000E+01           0.00000000E+00
  -0.36000000E+01           0.00000000E+00
  -0.35900000E+01           0.00000000E+00
  -0.35800000E+01           0.00000000E+00
  -0.35700000E+01           0.00000000E+00
  -0.35600000E+01           0.00000000E+00
  -0.35500000E+01           0.00000000E+00
  -0.35400000E+01           0.00000000E+00
  -0.35300000E+01           0.00000000E+00
  -0.35200000E+01           0.00000000E+00
  -0.35100000E+01           0.00000000E+00
  -0.35000000E+01           0.00000000E+00
  -0.34900000E+01           0.00000000E+00
  -0.34800000E+01           0.00000000E+00
  -0.34700000E+01           0.00000000E+00
  -0.34600000E+01           0.00000000E+00
  -0.34500000E+01           0.00000000E+00
  -0.34400000E+01           0.00000000E+00
  -0.34300000E+01           0.00000000E+00
  -0.34200000E+01           0.00000000E+00
  -0.34100000E+01           0.00000000E+00
  -0.34000000E+01           0.00000000E+00
  -0.33900000E+01           0.00000000E+00
  -0.33800000E+01           0.00000000E+00
  -0.33700000E+01           0.00000000E+00
  -0.33600000E+01           0.00000000E+00
  -0.33500000E+01           0.00000000E+00
  -0.33400000E+01           0.00000000E+00
  -0.33300000E+01           0.00000000E+00
  -0.33200000E+01           0.00000000E+00
  -0.33100000E+01           0.00000000E+00
  -0.33000000E+01           0.00000000E+00
  -0.32900000E+01           0.00000000E+00
  -0.32800000E+01           0.00000000E+00
  -0.32700000E+01           0.00000000E+00
  -0.32600000E+01           0.00000000E+00
  -0.32500000E+01           0.00000000E+00
  -0.32400000E+01           0.00000000E+00
  -0.32300000E+01           0.00000000E+00
  -0.32200000E+01           0.00000000E+00
  -0.32100000E+01           0.00000000E+00
  -0.32000000E+01           0.00000000E+00
  -0.31900000E+01           0.00000000E+00
  -0.31800000E+01           0.00000000E+00
  -0.31700000E+01           0.00000000E+00
  -0.31600000E+01           0.00000000E+00
  -0.31500000E+01           0.00000000E+00
  -0.31400000E+01           0.00000000E+00
  -0.31300000E+01           0.00000000E+00
  -0.31200000E+01           0.00000000E+00
  -0.31100000E+01           0.00000000E+00
  -0.31000000E+01           0.00000000E+00
  -0.30900000E+01           0.00000000E+00
  -0.30800000E+01           0.00000000E+00
  -0.30700000E+01           0.00000000E+00
  -0.30600000E+01           0.00000000E+00
  -0.30500000E+01           0.00000000E+00
  -0.30400000E+01           0.00000000E+00
  -0.30300000E+01           0.00000000E+00
  -0.30200000E+01           0.00000000E+00
  -0.30100000E+01           0.00000000E+00
  -0.30000000E+01           0.00000000E+00
  -0.29900000E+01           0.00000000E+00
  -0.29800000E+01           0.00000000E+00
  -0.29700000E+01           0.00000000E+00
  -0.29600000E+01           0.00000000E+00
  -0.29500000E+01           0.00000000E+00
  -0.29400000E+01           0.00000000E+00
  -0.29300000E+01           0.00000000E+00
  -0.29200000E+01           0.00000000E+00
  -0.29100000E+01           0.00000000E+00
  -0.29000000E+01           0.00000000E+00
  -0.28900000E+01           0.00000000E+00
  -0.28800000E+01           0.00000000E+00
  -0.28700000E+01           0.00000000E+00
  -0.28600000E+01           0.00000000E+00
  -0.28500000E+01           0.00000000E+00
  -0.28400000E+01           0.00000000E+00
  -0.28300000E+01           0.00000000E+00
  -0.28200000E+01           0.00000000E+00
  -0.28100000E+01           0.00000000E+00
  -0.28000000E+01           0.00000000E+00
  -0.27900000E+01           0.00000000E+00
  -0.27800000E+01           0.00000000E+00
  -0.27700000E+01           0.00000000E+00
  -0.27600000E+01           0.00000000E+00
  -0.27500000E+01           0.00000000E+00
  -0.27400000E+01           0.00000000E+00
  -0.27300000E+01           0.00000000E+00
  -0.27200000E+01           0.00000000E+00
  -0.27100000E+01           0.00000000E+00
  -0.27000000E+01           0.00000000E+00
  -0.26900000E+01           0.00000000E+00
  -0.26800000E+01           0.00000000E+00
  -0.26700000E+01           0.00000000E+00
  -0.26600000E+01           0.00000000E+00
  -0.26500000E+01           0.00000000E+00
  -0.26400000E+01           0.00000000E+00
  -0.26300000E+01           0.00000000E+00
  -0.26200000E+01           0.00000000E+00
  -0.26100000E+01           0.00000000E+00
  -0.26000000E+01           0.00000000E+00
  -0.25900000E+01           0.00000000E+00
  -0.25800000E+01           0.00000000E+00
  -0.25700000E+01           0.00000000E+00
  -0.25600000E+01           0.00000000E+00
  -0.25500000E+01           0.00000000E+00
  -0.25400000E+01           0.00000000E+00
  -0.25300000E+01           0.00000000E+00
  -0.25200000E+01           0.00000000E+00
  -0.25100000E+01           0.00000000E+00
  -0.25000000E+01           0.00000000E+00
  -0.24900000E+01           0.00000000E+00
  -0.24800000E+01           0.00000000E+00
  -0.24700000E+01           0.00000000E+00
  -0.24600000E+01           0.00000000E+00
  -0.24500000E+01           0.00000000E+00
  -0.24400000E+01           0.00000000E+00
  -0.24300000E+01           0.00000000E+00
  -0.24200000E+01           0.00000000E+00
  -0.24100000E+01           0.00000000E+00
  -0.24000000E+01           0.00000000E+00
  -0.23900000E+01           0.00000000E+00
  -0.23800000E+01           0.00000000E+00
  -0.23700000E+01           0.00000000E+00
  -0.23600000E+01           0.00000000E+00
  -0.23500000E+01           0.00000000E+00
  -0.23400000E+01           0.00000000E+00
  -0.23300000E+01           0.00000000E+00
  -0.23200000E+01           0.00000000E+00
  -0.23100000E+01           0.00000000E+00
  -0.23000000E+01           0.00000000E+00
  -0.22900000E+01           0.00000000E+00
  -0.22800000E+01           0.00000000E+00
  -0.22700000E+01           0.00000000E+00
  -0.22600000E+01           0.00000000E+00
  -0.22500000E+01           0.00000000E+00
  -0.22400000E+01           0.00000000E+00
  -0.22300000E+01           0.00000000E+00
  -0.22200000E+01           0.00000000E+00
  -0.22100000E+01           0.00000000E+00
  -0.22000000E+01           0.00000000E+00
  -0.21900000E+01           0.00000000E+00
  -0.21800000E+01           0.00000000E+00
  -0.21700000E+01           0.00000000E+00
  -0.21600000E+01           0.00000000E+00
  -0.21500000E+01           0.00000000E+00
  -0.21400000E+01           0.00000000E+00
  -0.21300000E+01           0.00000000E+00
  -0.21200000E+01           0.00000000E+00
  -0.21100000E+01           0.00000000E+00
  -0.21000000E+01           0.00000000E+00
  -0.20900000E+01           0.00000000E+00
  -0.20800000E+01           0.00000000E+00
  -0.20700000E+01           0.00000000E+00
  -0.20600000E+01           0.00000000E+00
  -0.20500000E+01           0.00000000E+00
  -0.20400000E+01           0.00000000E+00
  -0.20300000E+01           0.00000000E+00
  -0.20200000E+01           0.00000000E+00
  -0.20100000E+01           0.00000000E+00
  -0.20000000E+01           0.00000000E+00
  -0.19900000E+01           0.00000000E+00
  -0.19800000E+01           0.00000000E+00
  -0.19700000E+01           0.00000000E+00
  -0.19600000E+01           0.00000000E+00
  -0.19500000E+01           0.00000000E+00
  -0.19400000E+01           0.00000000E+00
  -0.19300000E+01           0.00000000E+00
  -0.19200000E+01           0.00000000E+00
  -0.19100000E+01           0.00000000E+00
  -0.19000000E+01           0.00000000E+00
  -0.18900000E+01           0.00000000E+00
  -0.18800000E+01           0.00000000E+00
  -0.18700000E+01           0.00000000E+00
  -0.18600000E+01           0.00000000E+00
  -0.18500000E+01           0.00000000E+00
  -0.18400000E+01           0.00000000E+00
  -0.18300000E+01           0.00000000E+00
  -0.18200000E+01           0.00000000E+00
  -0.18100000E+01           0.00000000E+00
  -0.18000000E+01           0.00000000E+00
  -0.17900000E+01           0.00000000E+00
  -0.17800000E+01           0.00000000E+00
  -0.17700000E+01           0.00000000E+00
  -0.17600000E+01           0.00000000E+00
  -0.17500000E+01           0.00000000E+00
  -0.17400000E+01           0.00000000E+00
  -0.17300000E+01           0.00000000E+00
  -0.17200000E+01           0.00000000E+00
  -0.17100000E+01           0.00000000E+00
  -0.17000000E+01           0.00000000E+00
  -0.16900000E+01           0.00000000E+00
  -0.16800000E+01           0.00000000E+00
  -0.16700000E+01           0.00000000E+00
  -0.16600000E+01           0.00000000E+00
  -0.16500000E+01           0.00000000E+00
  -0.16400000E+01           0.00000000E+00
  -0.16300000E+01           0.00000000E+00
  -0.16200000E+01           0.00000000E+00
  -0.16100000E+01           0.00000000E+00
  -0.16000000E+01           0.00000000E+00
  -0.15900000E+01           0.00000000E+00
  -0.15800000E+01           0.00000000E+00
  -0.15700000E+01           0.00000000E+00
  -0.15600000E+01           0.00000000E+00
  -0.15500000E+01           0.00000000E+00
  -0.15400000E+01           0.00000000E+00
  -0.15300000E+01           0.00000000E+00
  -0.15200000E+01           0.00000000E+00
  -0.15100000E+01           0.00000000E+00
  -0.15000000E+01           0.00000000E+00
  -0.14900000E+01           0.00000000E+00
  -0.14800000E+01           0.00000000E+00
  -0.14700000E+01           0.00000000E+00
  -0.14600000E+01           0.00000000E+00
  -0.14500000E+01           0.00000000E+00
  -0.14400000E+01           0.00000000E+00
  -0.14300000E+01           0.00000000E+00
  -0.14200000E+01           0.00000000E+00
  -0.14100000E+01           0.00000000E+00
  -0.14000000E+01           0.00000000E+00
  -0.13900000E+01           0.00000000E+00
  -0.13800000E+01           0.00000000E+00
  -0.13700000E+01           0.00000000E+00
  -0.13600000E+01           0.00000000E+00
  -0.13500000E+01           0.00000000E+00
  -0.13400000E+01           0.00000000E+00
  -0.13300000E+01           0.00000000E+00
  -0.13200000E+01           0.00000000E+00
  -0.13100000E+01           0.00000000E+00
  -0.13000000E+01           0.00000000E+00
  -0.12900000E+01           0.00000000E+00
  -0.12800000E+01           0.00000000E+00
  -0.12700000E+01           0.00000000E+00
  -0.12600000E+01           0.00000000E+00
  -0.12500000E+01           0.00000000E+00
  -0.12400000E+01           0.00000000E+00
  -0.12300000E+01           0.00000000E+00
  -0.12200000E+01           0.00000000E+00
  -0.12100000E+01           0.00000000E+00
  -0.12000000E+01           0.00000000E+00
  -0.11900000E+01           0.00000000E+00
  -0.11800000E+01           0.00000000E+00
  -0.11700000E+01           0.00000000E+00
  -0.11600000E+01           0.00000000E+00
  -0.11500000E+01           0.00000000E+00
  -0.11400000E+01           0.00000000E+00
  -0.11300000E+01           0.00000000E+00
  -0.11200000E+01           0.00000000E+00
  -0.11100000E+01           0.00000000E+00
  -0.11000000E+01           0.00000000E+00
  -0.10900000E+01           0.00000000E+00
  -0.10800000E+01           0.00000000E+00
  -0.10700000E+01           0.00000000E+00
  -0.10600000E+01           0.00000000E+00
  -0.10500000E+01           0.00000000E+00
  -0.10400000E+01           0.00000000E+00
  -0.10300000E+01           0.00000000E+00
  -0.10200000E+01           0.00000000E+00
  -0.10100000E+01           0.00000000E+00
  -0.10000000E+01           0.00000000E+00
  -0.99000000E+00           0.00000000E+00
  -0.98000000E+00           0.00000000E+00
  -0.97000000E+00           0.00000000E+00
  -0.96000000E+00           0.00000000E+00
  -0.95000000E+00           0.00000000E+00
  -0.94000000E+00           0.00000000E+00
  -0.93000000E+00           0.00000000E+00
  -0.92000000E+00           0.00000000E+00
  -0.91000000E+00           0.00000000E+00
  -0.90000000E+00           0.00000000E+00
  -0.89000000E+00           0.00000000E+00
  -0.88000000E+00           0.00000000E+00
  -0.87000000E+00           0.00000000E+00
  -0.86000000E+00           0.00000000E+00
  -0.85000000E+00           0.00000000E+00
  -0.84000000E+00           0.00000000E+00
  -0.83000000E+00           0.00000000E+00
  -0.82000000E+00           0.00000000E+00
  -0.81000000E+00           0.00000000E+00
  -0.80000000E+00           0.00000000E+00
  -0.79000000E+00           0.00000000E+00
  -0.78000000E+00           0.00000000E+00
  -0.77000000E+00           0.00000000E+00
  -0.76000000E+00           0.00000000E+00
  -0.75000000E+00           0.00000000E+00
  -0.74000000E+00           0.00000000E+00
  -0.73000000E+00           0.00000000E+00
  -0.72000000E+00           0.00000000E+00
  -0.71000000E+00           0.00000000E+00
  -0.70000000E+00           0.00000000E+00
  -0.69000000E+00           0.00000000E+00
  -0.68000000E+00           0.00000000E+00
  -0.67000000E+00           0.00000000E+00
  -0.66000000E+00           0.00000000E+00
  -0.65000000E+00           0.00000000E+00
  -0.64000000E+00           0.00000000E+00
  -0.63000000E+00           0.00000000E+00
  -0.62000000E+00           0.00000000E+00
  -0.61000000E+00           0.00000000E+00
  -0.60000000E+00           0.00000000E+00
  -0.59000000E+00           0.00000000E+00
  -0.58000000E+00           0.00000000E+00
  -0.57000000E+00           0.00000000E+00
  -0.56000000E+00           0.00000000E+00
  -0.55000000E+00           0.00000000E+00
  -0.54000000E+00           0.00000000E+00
  -0.53000000E+00           0.00000000E+00
  -0.52000000E+00           0.00000000E+00
  -0.51000000E+00           0.00000000E+00
  -0.50000000E+00           0.00000000E+00
  -0.49000000E+00           0.00000000E+00
  -0.48000000E+00           0.00000000E+00
  -0.47000000E+00           0.00000000E+00
  -0.46000000E+00           0.00000000E+00
  -0.45000000E+00           0.00000000E+00
  -0.44000000E+00           0.00000000E+00
  -0.43000000E+00           0.00000000E+00
  -0.42000000E+00           0.00000000E+00
  -0.41000000E+00           0.00000000E+00
  -0.40000000E+00           0.00000000E+00
  -0.39000000E+00           0.00000000E+00
  -0.38000000E+00           0.00000000E+00
  -0.37000000E+00           0.00000000E+00
  -0.36000000E+00           0.00000000E+00
  -0.35000000E+00           0.00000000E+00
  -0.34000000E+00           0.00000000E+00
  -0.33000000E+00           0.00000000E+00
  -0.32000000E+00           0.00000000E+00
  -0.31000000E+00           0.00000000E+00
  -0.30000000E+00           0.00000000E+00
  -0.29000000E+00           0.00000000E+00
  -0.28000000E+00           0.00000000E+00
  -0.27000000E+00           0.00000000E+00
  -0.26000000E+00           0.00000000E+00
  -0.25000000E+00           0.00000000E+00
  -0.24000000E+00           0.00000000E+00
  -0.23000000E+00           0.00000000E+00
  -0.22000000E+00           0.00000000E+00
  -0.21000000E+00           0.00000000E+00
  -0.20000000E+00           0.00000000E+00
  -0.19000000E+00           0.00000000E+00
  -0.18000000E+00           0.00000000E+00
  -0.17000000E+00           0.00000000E+00
  -0.16000000E+00           0.00000000E+00
  -0.15000000E+00           0.00000000E+00
  -0.14000000E+00           0.00000000E+00
  -0.13000000E+00           0.00000000E+00
  -0.12000000E+00           0.00000000E+00
  -0.11000000E+00           0.00000000E+00
  -0.10000000E+00           0.00000000E+00
  -0.90000000E-01           0.00000000E+00
  -0.80000000E-01           0.00000000E+00
  -0.70000000E-01           0.00000000E+00
  -0.60000000E-01           0.00000000E+00
  -0.50000000E-01           0.00000000E+00
  -0.40000000E-01           0.00000000E+00
  -0.30000000E-01           0.00000000E+00
  -0.20000000E-01           0.00000000E+00
  -0.10000000E-01           0.00000000E+00
   0.00000000E+00           0.87571429E-04
   0.10000000E-01           0.22355714E-02
   0.20000000E-01           0.81884286E-02
   0.30000000E-01           0.17454571E-01
   0.40000000E-01           0.29711429E-01
   0.50000000E-01           0.44200714E-01
   0.60000000E-01           0.61458143E-01
   0.70000000E-01           0.80335429E-01
   0.80000000E-01           0.10062829E+00
   0.90000000E-01           0.12252557E+00
   0.10000000E+00           0.14533714E+00
   0.11000000E+00           0.16977243E+00
   0.12000000E+00           0.19421471E+00
   0.13000000E+00           0.21980314E+00
   0.14000000E+00           0.24573486E+00
   0.15000000E+00           0.27157743E+00
   0.16000000E+00           0.29814843E+00
   0.17000000E+00           0.32448357E+00
   0.18000000E+00           0.35124871E+00
   0.19000000E+00           0.37757714E+00
   0.20000000E+00           0.40368071E+00
   0.21000000E+00           0.42973386E+00
   0.22000000E+00           0.45607100E+00
   0.23000000E+00           0.48090571E+00
   0.24000000E+00           0.50624171E+00
   0.25000000E+00           0.53146229E+00
   0.26000000E+00           0.55472486E+00
   0.27000000E+00           0.57887443E+00
   0.28000000E+00           0.60225143E+00
   0.29000000E+00           0.62518757E+00
   0.30000000E+00           0.64683700E+00
   0.31000000E+00           0.66846386E+00
   0.32000000E+00           0.69022671E+00
   0.33000000E+00           0.70994571E+00
   0.34000000E+00           0.72948429E+00
   0.35000000E+00           0.74893086E+00
   0.36000000E+00           0.76776200E+00
   0.37000000E+00           0.78519243E+00
   0.38000000E+00           0.80290786E+00
   0.39000000E+00           0.81928943E+00
   0.40000000E+00           0.83428800E+00
   0.41000000E+00           0.84941443E+00
   0.42000000E+00           0.86393357E+00
   0.43000000E+00           0.87712386E+00
   0.44000000E+00           0.89041229E+00
   0.45000000E+00           0.90317643E+00
   0.46000000E+00           0.91511257E+00
   0.47000000E+00           0.92594943E+00
   0.48000000E+00           0.93639943E+00
   0.49000000E+00           0.94552771E+00
   0.50000000E+00           0.95447600E+00
   0.51000000E+00           0.96279771E+00
   0.52000000E+00           0.96989871E+00
   0.53000000E+00           0.97715629E+00
   0.54000000E+00           0.98242957E+00
   0.55000000E+00           0.98811514E+00
   0.56000000E+00           0.99368714E+00
   0.57000000E+00           0.99812400E+00
   0.58000000E+00           0.10013007E+01
   0.59000000E+00           0.10040746E+01
   0.60000000E+00           0.10070344E+01
   0.61000000E+00           0.10085150E+01
   0.62000000E+00           0.10097704E+01
   0.63000000E+00           0.10105893E+01
   0.64000000E+00           0.10105719E+01
   0.65000000E+00           0.10094926E+01
   0.66000000E+00           0.10086101E+01
   0.67000000E+00           0.10073663E+01
   0.68000000E+00           0.10051196E+01
   0.69000000E+00           0.10027084E+01
   0.70000000E+00           0.99943014E+00
   0.71000000E+00           0.99641800E+00
   0.72000000E+00           0.99175771E+00
   0.73000000E+00           0.98768057E+00
   0.74000000E+00           0.98267186E+00
   0.75000000E+00           0.97689129E+00
   0.76000000E+00           0.97127314E+00
   0.77000000E+00           0.96521886E+00
   0.78000000E+00           0.95805714E+00
   0.79000000E+00           0.95198957E+00
   0.80000000E+00           0.94451757E+00
   0.81000000E+00           0.93677514E+00
   0.82000000E+00           0.92750557E+00
   0.83000000E+00           0.91974657E+00
   0.84000000E+00           0.91196029E+00
   0.85000000E+00           0.90288643E+00
   0.86000000E+00           0.89351800E+00
   0.87000000E+00           0.88364657E+00
   0.88000000E+00           0.87464486E+00
   0.89000000E+00           0.86452786E+00
   0.90000000E+00           0.85396971E+00
   0.91000000E+00           0.84313900E+00
   0.92000000E+00           0.83323286E+00
   0.93000000E+00           0.82207871E+00
   0.94000000E+00           0.81091971E+00
   0.95000000E+00           0.79973929E+00
   0.96000000E+00           0.78806643E+00
   0.97000000E+00           0.77669600E+00
   0.98000000E+00           0.76555157E+00
   0.99000000E+00           0.75332600E+00
   0.10000000E+01           0.74217571E+00
   0.10100000E+01           0.73060471E+00
   0.10200000E+01           0.71878814E+00
   0.10300000E+01           0.70557614E+00
   0.10400000E+01           0.69401800E+00
   0.10500000E+01           0.68254143E+00
   0.10600000E+01           0.66958214E+00
   0.10700000E+01           0.65774114E+00
   0.10800000E+01           0.64575914E+00
   0.10900000E+01           0.63355929E+00
   0.11000000E+01           0.62125286E+00
   0.11100000E+01           0.60901514E+00
   0.11200000E+01           0.59713243E+00
   0.11300000E+01           0.58449786E+00
   0.11400000E+01           0.57370557E+00
   0.11500000E+01           0.56099486E+00
   0.11600000E+01           0.54927586E+00
   0.11700000E+01           0.53693071E+00
   0.11800000E+01           0.52570114E+00
   0.11900000E+01           0.51388186E+00
   0.12000000E+01           0.50216429E+00
   0.12100000E+01           0.49089971E+00
   0.12200000E+01           0.47975243E+00
   0.12300000E+01           0.46816057E+00
   0.12400000E+01           0.45717343E+00
   0.12500000E+01           0.44596943E+00
   0.12600000E+01           0.43496000E+00
   0.12700000E+01           0.42420971E+00
   0.12800000E+01           0.41362657E+00
   0.12900000E+01           0.40236529E+00
   0.13000000E+01           0.39210500E+00
   0.13100000E+01           0.38228557E+00
   0.13200000E+01           0.37231271E+00
   0.13300000E+01           0.36174429E+00
   0.13400000E+01           0.35265871E+00
   0.13500000E+01           0.34255086E+00
   0.13600000E+01           0.33302229E+00
   0.13700000E+01           0.32376400E+00
   0.13800000E+01           0.31486186E+00
   0.13900000E+01           0.30574829E+00
   0.14000000E+01           0.29636571E+00
   0.14100000E+01           0.28818114E+00
   0.14200000E+01           0.27924371E+00
   0.14300000E+01           0.27062800E+00
   0.14400000E+01           0.26250371E+00
   0.14500000E+01           0.25464614E+00
   0.14600000E+01           0.24687829E+00
   0.14700000E+01           0.23890514E+00
   0.14800000E+01           0.23118900E+00
   0.14900000E+01           0.22422486E+00
   0.15000000E+01           0.21668500E+00
   0.15100000E+01           0.20930629E+00
   0.15200000E+01           0.20256900E+00
   0.15300000E+01           0.19607843E+00
   0.15400000E+01           0.18944371E+00
   0.15500000E+01           0.18318614E+00
   0.15600000E+01           0.17668357E+00
   0.15700000E+01           0.17038186E+00
   0.15800000E+01           0.16475971E+00
   0.15900000E+01           0.15894671E+00
   0.16000000E+01           0.15317771E+00
   0.16100000E+01           0.14819029E+00
   0.16200000E+01           0.14268657E+00
   0.16300000E+01           0.13735971E+00
   0.16400000E+01           0.13266529E+00
   0.16500000E+01           0.12756229E+00
   0.16600000E+01           0.12301029E+00
   0.16700000E+01           0.11793214E+00
   0.16800000E+01           0.11364571E+00
   0.16900000E+01           0.10945243E+00
   0.17000000E+01           0.10502043E+00
   0.17100000E+01           0.10119414E+00
   0.17200000E+01           0.97159143E-01
   0.17300000E+01           0.93100571E-01
   0.17400000E+01           0.89347714E-01
   0.17500000E+01           0.85909143E-01
   0.17600000E+01           0.82209429E-01
   0.17700000E+01           0.78786143E-01
   0.17800000E+01           0.75744429E-01
   0.17900000E+01           0.72388714E-01
   0.18000000E+01           0.69535714E-01
   0.18100000E+01           0.66618143E-01
   0.18200000E+01           0.63913143E-01
   0.18300000E+01           0.61081286E-01
   0.18400000E+01           0.58567286E-01
   0.18500000E+01           0.56102857E-01
   0.18600000E+01           0.53506286E-01
   0.18700000E+01           0.51176429E-01
   0.18800000E+01           0.49014714E-01
   0.18900000E+01           0.46777714E-01
   0.19000000E+01           0.44616857E-01
   0.19100000E+01           0.42628286E-01
   0.19200000E+01           0.40605000E-01
   0.19300000E+01           0.38843000E-01
   0.19400000E+01           0.36975143E-01
   0.19500000E+01           0.35381000E-01
   0.19600000E+01           0.33642857E-01
   0.19700000E+01           0.32068286E-01
   0.19800000E+01           0.30519429E-01
   0.19900000E+01           0.29087571E-01
   0.20000000E+01           0.27725429E-01
   0.20100000E+01           0.26410714E-01
   0.20200000E+01           0.24993714E-01
   0.20300000E+01           0.23931143E-01
   0.20400000E+01           0.22811571E-01
   0.20500000E+01           0.21589714E-01
   0.20600000E+01           0.20508857E-01
   0.20700000E+01           0.19432857E-01
   0.20800000E+01           0.18434286E-01
   0.20900000E+01           0.17580714E-01
   0.21000000E+01           0.16579143E-01
   0.21100000E+01           0.15628714E-01
   0.21200000E+01           0.14913714E-01
   0.21300000E+01           0.14220000E-01
   0.21400000E+01           0.13353714E-01
   0.21500000E+01           0.12695286E-01
   0.21600000E+01           0.11967857E-01
   0.21700000E+01           0.11425571E-01
   0.21800000E+01           0.10730143E-01
   0.21900000E+01           0.10203857E-01
   0.22000000E+01           0.95947143E-02
   0.22100000E+01           0.91364286E-02
   0.22200000E+01           0.85925714E-02
   0.22300000E+01           0.81345714E-02
   0.22400000E+01           0.77142857E-02
   0.22500000E+01           0.72192857E-02
   0.22600000E+01           0.68268571E-02
   0.22700000E+01           0.64014286E-02
   0.22800000E+01           0.60135714E-02
   0.22900000E+01           0.57298571E-02
   0.23000000E+01           0.53570000E-02
   0.23100000E+01           0.50648571E-02
   0.23200000E+01           0.47640000E-02
   0.23300000E+01           0.45031429E-02
   0.23400000E+01           0.42292857E-02
   0.23500000E+01           0.39708571E-02
   0.23600000E+01           0.37070000E-02
   0.23700000E+01           0.35062857E-02
   0.23800000E+01           0.32772857E-02
   0.23900000E+01           0.30381429E-02
   0.24000000E+01           0.28758571E-02
   0.24100000E+01           0.27215714E-02
   0.24200000E+01           0.25394286E-02
   0.24300000E+01           0.23847143E-02
   0.24400000E+01           0.22427143E-02
   0.24500000E+01           0.20865714E-02
   0.24600000E+01           0.19360000E-02
   0.24700000E+01           0.18280000E-02
   0.24800000E+01           0.17237143E-02
   0.24900000E+01           0.15631429E-02
   0.25000000E+01           0.14868571E-02
   0.25100000E+01           0.14198571E-02
   0.25200000E+01           0.12854286E-02
   0.25300000E+01           0.12168571E-02
   0.25400000E+01           0.11541429E-02
   0.25500000E+01           0.10508571E-02
   0.25600000E+01           0.98585714E-03
   0.25700000E+01           0.91900000E-03
   0.25800000E+01           0.84800000E-03
   0.25900000E+01           0.79985714E-03
   0.26000000E+01           0.73942857E-03
   0.26100000E+01           0.68828571E-03
   0.26200000E+01           0.65171429E-03
   0.26300000E+01           0.60714286E-03
   0.26400000E+01           0.55057143E-03
   0.26500000E+01           0.52471429E-03
   0.26600000E+01           0.47928571E-03
   0.26700000E+01           0.44014286E-03
   0.26800000E+01           0.42928571E-03
   0.26900000E+01           0.38600000E-03
   0.27000000E+01           0.34914286E-03
   0.27100000E+01           0.32942857E-03
   0.27200000E+01           0.29342857E-03
   0.27300000E+01           0.27885714E-03
   0.27400000E+01           0.27728571E-03
   0.27500000E+01           0.25057143E-03
   0.27600000E+01           0.21942857E-03
   0.27700000E+01           0.20671429E-03
   0.27800000E+01           0.19342857E-03
   0.27900000E+01           0.17200000E-03
   0.28000000E+01           0.16885714E-03
   0.28100000E+01           0.15457143E-03
   0.28200000E+01           0.13757143E-03
   0.28300000E+01           0.12257143E-03
   0.28400000E+01           0.11657143E-03
   0.28500000E+01           0.10542857E-03
   0.28600000E+01           0.99428571E-04
   0.28700000E+01           0.93857143E-04
   0.28800000E+01           0.83857143E-04
   0.28900000E+01           0.76142857E-04
   0.29000000E+01           0.74142857E-04
   0.29100000E+01           0.64857143E-04
   0.29200000E+01           0.57714286E-04
   0.29300000E+01           0.54142857E-04
   0.29400000E+01           0.49142857E-04
   0.29500000E+01           0.47571429E-04
   0.29600000E+01           0.38857143E-04
   0.29700000E+01           0.37000000E-04
   0.29800000E+01           0.38285714E-04
   0.29900000E+01           0.31571429E-04
   0.30000000E+01           0.29428571E-04
   0.30100000E+01           0.27000000E-04
   0.30200000E+01           0.22142857E-04
   0.30300000E+01           0.16857143E-04
   0.30400000E+01           0.20285714E-04
   0.30500000E+01           0.19142857E-04
   0.30600000E+01           0.19142857E-04
   0.30700000E+01           0.13428571E-04
   0.30800000E+01           0.13428571E-04
   0.30900000E+01           0.12142857E-04
   0.31000000E+01           0.10857143E-04
   0.31100000E+01           0.97142857E-05
   0.31200000E+01           0.84285714E-05
   0.31300000E+01           0.94285714E-05
   0.31400000E+01           0.77142857E-05
   0.31500000E+01           0.58571429E-05
   0.31600000E+01           0.80000000E-05
   0.31700000E+01           0.52857143E-05
   0.31800000E+01           0.47142857E-05
   0.31900000E+01           0.44285714E-05
   0.32000000E+01           0.38571429E-05
   0.32100000E+01           0.38571429E-05
   0.32200000E+01           0.37142857E-05
   0.32300000E+01           0.25714286E-05
   0.32400000E+01           0.28571429E-05
   0.32500000E+01           0.21428571E-05
   0.32600000E+01           0.21428571E-05
   0.32700000E+01           0.21428571E-05
   0.32800000E+01           0.15714286E-05
   0.32900000E+01           0.18571429E-05
   0.33000000E+01           0.14285714E-05
   0.33100000E+01           0.12857143E-05
   0.33200000E+01           0.12857143E-05
   0.33300000E+01           0.57142857E-06
   0.33400000E+01           0.10000000E-05
   0.33500000E+01           0.57142857E-06
   0.33600000E+01           0.85714286E-06
   0.33700000E+01           0.10000000E-05
   0.33800000E+01           0.57142857E-06
   0.33900000E+01           0.57142857E-06
   0.34000000E+01           0.42857143E-06
   0.34100000E+01           0.28571429E-06
   0.34200000E+01           0.00000000E+00
   0.34300000E+01           0.42857143E-06
   0.34400000E+01           0.28571429E-06
   0.34500000E+01           0.28571429E-06
   0.34600000E+01           0.14285714E-06
   0.34700000E+01           0.42857143E-06
   0.34800000E+01           0.14285714E-06
   0.34900000E+01           0.14285714E-06
   0.35000000E+01           0.14285714E-06
   0.35100000E+01           0.14285714E-06
   0.35200000E+01           0.14285714E-06
   0.35300000E+01           0.00000000E+00
   0.35400000E+01           0.14285714E-06
   0.35500000E+01           0.00000000E+00
   0.35600000E+01           0.00000000E+00
   0.35700000E+01           0.14285714E-06
   0.35800000E+01           0.00000000E+00
   0.35900000E+01           0.00000000E+00
   0.36000000E+01           0.00000000E+00
   0.36100000E+01           0.00000000E+00
   0.36200000E+01           0.00000000E+00
   0.36300000E+01           0.00000000E+00
   0.36400000E+01           0.00000000E+00
   0.36500000E+01           0.00000000E+00
   0.36600000E+01           0.00000000E+00
   0.36700000E+01           0.00000000E+00
   0.36800000E+01           0.00000000E+00
   0.36900000E+01           0.00000000E+00
   0.37000000E+01           0.00000000E+00
   0.37100000E+01           0.00000000E+00
   0.37200000E+01           0.00000000E+00
   0.37300000E+01           0.00000000E+00
   0.37400000E+01           0.00000000E+00
   0.37500000E+01           0.00000000E+00
   0.37600000E+01           0.00000000E+00
   0.37700000E+01           0.00000000E+00
   0.37800000E+01           0.00000000E+00
   0.37900000E+01           0.00000000E+00
   0.38000000E+01           0.00000000E+00
   0.38100000E+01           0.00000000E+00
   0.38200000E+01           0.00000000E+00
   0.38300000E+01           0.00000000E+00
   0.38400000E+01           0.00000000E+00
   0.38500000E+01           0.00000000E+00
   0.38600000E+01           0.00000000E+00
   0.38700000E+01           0.00000000E+00
   0.38800000E+01           0.00000000E+00
   0.38900000E+01           0.00000000E+00
   0.39000000E+01           0.00000000E+00
   0.39100000E+01           0.00000000E+00
   0.39200000E+01           0.00000000E+00
   0.39300000E+01           0.00000000E+00
   0.39400000E+01           0.00000000E+00
   0.39500000E+01           0.00000000E+00
   0.39600000E+01           0.00000000E+00
   0.39700000E+01           0.00000000E+00
   0.39800000E+01           0.00000000E+00
   0.39900000E+01           0.00000000E+00
   0.40000000E+01           0.00000000E+00
 #T=    31.0000
  -0.40000000E+01           0.00000000E+00
  -0.39900000E+01           0.00000000E+00
  -0.39800000E+01           0.00000000E+00
  -0.39700000E+01           0.00000000E+00
  -0.39600000E+01           0.00000000E+00
  -0.39500000E+01           0.00000000E+00
  -0.39400000E+01           0.00000000E+00
  -0.39300000E+01           0.00000000E+00
  -0.39200000E+01           0.00000000E+00
  -0.39100000E+01           0.00000000E+00
  -0.39000000E+01           0.00000000E+00
  -0.38900000E+01           0.00000000E+00
  -0.38800000E+01           0.00000000E+00
  -0.38700000E+01           0.00000000E+00
  -0.38600000E+01           0.00000000E+00
  -0.38500000E+01           0.00000000E+00
  -0.38400000E+01           0.00000000E+00
  -0.38300000E+01           0.00000000E+00
  -0.38200000E+01           0.00000000E+00
  -0.38100000E+01           0.00000000E+00
  -0.38000000E+01           0.00000000E+00
  -0.37900000E+01           0.00000000E+00
  -0.37800000E+01           0.00000000E+00
  -0.37700000E+01           0.00000000E+00
  -0.37600000E+01           0.00000000E+00
  -0.37500000E+01           0.00000000E+00
  -0.37400000E+01           0.00000000E+00
  -0.37300000E+01           0.00000000E+00
  -0.37200000E+01           0.00000000E+00
  -0.37100000E+01           0.00000000E+00
  -0.37000000E+01           0.00000000E+00
  -0.36900000E+01           0.00000000E+00
  -0.36800000E+01           0.00000000E+00
  -0.36700000E+01           0.00000000E+00
  -0.36600000E+01           0.00000000E+00
  -0.36500000E+01           0.00000000E+00
  -0.36400000E+01           0.00000000E+00
  -0.36300000E+01           0.00000000E+00
  -0.36200000E+01           0.00000000E+00
  -0.36100000E+01           0.00000000E+00
  -0.36000000E+01           0.00000000E+00
  -0.35900000E+01           0.00000000E+00
  -0.35800000E+01           0.00000000E+00
  -0.35700000E+01           0.00000000E+00
  -0.35600000E+01           0.00000000E+00
  -0.35500000E+01           0.00000000E+00
  -0.35400000E+01           0.00000000E+00
  -0.35300000E+01           0.00000000E+00
  -0.35200000E+01           0.00000000E+00
  -0.35100000E+01           0.00000000E+00
  -0.35000000E+01           0.00000000E+00
  -0.34900000E+01           0.00000000E+00
  -0.34800000E+01           0.00000000E+00
  -0.34700000E+01           0.00000000E+00
  -0.34600000E+01           0.00000000E+00
  -0.34500000E+01           0.00000000E+00
  -0.34400000E+01           0.00000000E+00
  -0.34300000E+01           0.00000000E+00
  -0.34200000E+01           0.00000000E+00
  -0.34100000E+01           0.00000000E+00
  -0.34000000E+01           0.00000000E+00
  -0.33900000E+01           0.00000000E+00
  -0.33800000E+01           0.00000000E+00
  -0.33700000E+01           0.00000000E+00
  -0.33600000E+01           0.00000000E+00
  -0.33500000E+01           0.00000000E+00
  -0.33400000E+01           0.00000000E+00
  -0.33300000E+01           0.00000000E+00
  -0.33200000E+01           0.00000000E+00
  -0.33100000E+01           0.00000000E+00
  -0.33000000E+01           0.00000000E+00
  -0.32900000E+01           0.00000000E+00
  -0.32800000E+01           0.00000000E+00
  -0.32700000E+01           0.00000000E+00
  -0.32600000E+01           0.00000000E+00
  -0.32500000E+01           0.00000000E+00
  -0.32400000E+01           0.00000000E+00
  -0.32300000E+01           0.00000000E+00
  -0.32200000E+01           0.00000000E+00
  -0.32100000E+01           0.00000000E+00
  -0.32000000E+01           0.00000000E+00
  -0.31900000E+01           0.00000000E+00
  -0.31800000E+01           0.00000000E+00
  -0.31700000E+01           0.00000000E+00
  -0.31600000E+01           0.00000000E+00
  -0.31500000E+01           0.00000000E+00
  -0.31400000E+01           0.00000000E+00
  -0.31300000E+01           0.00000000E+00
  -0.31200000E+01           0.00000000E+00
  -0.31100000E+01           0.00000000E+00
  -0.31000000E+01           0.00000000E+00
  -0.30900000E+01           0.00000000E+00
  -0.30800000E+01           0.00000000E+00
  -0.30700000E+01           0.00000000E+00
  -0.30600000E+01           0.00000000E+00
  -0.30500000E+01           0.00000000E+00
  -0.30400000E+01           0.00000000E+00
  -0.30300000E+01           0.00000000E+00
  -0.30200000E+01           0.00000000E+00
  -0.30100000E+01           0.00000000E+00
  -0.30000000E+01           0.00000000E+00
  -0.29900000E+01           0.00000000E+00
  -0.29800000E+01           0.00000000E+00
  -0.29700000E+01           0.00000000E+00
  -0.29600000E+01           0.00000000E+00
  -0.29500000E+01           0.00000000E+00
  -0.29400000E+01           0.00000000E+00
  -0.29300000E+01           0.00000000E+00
  -0.29200000E+01           0.00000000E+00
  -0.29100000E+01           0.00000000E+00
  -0.29000000E+01           0.00000000E+00
  -0.28900000E+01           0.00000000E+00
  -0.28800000E+01           0.00000000E+00
  -0.28700000E+01           0.00000000E+00
  -0.28600000E+01           0.00000000E+00
  -0.28500000E+01           0.00000000E+00
  -0.28400000E+01           0.00000000E+00
  -0.28300000E+01           0.00000000E+00
  -0.28200000E+01           0.00000000E+00
  -0.28100000E+01           0.00000000E+00
  -0.28000000E+01           0.00000000E+00
  -0.27900000E+01           0.00000000E+00
  -0.27800000E+01           0.00000000E+00
  -0.27700000E+01           0.00000000E+00
  -0.27600000E+01           0.00000000E+00
  -0.27500000E+01           0.00000000E+00
  -0.27400000E+01           0.00000000E+00
  -0.27300000E+01           0.00000000E+00
  -0.27200000E+01           0.00000000E+00
  -0.27100000E+01           0.00000000E+00
  -0.27000000E+01           0.00000000E+00
  -0.26900000E+01           0.00000000E+00
  -0.26800000E+01           0.00000000E+00
  -0.26700000E+01           0.00000000E+00
  -0.26600000E+01           0.00000000E+00
  -0.26500000E+01           0.00000000E+00
  -0.26400000E+01           0.00000000E+00
  -0.26300000E+01           0.00000000E+00
  -0.26200000E+01           0.00000000E+00
  -0.26100000E+01           0.00000000E+00
  -0.26000000E+01           0.00000000E+00
  -0.25900000E+01           0.00000000E+00
  -0.25800000E+01           0.00000000E+00
  -0.25700000E+01           0.00000000E+00
  -0.25600000E+01           0.00000000E+00
  -0.25500000E+01           0.00000000E+00
  -0.25400000E+01           0.00000000E+00
  -0.25300000E+01           0.00000000E+00
  -0.25200000E+01           0.00000000E+00
  -0.25100000E+01           0.00000000E+00
  -0.25000000E+01           0.00000000E+00
  -0.24900000E+01           0.00000000E+00
  -0.24800000E+01           0.00000000E+00
  -0.24700000E+01           0.00000000E+00
  -0.24600000E+01           0.00000000E+00
  -0.24500000E+01           0.00000000E+00
  -0.24400000E+01           0.00000000E+00
  -0.24300000E+01           0.00000000E+00
  -0.24200000E+01           0.00000000E+00
  -0.24100000E+01           0.00000000E+00
  -0.24000000E+01           0.00000000E+00
  -0.23900000E+01           0.00000000E+00
  -0.23800000E+01           0.00000000E+00
  -0.23700000E+01           0.00000000E+00
  -0.23600000E+01           0.00000000E+00
  -0.23500000E+01           0.00000000E+00
  -0.23400000E+01           0.00000000E+00
  -0.23300000E+01           0.00000000E+00
  -0.23200000E+01           0.00000000E+00
  -0.23100000E+01           0.00000000E+00
  -0.23000000E+01           0.00000000E+00
  -0.22900000E+01           0.00000000E+00
  -0.22800000E+01           0.00000000E+00
  -0.22700000E+01           0.00000000E+00
  -0.22600000E+01           0.00000000E+00
  -0.22500000E+01           0.00000000E+00
  -0.22400000E+01           0.00000000E+00
  -0.22300000E+01           0.00000000E+00
  -0.22200000E+01           0.00000000E+00
  -0.22100000E+01           0.00000000E+00
  -0.22000000E+01           0.00000000E+00
  -0.21900000E+01           0.00000000E+00
  -0.21800000E+01           0.00000000E+00
  -0.21700000E+01           0.00000000E+00
  -0.21600000E+01           0.00000000E+00
  -0.21500000E+01           0.00000000E+00
  -0.21400000E+01           0.00000000E+00
  -0.21300000E+01           0.00000000E+00
  -0.21200000E+01           0.00000000E+00
  -0.21100000E+01           0.00000000E+00
  -0.21000000E+01           0.00000000E+00
  -0.20900000E+01           0.00000000E+00
  -0.20800000E+01           0.00000000E+00
  -0.20700000E+01           0.00000000E+00
  -0.20600000E+01           0.00000000E+00
  -0.20500000E+01           0.00000000E+00
  -0.20400000E+01           0.00000000E+00
  -0.20300000E+01           0.00000000E+00
  -0.20200000E+01           0.00000000E+00
  -0.20100000E+01           0.00000000E+00
  -0.20000000E+01           0.00000000E+00
  -0.19900000E+01           0.00000000E+00
  -0.19800000E+01           0.00000000E+00
  -0.19700000E+01           0.00000000E+00
  -0.19600000E+01           0.00000000E+00
  -0.19500000E+01           0.00000000E+00
  -0.19400000E+01           0.00000000E+00
  -0.19300000E+01           0.00000000E+00
  -0.19200000E+01           0.00000000E+00
  -0.19100000E+01           0.00000000E+00
  -0.19000000E+01           0.00000000E+00
  -0.18900000E+01           0.00000000E+00
  -0.18800000E+01           0.00000000E+00
  -0.18700000E+01           0.00000000E+00
  -0.18600000E+01           0.00000000E+00
  -0.18500000E+01           0.00000000E+00
  -0.18400000E+01           0.00000000E+00
  -0.18300000E+01           0.00000000E+00
  -0.18200000E+01           0.00000000E+00
  -0.18100000E+01           0.00000000E+00
  -0.18000000E+01           0.00000000E+00
  -0.17900000E+01           0.00000000E+00
  -0.17800000E+01           0.00000000E+00
  -0.17700000E+01           0.00000000E+00
  -0.17600000E+01           0.00000000E+00
  -0.17500000E+01           0.00000000E+00
  -0.17400000E+01           0.00000000E+00
  -0.17300000E+01           0.00000000E+00
  -0.17200000E+01           0.00000000E+00
  -0.17100000E+01           0.00000000E+00
  -0.17000000E+01           0.00000000E+00
  -0.16900000E+01           0.00000000E+00
  -0.16800000E+01           0.00000000E+00
  -0.16700000E+01           0.00000000E+00
  -0.16600000E+01           0.00000000E+00
  -0.16500000E+01           0.00000000E+00
  -0.16400000E+01           0.00000000E+00
  -0.16300000E+01           0.00000000E+00
  -0.16200000E+01           0.00000000E+00
  -0.16100000E+01           0.00000000E+00
  -0.16000000E+01           0.00000000E+00
  -0.15900000E+01           0.00000000E+00
  -0.15800000E+01           0.00000000E+00
  -0.15700000E+01           0.00000000E+00
  -0.15600000E+01           0.00000000E+00
  -0.15500000E+01           0.00000000E+00
  -0.15400000E+01           0.00000000E+00
  -0.15300000E+01           0.00000000E+00
  -0.15200000E+01           0.00000000E+00
  -0.15100000E+01           0.00000000E+00
  -0.15000000E+01           0.00000000E+00
  -0.14900000E+01           0.00000000E+00
  -0.14800000E+01           0.00000000E+00
  -0.14700000E+01           0.00000000E+00
  -0.14600000E+01           0.00000000E+00
  -0.14500000E+01           0.00000000E+00
  -0.14400000E+01           0.00000000E+00
  -0.14300000E+01           0.00000000E+00
  -0.14200000E+01           0.00000000E+00
  -0.14100000E+01           0.00000000E+00
  -0.14000000E+01           0.00000000E+00
  -0.13900000E+01           0.00000000E+00
  -0.13800000E+01           0.00000000E+00
  -0.13700000E+01           0.00000000E+00
  -0.13600000E+01           0.00000000E+00
  -0.13500000E+01           0.00000000E+00
  -0.13400000E+01           0.00000000E+00
  -0.13300000E+01           0.00000000E+00
  -0.13200000E+01           0.00000000E+00
  -0.13100000E+01           0.00000000E+00
  -0.13000000E+01           0.00000000E+00
  -0.12900000E+01           0.00000000E+00
  -0.12800000E+01           0.00000000E+00
  -0.12700000E+01           0.00000000E+00
  -0.12600000E+01           0.00000000E+00
  -0.12500000E+01           0.00000000E+00
  -0.12400000E+01           0.00000000E+00
  -0.12300000E+01           0.00000000E+00
  -0.12200000E+01           0.00000000E+00
  -0.12100000E+01           0.00000000E+00
  -0.12000000E+01           0.00000000E+00
  -0.11900000E+01           0.00000000E+00
  -0.11800000E+01           0.00000000E+00
  -0.11700000E+01           0.00000000E+00
  -0.11600000E+01           0.00000000E+00
  -0.11500000E+01           0.00000000E+00
  -0.11400000E+01           0.00000000E+00
  -0.11300000E+01           0.00000000E+00
  -0.11200000E+01           0.00000000E+00
  -0.11100000E+01           0.00000000E+00
  -0.11000000E+01           0.00000000E+00
  -0.10900000E+01           0.00000000E+00
  -0.10800000E+01           0.00000000E+00
  -0.10700000E+01           0.00000000E+00
  -0.10600000E+01           0.00000000E+00
  -0.10500000E+01           0.00000000E+00
  -0.10400000E+01           0.00000000E+00
  -0.10300000E+01           0.00000000E+00
  -0.10200000E+01           0.00000000E+00
  -0.10100000E+01           0.00000000E+00
  -0.10000000E+01           0.00000000E+00
  -0.99000000E+00           0.00000000E+00
  -0.98000000E+00           0.00000000E+00
  -0.97000000E+00           0.00000000E+00
  -0.96000000E+00           0.00000000E+00
  -0.95000000E+00           0.00000000E+00
  -0.94000000E+00           0.00000000E+00
  -0.93000000E+00           0.00000000E+00
  -0.92000000E+00           0.00000000E+00
  -0.91000000E+00           0.00000000E+00
  -0.90000000E+00           0.00000000E+00
  -0.89000000E+00           0.00000000E+00
  -0.88000000E+00           0.00000000E+00
  -0.87000000E+00           0.00000000E+00
  -0.86000000E+00           0.00000000E+00
  -0.85000000E+00           0.00000000E+00
  -0.84000000E+00           0.00000000E+00
  -0.83000000E+00           0.00000000E+00
  -0.82000000E+00           0.00000000E+00
  -0.81000000E+00           0.00000000E+00
  -0.80000000E+00           0.00000000E+00
  -0.79000000E+00           0.00000000E+00
  -0.78000000E+00           0.00000000E+00
  -0.77000000E+00           0.00000000E+00
  -0.76000000E+00           0.00000000E+00
  -0.75000000E+00           0.00000000E+00
  -0.74000000E+00           0.00000000E+00
  -0.73000000E+00           0.00000000E+00
  -0.72000000E+00           0.00000000E+00
  -0.71000000E+00           0.00000000E+00
  -0.70000000E+00           0.00000000E+00
  -0.69000000E+00           0.00000000E+00
  -0.68000000E+00           0.00000000E+00
  -0.67000000E+00           0.00000000E+00
  -0.66000000E+00           0.00000000E+00
  -0.65000000E+00           0.00000000E+00
  -0.64000000E+00           0.00000000E+00
  -0.63000000E+00           0.00000000E+00
  -0.62000000E+00           0.00000000E+00
  -0.61000000E+00           0.00000000E+00
  -0.60000000E+00           0.00000000E+00
  -0.59000000E+00           0.00000000E+00
  -0.58000000E+00           0.00000000E+00
  -0.57000000E+00           0.00000000E+00
  -0.56000000E+00           0.00000000E+00
  -0.55000000E+00           0.00000000E+00
  -0.54000000E+00           0.00000000E+00
  -0.53000000E+00           0.00000000E+00
  -0.52000000E+00           0.00000000E+00
  -0.51000000E+00           0.00000000E+00
  -0.50000000E+00           0.00000000E+00
  -0.49000000E+00           0.00000000E+00
  -0.48000000E+00           0.00000000E+00
  -0.47000000E+00           0.00000000E+00
  -0.46000000E+00           0.00000000E+00
  -0.45000000E+00           0.00000000E+00
  -0.44000000E+00           0.00000000E+00
  -0.43000000E+00           0.00000000E+00
  -0.42000000E+00           0.00000000E+00
  -0.41000000E+00           0.00000000E+00
  -0.40000000E+00           0.00000000E+00
  -0.39000000E+00           0.00000000E+00
  -0.38000000E+00           0.00000000E+00
  -0.37000000E+00           0.00000000E+00
  -0.36000000E+00           0.00000000E+00
  -0.35000000E+00           0.00000000E+00
  -0.34000000E+00           0.00000000E+00
  -0.33000000E+00           0.00000000E+00
  -0.32000000E+00           0.00000000E+00
  -0.31000000E+00           0.00000000E+00
  -0.30000000E+00           0.00000000E+00
  -0.29000000E+00           0.00000000E+00
  -0.28000000E+00           0.00000000E+00
  -0.27000000E+00           0.00000000E+00
  -0.26000000E+00           0.00000000E+00
  -0.25000000E+00           0.00000000E+00
  -0.24000000E+00           0.00000000E+00
  -0.23000000E+00           0.00000000E+00
  -0.22000000E+00           0.00000000E+00
  -0.21000000E+00           0.00000000E+00
  -0.20000000E+00           0.00000000E+00
  -0.19000000E+00           0.00000000E+00
  -0.18000000E+00           0.00000000E+00
  -0.17000000E+00           0.00000000E+00
  -0.16000000E+00           0.00000000E+00
  -0.15000000E+00           0.00000000E+00
  -0.14000000E+00           0.00000000E+00
  -0.13000000E+00           0.00000000E+00
  -0.12000000E+00           0.00000000E+00
  -0.11000000E+00           0.00000000E+00
  -0.10000000E+00           0.00000000E+00
  -0.90000000E-01           0.00000000E+00
  -0.80000000E-01           0.00000000E+00
  -0.70000000E-01           0.00000000E+00
  -0.60000000E-01           0.00000000E+00
  -0.50000000E-01           0.00000000E+00
  -0.40000000E-01           0.00000000E+00
  -0.30000000E-01           0.00000000E+00
  -0.20000000E-01           0.00000000E+00
  -0.10000000E-01           0.00000000E+00
   0.00000000E+00           0.77714286E-04
   0.10000000E-01           0.21135714E-02
   0.20000000E-01           0.76167143E-02
   0.30000000E-01           0.16225571E-01
   0.40000000E-01           0.27698429E-01
   0.50000000E-01           0.41560000E-01
   0.60000000E-01           0.57583571E-01
   0.70000000E-01           0.75257714E-01
   0.80000000E-01           0.94616000E-01
   0.90000000E-01           0.11534757E+00
   0.10000000E+00           0.13757757E+00
   0.11000000E+00           0.16031600E+00
   0.12000000E+00           0.18366829E+00
   0.13000000E+00           0.20798071E+00
   0.14000000E+00           0.23255543E+00
   0.15000000E+00           0.25768714E+00
   0.16000000E+00           0.28287114E+00
   0.17000000E+00           0.30834329E+00
   0.18000000E+00           0.33401900E+00
   0.19000000E+00           0.35994457E+00
   0.20000000E+00           0.38502829E+00
   0.21000000E+00           0.40990400E+00
   0.22000000E+00           0.43567086E+00
   0.23000000E+00           0.46051843E+00
   0.24000000E+00           0.48384314E+00
   0.25000000E+00           0.50860714E+00
   0.26000000E+00           0.53206714E+00
   0.27000000E+00           0.55561043E+00
   0.28000000E+00           0.57834700E+00
   0.29000000E+00           0.60038814E+00
   0.30000000E+00           0.62256829E+00
   0.31000000E+00           0.64338843E+00
   0.32000000E+00           0.66506929E+00
   0.33000000E+00           0.68469471E+00
   0.34000000E+00           0.70351729E+00
   0.35000000E+00           0.72298657E+00
   0.36000000E+00           0.74159729E+00
   0.37000000E+00           0.75917071E+00
   0.38000000E+00           0.77613186E+00
   0.39000000E+00           0.79284543E+00
   0.40000000E+00           0.80828614E+00
   0.41000000E+00           0.82371586E+00
   0.42000000E+00           0.83789286E+00
   0.43000000E+00           0.85265471E+00
   0.44000000E+00           0.86458400E+00
   0.45000000E+00           0.87715200E+00
   0.46000000E+00           0.88975686E+00
   0.47000000E+00           0.90121429E+00
   0.48000000E+00           0.91093857E+00
   0.49000000E+00           0.92097257E+00
   0.50000000E+00           0.93004714E+00
   0.51000000E+00           0.93877429E+00
   0.52000000E+00           0.94635729E+00
   0.53000000E+00           0.95285257E+00
   0.54000000E+00           0.95959257E+00
   0.55000000E+00           0.96726629E+00
   0.56000000E+00           0.97165314E+00
   0.57000000E+00           0.97658200E+00
   0.58000000E+00           0.98119657E+00
   0.59000000E+00           0.98463129E+00
   0.60000000E+00           0.98745814E+00
   0.61000000E+00           0.99007471E+00
   0.62000000E+00           0.99157914E+00
   0.63000000E+00           0.99305986E+00
   0.64000000E+00           0.99374486E+00
   0.65000000E+00           0.99349057E+00
   0.66000000E+00           0.99316529E+00
   0.67000000E+00           0.99257214E+00
   0.68000000E+00           0.99151129E+00
   0.69000000E+00           0.98985186E+00
   0.70000000E+00           0.98742986E+00
   0.71000000E+00           0.98424300E+00
   0.72000000E+00           0.98150900E+00
   0.73000000E+00           0.97765229E+00
   0.74000000E+00           0.97330500E+00
   0.75000000E+00           0.96902386E+00
   0.76000000E+00           0.96335771E+00
   0.77000000E+00           0.95790357E+00
   0.78000000E+00           0.95211271E+00
   0.79000000E+00           0.94565814E+00
   0.80000000E+00           0.93930914E+00
   0.81000000E+00           0.93272800E+00
   0.82000000E+00           0.92516986E+00
   0.83000000E+00           0.91695557E+00
   0.84000000E+00           0.90916486E+00
   0.85000000E+00           0.90155971E+00
   0.86000000E+00           0.89249957E+00
   0.87000000E+00           0.88407786E+00
   0.88000000E+00           0.87506857E+00
   0.89000000E+00           0.86593543E+00
   0.90000000E+00           0.85597800E+00
   0.91000000E+00           0.84672814E+00
   0.92000000E+00           0.83633329E+00
   0.93000000E+00           0.82688129E+00
   0.94000000E+00           0.81623714E+00
   0.95000000E+00           0.80548729E+00
   0.96000000E+00           0.79479429E+00
   0.97000000E+00           0.78341886E+00
   0.98000000E+00           0.77309800E+00
   0.99000000E+00           0.76147600E+00
   0.10000000E+01           0.75065300E+00
   0.10100000E+01           0.73898357E+00
   0.10200000E+01           0.72757886E+00
   0.10300000E+01           0.71647014E+00
   0.10400000E+01           0.70509700E+00
   0.10500000E+01           0.69324343E+00
   0.10600000E+01           0.68130014E+00
   0.10700000E+01           0.66987086E+00
   0.10800000E+01           0.65816357E+00
   0.10900000E+01           0.64608057E+00
   0.11000000E+01           0.63415786E+00
   0.11100000E+01           0.62315300E+00
   0.11200000E+01           0.61134771E+00
   0.11300000E+01           0.59889943E+00
   0.11400000E+01           0.58736871E+00
   0.11500000E+01           0.57576657E+00
   0.11600000E+01           0.56458186E+00
   0.11700000E+01           0.55237186E+00
   0.11800000E+01           0.54114743E+00
   0.11900000E+01           0.52995543E+00
   0.12000000E+01           0.51794571E+00
   0.12100000E+01           0.50703786E+00
   0.12200000E+01           0.49547257E+00
   0.12300000E+01           0.48489214E+00
   0.12400000E+01           0.47314786E+00
   0.12500000E+01           0.46226371E+00
   0.12600000E+01           0.45168557E+00
   0.12700000E+01           0.44034771E+00
   0.12800000E+01           0.43048714E+00
   0.12900000E+01           0.42019086E+00
   0.13000000E+01           0.40910914E+00
   0.13100000E+01           0.39916971E+00
   0.13200000E+01           0.38889657E+00
   0.13300000E+01           0.37903700E+00
   0.13400000E+01           0.36912443E+00
   0.13500000E+01           0.35946514E+00
   0.13600000E+01           0.34976500E+00
   0.13700000E+01           0.34028900E+00
   0.13800000E+01           0.33063143E+00
   0.13900000E+01           0.32177000E+00
   0.14000000E+01           0.31336200E+00
   0.14100000E+01           0.30398743E+00
   0.14200000E+01           0.29572357E+00
   0.14300000E+01           0.28716757E+00
   0.14400000E+01           0.27835771E+00
   0.14500000E+01           0.27029529E+00
   0.14600000E+01           0.26229986E+00
   0.14700000E+01           0.25455043E+00
   0.14800000E+01           0.24693629E+00
   0.14900000E+01           0.23952257E+00
   0.15000000E+01           0.23202043E+00
   0.15100000E+01           0.22472971E+00
   0.15200000E+01           0.21766414E+00
   0.15300000E+01           0.21037614E+00
   0.15400000E+01           0.20381814E+00
   0.15500000E+01           0.19724786E+00
   0.15600000E+01           0.19076543E+00
   0.15700000E+01           0.18450143E+00
   0.15800000E+01           0.17800257E+00
   0.15900000E+01           0.17233129E+00
   0.16000000E+01           0.16631129E+00
   0.16100000E+01           0.16078129E+00
   0.16200000E+01           0.15508514E+00
   0.16300000E+01           0.14984714E+00
   0.16400000E+01           0.14465014E+00
   0.16500000E+01           0.13922000E+00
   0.16600000E+01           0.13413700E+00
   0.16700000E+01           0.12943529E+00
   0.16800000E+01           0.12444657E+00
   0.16900000E+01           0.12009343E+00
   0.17000000E+01           0.11561786E+00
   0.17100000E+01           0.11133986E+00
   0.17200000E+01           0.10726600E+00
   0.17300000E+01           0.10298771E+00
   0.17400000E+01           0.99082857E-01
   0.17500000E+01           0.95213714E-01
   0.17600000E+01           0.91785857E-01
   0.17700000E+01           0.88053429E-01
   0.17800000E+01           0.84390571E-01
   0.17900000E+01           0.81280286E-01
   0.18000000E+01           0.78013429E-01
   0.18100000E+01           0.74756857E-01
   0.18200000E+01           0.71794571E-01
   0.18300000E+01           0.68875143E-01
   0.18400000E+01           0.66043571E-01
   0.18500000E+01           0.63141286E-01
   0.18600000E+01           0.60595143E-01
   0.18700000E+01           0.57933857E-01
   0.18800000E+01           0.55630714E-01
   0.18900000E+01           0.53175429E-01
   0.19000000E+01           0.50728429E-01
   0.19100000E+01           0.48632000E-01
   0.19200000E+01           0.46378714E-01
   0.19300000E+01           0.44492429E-01
   0.19400000E+01           0.42591714E-01
   0.19500000E+01           0.40571000E-01
   0.19600000E+01           0.38842571E-01
   0.19700000E+01           0.36990429E-01
   0.19800000E+01           0.35301143E-01
   0.19900000E+01           0.33684000E-01
   0.20000000E+01           0.32176000E-01
   0.20100000E+01           0.30573429E-01
   0.20200000E+01           0.29183714E-01
   0.20300000E+01           0.27813714E-01
   0.20400000E+01           0.26507000E-01
   0.20500000E+01           0.25192857E-01
   0.20600000E+01           0.24040286E-01
   0.20700000E+01           0.22829286E-01
   0.20800000E+01           0.21768857E-01
   0.20900000E+01           0.20641714E-01
   0.21000000E+01           0.19588429E-01
   0.21100000E+01           0.18711000E-01
   0.21200000E+01           0.17726286E-01
   0.21300000E+01           0.16768000E-01
   0.21400000E+01           0.15952286E-01
   0.21500000E+01           0.15233571E-01
   0.21600000E+01           0.14428000E-01
   0.21700000E+01           0.13692429E-01
   0.21800000E+01           0.12922429E-01
   0.21900000E+01           0.12254000E-01
   0.22000000E+01           0.11603286E-01
   0.22100000E+01           0.10949143E-01
   0.22200000E+01           0.10359714E-01
   0.22300000E+01           0.98198571E-02
   0.22400000E+01           0.93215714E-02
   0.22500000E+01           0.87957143E-02
   0.22600000E+01           0.83091429E-02
   0.22700000E+01           0.78957143E-02
   0.22800000E+01           0.73582857E-02
   0.22900000E+01           0.70404286E-02
   0.23000000E+01           0.66207143E-02
   0.23100000E+01           0.63200000E-02
   0.23200000E+01           0.58621429E-02
   0.23300000E+01           0.55874286E-02
   0.23400000E+01           0.52417143E-02
   0.23500000E+01           0.49355714E-02
   0.23600000E+01           0.46567143E-02
   0.23700000E+01           0.44061429E-02
   0.23800000E+01           0.41298571E-02
   0.23900000E+01           0.38645714E-02
   0.24000000E+01           0.36258571E-02
   0.24100000E+01           0.34237143E-02
   0.24200000E+01           0.32351429E-02
   0.24300000E+01           0.30188571E-02
   0.24400000E+01           0.28392857E-02
   0.24500000E+01           0.26847143E-02
   0.24600000E+01           0.25261429E-02
   0.24700000E+01           0.23624286E-02
   0.24800000E+01           0.21968571E-02
   0.24900000E+01           0.20447143E-02
   0.25000000E+01           0.19365714E-02
   0.25100000E+01           0.18222857E-02
   0.25200000E+01           0.16894286E-02
   0.25300000E+01           0.16067143E-02
   0.25400000E+01           0.15007143E-02
   0.25500000E+01           0.13881429E-02
   0.25600000E+01           0.13120000E-02
   0.25700000E+01           0.12450000E-02
   0.25800000E+01           0.11414286E-02
   0.25900000E+01           0.10420000E-02
   0.26000000E+01           0.10101429E-02
   0.26100000E+01           0.93342857E-03
   0.26200000E+01           0.84785714E-03
   0.26300000E+01           0.80500000E-03
   0.26400000E+01           0.76385714E-03
   0.26500000E+01           0.69742857E-03
   0.26600000E+01           0.65185714E-03
   0.26700000E+01           0.61242857E-03
   0.26800000E+01           0.55914286E-03
   0.26900000E+01           0.52185714E-03
   0.27000000E+01           0.48842857E-03
   0.27100000E+01           0.45114286E-03
   0.27200000E+01           0.41357143E-03
   0.27300000E+01           0.37900000E-03
   0.27400000E+01           0.34785714E-03
   0.27500000E+01           0.33285714E-03
   0.27600000E+01           0.31328571E-03
   0.27700000E+01           0.29585714E-03
   0.27800000E+01           0.25885714E-03
   0.27900000E+01           0.25714286E-03
   0.28000000E+01           0.23085714E-03
   0.28100000E+01           0.19771429E-03
   0.28200000E+01           0.18957143E-03
   0.28300000E+01           0.18614286E-03
   0.28400000E+01           0.16285714E-03
   0.28500000E+01           0.15142857E-03
   0.28600000E+01           0.14585714E-03
   0.28700000E+01           0.13400000E-03
   0.28800000E+01           0.12214286E-03
   0.28900000E+01           0.11171429E-03
   0.29000000E+01           0.96142857E-04
   0.29100000E+01           0.95428571E-04
   0.29200000E+01           0.90714286E-04
   0.29300000E+01           0.76857143E-04
   0.29400000E+01           0.74714286E-04
   0.29500000E+01           0.61428571E-04
   0.29600000E+01           0.60714286E-04
   0.29700000E+01           0.53428571E-04
   0.29800000E+01           0.48714286E-04
   0.29900000E+01           0.48714286E-04
   0.30000000E+01           0.40714286E-04
   0.30100000E+01           0.42428571E-04
   0.30200000E+01           0.32714286E-04
   0.30300000E+01           0.33142857E-04
   0.30400000E+01           0.29285714E-04
   0.30500000E+01           0.31000000E-04
   0.30600000E+01           0.29142857E-04
   0.30700000E+01           0.21857143E-04
   0.30800000E+01           0.19571429E-04
   0.30900000E+01           0.17285714E-04
   0.31000000E+01           0.15857143E-04
   0.31100000E+01           0.16142857E-04
   0.31200000E+01           0.12571429E-04
   0.31300000E+01           0.11857143E-04
   0.31400000E+01           0.13857143E-04
   0.31500000E+01           0.11285714E-04
   0.31600000E+01           0.11142857E-04
   0.31700000E+01           0.10142857E-04
   0.31800000E+01           0.67142857E-05
   0.31900000E+01           0.65714286E-05
   0.32000000E+01           0.74285714E-05
   0.32100000E+01           0.52857143E-05
   0.32200000E+01           0.54285714E-05
   0.32300000E+01           0.51428571E-05
   0.32400000E+01           0.44285714E-05
   0.32500000E+01           0.35714286E-05
   0.32600000E+01           0.32857143E-05
   0.32700000E+01           0.32857143E-05
   0.32800000E+01           0.20000000E-05
   0.32900000E+01           0.30000000E-05
   0.33000000E+01           0.22857143E-05
   0.33100000E+01           0.32857143E-05
   0.33200000E+01           0.22857143E-05
   0.33300000E+01           0.24285714E-05
   0.33400000E+01           0.18571429E-05
   0.33500000E+01           0.14285714E-05
   0.33600000E+01           0.10000000E-05
   0.33700000E+01           0.71428571E-06
   0.33800000E+01           0.11428571E-05
   0.33900000E+01           0.12857143E-05
   0.34000000E+01           0.57142857E-06
   0.34100000E+01           0.10000000E-05
   0.34200000E+01           0.57142857E-06
   0.34300000E+01           0.71428571E-06
   0.34400000E+01           0.85714286E-06
   0.34500000E+01           0.71428571E-06
   0.34600000E+01           0.00000000E+00
   0.34700000E+01           0.00000000E+00
   0.34800000E+01           0.00000000E+00
   0.34900000E+01           0.00000000E+00
   0.35000000E+01           0.14285714E-06
   0.35100000E+01           0.42857143E-06
   0.35200000E+01           0.00000000E+00
   0.35300000E+01           0.42857143E-06
   0.35400000E+01           0.42857143E-06
   0.35500000E+01           0.14285714E-06
   0.35600000E+01           0.00000000E+00
   0.35700000E+01           0.00000000E+00
   0.35800000E+01           0.14285714E-06
   0.35900000E+01           0.14285714E-06
   0.36000000E+01           0.14285714E-06
   0.36100000E+01           0.00000000E+00
   0.36200000E+01           0.00000000E+00
   0.36300000E+01           0.00000000E+00
   0.36400000E+01           0.00000000E+00
   0.36500000E+01           0.00000000E+00
   0.36600000E+01           0.00000000E+00
   0.36700000E+01           0.00000000E+00
   0.36800000E+01           0.00000000E+00
   0.36900000E+01           0.00000000E+00
   0.37000000E+01           0.00000000E+00
   0.37100000E+01           0.00000000E+00
   0.37200000E+01           0.00000000E+00
   0.37300000E+01           0.00000000E+00
   0.37400000E+01           0.00000000E+00
   0.37500000E+01           0.00000000E+00
   0.37600000E+01           0.00000000E+00
   0.37700000E+01           0.00000000E+00
   0.37800000E+01           0.00000000E+00
   0.37900000E+01           0.00000000E+00
   0.38000000E+01           0.00000000E+00
   0.38100000E+01           0.00000000E+00
   0.38200000E+01           0.00000000E+00
   0.38300000E+01           0.00000000E+00
   0.38400000E+01           0.00000000E+00
   0.38500000E+01           0.00000000E+00
   0.38600000E+01           0.00000000E+00
   0.38700000E+01           0.00000000E+00
   0.38800000E+01           0.00000000E+00
   0.38900000E+01           0.00000000E+00
   0.39000000E+01           0.00000000E+00
   0.39100000E+01           0.00000000E+00
   0.39200000E+01           0.00000000E+00
   0.39300000E+01           0.00000000E+00
   0.39400000E+01           0.00000000E+00
   0.39500000E+01           0.00000000E+00
   0.39600000E+01           0.00000000E+00
   0.39700000E+01           0.00000000E+00
   0.39800000E+01           0.00000000E+00
   0.39900000E+01           0.00000000E+00
   0.40000000E+01           0.00000000E+00
 #T=    32.0000
  -0.40000000E+01           0.00000000E+00
  -0.39900000E+01           0.00000000E+00
  -0.39800000E+01           0.00000000E+00
  -0.39700000E+01           0.00000000E+00
  -0.39600000E+01           0.00000000E+00
  -0.39500000E+01           0.00000000E+00
  -0.39400000E+01           0.00000000E+00
  -0.39300000E+01           0.00000000E+00
  -0.39200000E+01           0.00000000E+00
  -0.39100000E+01           0.00000000E+00
  -0.39000000E+01           0.00000000E+00
  -0.38900000E+01           0.00000000E+00
  -0.38800000E+01           0.00000000E+00
  -0.38700000E+01           0.00000000E+00
  -0.38600000E+01           0.00000000E+00
  -0.38500000E+01           0.00000000E+00
  -0.38400000E+01           0.00000000E+00
  -0.38300000E+01           0.00000000E+00
  -0.38200000E+01           0.00000000E+00
  -0.38100000E+01           0.00000000E+00
  -0.38000000E+01           0.00000000E+00
  -0.37900000E+01           0.00000000E+00
  -0.37800000E+01           0.00000000E+00
  -0.37700000E+01           0.00000000E+00
  -0.37600000E+01           0.00000000E+00
  -0.37500000E+01           0.00000000E+00
  -0.37400000E+01           0.00000000E+00
  -0.37300000E+01           0.00000000E+00
  -0.37200000E+01           0.00000000E+00
  -0.37100000E+01           0.00000000E+00
  -0.37000000E+01           0.00000000E+00
  -0.36900000E+01           0.00000000E+00
  -0.36800000E+01           0.00000000E+00
  -0.36700000E+01           0.00000000E+00
  -0.36600000E+01           0.00000000E+00
  -0.36500000E+01           0.00000000E+00
  -0.36400000E+01           0.00000000E+00
  -0.36300000E+01           0.00000000E+00
  -0.36200000E+01           0.00000000E+00
  -0.36100000E+01           0.00000000E+00
  -0.36000000E+01           0.00000000E+00
  -0.35900000E+01           0.00000000E+00
  -0.35800000E+01           0.00000000E+00
  -0.35700000E+01           0.00000000E+00
  -0.35600000E+01           0.00000000E+00
  -0.35500000E+01           0.00000000E+00
  -0.35400000E+01           0.00000000E+00
  -0.35300000E+01           0.00000000E+00
  -0.35200000E+01           0.00000000E+00
  -0.35100000E+01           0.00000000E+00
  -0.35000000E+01           0.00000000E+00
  -0.34900000E+01           0.00000000E+00
  -0.34800000E+01           0.00000000E+00
  -0.34700000E+01           0.00000000E+00
  -0.34600000E+01           0.00000000E+00
  -0.34500000E+01           0.00000000E+00
  -0.34400000E+01           0.00000000E+00
  -0.34300000E+01           0.00000000E+00
  -0.34200000E+01           0.00000000E+00
  -0.34100000E+01           0.00000000E+00
  -0.34000000E+01           0.00000000E+00
  -0.33900000E+01           0.00000000E+00
  -0.33800000E+01           0.00000000E+00
  -0.33700000E+01           0.00000000E+00
  -0.33600000E+01           0.00000000E+00
  -0.33500000E+01           0.00000000E+00
  -0.33400000E+01           0.00000000E+00
  -0.33300000E+01           0.00000000E+00
  -0.33200000E+01           0.00000000E+00
  -0.33100000E+01           0.00000000E+00
  -0.33000000E+01           0.00000000E+00
  -0.32900000E+01           0.00000000E+00
  -0.32800000E+01           0.00000000E+00
  -0.32700000E+01           0.00000000E+00
  -0.32600000E+01           0.00000000E+00
  -0.32500000E+01           0.00000000E+00
  -0.32400000E+01           0.00000000E+00
  -0.32300000E+01           0.00000000E+00
  -0.32200000E+01           0.00000000E+00
  -0.32100000E+01           0.00000000E+00
  -0.32000000E+01           0.00000000E+00
  -0.31900000E+01           0.00000000E+00
  -0.31800000E+01           0.00000000E+00
  -0.31700000E+01           0.00000000E+00
  -0.31600000E+01           0.00000000E+00
  -0.31500000E+01           0.00000000E+00
  -0.31400000E+01           0.00000000E+00
  -0.31300000E+01           0.00000000E+00
  -0.31200000E+01           0.00000000E+00
  -0.31100000E+01           0.00000000E+00
  -0.31000000E+01           0.00000000E+00
  -0.30900000E+01           0.00000000E+00
  -0.30800000E+01           0.00000000E+00
  -0.30700000E+01           0.00000000E+00
  -0.30600000E+01           0.00000000E+00
  -0.30500000E+01           0.00000000E+00
  -0.30400000E+01           0.00000000E+00
  -0.30300000E+01           0.00000000E+00
  -0.30200000E+01           0.00000000E+00
  -0.30100000E+01           0.00000000E+00
  -0.30000000E+01           0.00000000E+00
  -0.29900000E+01           0.00000000E+00
  -0.29800000E+01           0.00000000E+00
  -0.29700000E+01           0.00000000E+00
  -0.29600000E+01           0.00000000E+00
  -0.29500000E+01           0.00000000E+00
  -0.29400000E+01           0.00000000E+00
  -0.29300000E+01           0.00000000E+00
  -0.29200000E+01           0.00000000E+00
  -0.29100000E+01           0.00000000E+00
  -0.29000000E+01           0.00000000E+00
  -0.28900000E+01           0.00000000E+00
  -0.28800000E+01           0.00000000E+00
  -0.28700000E+01           0.00000000E+00
  -0.28600000E+01           0.00000000E+00
  -0.28500000E+01           0.00000000E+00
  -0.28400000E+01           0.00000000E+00
  -0.28300000E+01           0.00000000E+00
  -0.28200000E+01           0.00000000E+00
  -0.28100000E+01           0.00000000E+00
  -0.28000000E+01           0.00000000E+00
  -0.27900000E+01           0.00000000E+00
  -0.27800000E+01           0.00000000E+00
  -0.27700000E+01           0.00000000E+00
  -0.27600000E+01           0.00000000E+00
  -0.27500000E+01           0.00000000E+00
  -0.27400000E+01           0.00000000E+00
  -0.27300000E+01           0.00000000E+00
  -0.27200000E+01           0.00000000E+00
  -0.27100000E+01           0.00000000E+00
  -0.27000000E+01           0.00000000E+00
  -0.26900000E+01           0.00000000E+00
  -0.26800000E+01           0.00000000E+00
  -0.26700000E+01           0.00000000E+00
  -0.26600000E+01           0.00000000E+00
  -0.26500000E+01           0.00000000E+00
  -0.26400000E+01           0.00000000E+00
  -0.26300000E+01           0.00000000E+00
  -0.26200000E+01           0.00000000E+00
  -0.26100000E+01           0.00000000E+00
  -0.26000000E+01           0.00000000E+00
  -0.25900000E+01           0.00000000E+00
  -0.25800000E+01           0.00000000E+00
  -0.25700000E+01           0.00000000E+00
  -0.25600000E+01           0.00000000E+00
  -0.25500000E+01           0.00000000E+00
  -0.25400000E+01           0.00000000E+00
  -0.25300000E+01           0.00000000E+00
  -0.25200000E+01           0.00000000E+00
  -0.25100000E+01           0.00000000E+00
  -0.25000000E+01           0.00000000E+00
  -0.24900000E+01           0.00000000E+00
  -0.24800000E+01           0.00000000E+00
  -0.24700000E+01           0.00000000E+00
  -0.24600000E+01           0.00000000E+00
  -0.24500000E+01           0.00000000E+00
  -0.24400000E+01           0.00000000E+00
  -0.24300000E+01           0.00000000E+00
  -0.24200000E+01           0.00000000E+00
  -0.24100000E+01           0.00000000E+00
  -0.24000000E+01           0.00000000E+00
  -0.23900000E+01           0.00000000E+00
  -0.23800000E+01           0.00000000E+00
  -0.23700000E+01           0.00000000E+00
  -0.23600000E+01           0.00000000E+00
  -0.23500000E+01           0.00000000E+00
  -0.23400000E+01           0.00000000E+00
  -0.23300000E+01           0.00000000E+00
  -0.23200000E+01           0.00000000E+00
  -0.23100000E+01           0.00000000E+00
  -0.23000000E+01           0.00000000E+00
  -0.22900000E+01           0.00000000E+00
  -0.22800000E+01           0.00000000E+00
  -0.22700000E+01           0.00000000E+00
  -0.22600000E+01           0.00000000E+00
  -0.22500000E+01           0.00000000E+00
  -0.22400000E+01           0.00000000E+00
  -0.22300000E+01           0.00000000E+00
  -0.22200000E+01           0.00000000E+00
  -0.22100000E+01           0.00000000E+00
  -0.22000000E+01           0.00000000E+00
  -0.21900000E+01           0.00000000E+00
  -0.21800000E+01           0.00000000E+00
  -0.21700000E+01           0.00000000E+00
  -0.21600000E+01           0.00000000E+00
  -0.21500000E+01           0.00000000E+00
  -0.21400000E+01           0.00000000E+00
  -0.21300000E+01           0.00000000E+00
  -0.21200000E+01           0.00000000E+00
  -0.21100000E+01           0.00000000E+00
  -0.21000000E+01           0.00000000E+00
  -0.20900000E+01           0.00000000E+00
  -0.20800000E+01           0.00000000E+00
  -0.20700000E+01           0.00000000E+00
  -0.20600000E+01           0.00000000E+00
  -0.20500000E+01           0.00000000E+00
  -0.20400000E+01           0.00000000E+00
  -0.20300000E+01           0.00000000E+00
  -0.20200000E+01           0.00000000E+00
  -0.20100000E+01           0.00000000E+00
  -0.20000000E+01           0.00000000E+00
  -0.19900000E+01           0.00000000E+00
  -0.19800000E+01           0.00000000E+00
  -0.19700000E+01           0.00000000E+00
  -0.19600000E+01           0.00000000E+00
  -0.19500000E+01           0.00000000E+00
  -0.19400000E+01           0.00000000E+00
  -0.19300000E+01           0.00000000E+00
  -0.19200000E+01           0.00000000E+00
  -0.19100000E+01           0.00000000E+00
  -0.19000000E+01           0.00000000E+00
  -0.18900000E+01           0.00000000E+00
  -0.18800000E+01           0.00000000E+00
  -0.18700000E+01           0.00000000E+00
  -0.18600000E+01           0.00000000E+00
  -0.18500000E+01           0.00000000E+00
  -0.18400000E+01           0.00000000E+00
  -0.18300000E+01           0.00000000E+00
  -0.18200000E+01           0.00000000E+00
  -0.18100000E+01           0.00000000E+00
  -0.18000000E+01           0.00000000E+00
  -0.17900000E+01           0.00000000E+00
  -0.17800000E+01           0.00000000E+00
  -0.17700000E+01           0.00000000E+00
  -0.17600000E+01           0.00000000E+00
  -0.17500000E+01           0.00000000E+00
  -0.17400000E+01           0.00000000E+00
  -0.17300000E+01           0.00000000E+00
  -0.17200000E+01           0.00000000E+00
  -0.17100000E+01           0.00000000E+00
  -0.17000000E+01           0.00000000E+00
  -0.16900000E+01           0.00000000E+00
  -0.16800000E+01           0.00000000E+00
  -0.16700000E+01           0.00000000E+00
  -0.16600000E+01           0.00000000E+00
  -0.16500000E+01           0.00000000E+00
  -0.16400000E+01           0.00000000E+00
  -0.16300000E+01           0.00000000E+00
  -0.16200000E+01           0.00000000E+00
  -0.16100000E+01           0.00000000E+00
  -0.16000000E+01           0.00000000E+00
  -0.15900000E+01           0.00000000E+00
  -0.15800000E+01           0.00000000E+00
  -0.15700000E+01           0.00000000E+00
  -0.15600000E+01           0.00000000E+00
  -0.15500000E+01           0.00000000E+00
  -0.15400000E+01           0.00000000E+00
  -0.15300000E+01           0.00000000E+00
  -0.15200000E+01           0.00000000E+00
  -0.15100000E+01           0.00000000E+00
  -0.15000000E+01           0.00000000E+00
  -0.14900000E+01           0.00000000E+00
[...]
  -0.64000000E+00           0.00000000E+00
  -0.63000000E+00           0.00000000E+00
  -0.62000000E+00           0.00000000E+00
  -0.61000000E+00           0.00000000E+00
  -0.60000000E+00           0.00000000E+00
  -0.59000000E+00           0.00000000E+00
  -0.58000000E+00           0.00000000E+00
  -0.57000000E+00           0.00000000E+00
  -0.56000000E+00           0.00000000E+00
  -0.55000000E+00           0.00000000E+00
  -0.54000000E+00           0.00000000E+00
  -0.53000000E+00           0.00000000E+00
  -0.52000000E+00           0.00000000E+00
  -0.51000000E+00           0.00000000E+00
  -0.50000000E+00           0.00000000E+00
  -0.49000000E+00           0.00000000E+00
  -0.48000000E+00           0.00000000E+00
  -0.47000000E+00           0.00000000E+00
  -0.46000000E+00           0.00000000E+00
  -0.45000000E+00           0.00000000E+00
  -0.44000000E+00           0.00000000E+00
  -0.43000000E+00           0.00000000E+00
  -0.42000000E+00           0.00000000E+00
  -0.41000000E+00           0.00000000E+00
  -0.40000000E+00           0.00000000E+00
  -0.39000000E+00           0.00000000E+00
  -0.38000000E+00           0.00000000E+00
  -0.37000000E+00           0.00000000E+00
  -0.36000000E+00           0.00000000E+00
  -0.35000000E+00           0.00000000E+00
  -0.34000000E+00           0.00000000E+00
  -0.33000000E+00           0.00000000E+00
  -0.32000000E+00           0.00000000E+00
  -0.31000000E+00           0.00000000E+00
  -0.30000000E+00           0.00000000E+00
  -0.29000000E+00           0.00000000E+00
  -0.28000000E+00           0.00000000E+00
  -0.27000000E+00           0.00000000E+00
  -0.26000000E+00           0.00000000E+00
  -0.25000000E+00           0.00000000E+00
  -0.24000000E+00           0.00000000E+00
  -0.23000000E+00           0.00000000E+00
  -0.22000000E+00           0.00000000E+00
  -0.21000000E+00           0.00000000E+00
  -0.20000000E+00           0.00000000E+00
  -0.19000000E+00           0.00000000E+00
  -0.18000000E+00           0.00000000E+00
  -0.17000000E+00           0.00000000E+00
  -0.16000000E+00           0.00000000E+00
  -0.15000000E+00           0.00000000E+00
  -0.14000000E+00           0.00000000E+00
  -0.13000000E+00           0.00000000E+00
  -0.12000000E+00           0.00000000E+00
  -0.11000000E+00           0.00000000E+00
  -0.10000000E+00           0.00000000E+00
  -0.90000000E-01           0.00000000E+00
  -0.80000000E-01           0.00000000E+00
  -0.70000000E-01           0.00000000E+00
  -0.60000000E-01           0.00000000E+00
  -0.50000000E-01           0.00000000E+00
  -0.40000000E-01           0.00000000E+00
  -0.30000000E-01           0.00000000E+00
  -0.20000000E-01           0.00000000E+00
  -0.10000000E-01           0.00000000E+00
   0.00000000E+00           0.57142857E-05
   0.10000000E-01           0.11485714E-03
   0.20000000E-01           0.40785714E-03
   0.30000000E-01           0.90985714E-03
   0.40000000E-01           0.15704286E-02
   0.50000000E-01           0.24280000E-02
   0.60000000E-01           0.35261429E-02
   0.70000000E-01           0.47544286E-02
   0.80000000E-01           0.61802857E-02
   0.90000000E-01           0.76734286E-02
   0.10000000E+00           0.93944286E-02
   0.11000000E+00           0.11320000E-01
   0.12000000E+00           0.13453857E-01
   0.13000000E+00           0.15651286E-01
   0.14000000E+00           0.18000143E-01
   0.15000000E+00           0.20513857E-01
   0.16000000E+00           0.23144286E-01
   0.17000000E+00           0.25992714E-01
   0.18000000E+00           0.28947714E-01
   0.19000000E+00           0.32002000E-01
   0.20000000E+00           0.35239143E-01
   0.21000000E+00           0.38508571E-01
   0.22000000E+00           0.42070000E-01
   0.23000000E+00           0.45588286E-01
   0.24000000E+00           0.49303429E-01
   0.25000000E+00           0.53076000E-01
   0.26000000E+00           0.56878571E-01
   0.27000000E+00           0.60913714E-01
   0.28000000E+00           0.65003714E-01
   0.29000000E+00           0.69321000E-01
   0.30000000E+00           0.73606286E-01
   0.31000000E+00           0.78056429E-01
   0.32000000E+00           0.82492714E-01
   0.33000000E+00           0.87018429E-01
   0.34000000E+00           0.91748000E-01
   0.35000000E+00           0.96658286E-01
   0.36000000E+00           0.10148971E+00
   0.37000000E+00           0.10650571E+00
   0.38000000E+00           0.11126514E+00
   0.39000000E+00           0.11612414E+00
   0.40000000E+00           0.12130100E+00
   0.41000000E+00           0.12618471E+00
   0.42000000E+00           0.13162229E+00
   0.43000000E+00           0.13689429E+00
   0.44000000E+00           0.14211186E+00
   0.45000000E+00           0.14745600E+00
   0.46000000E+00           0.15287129E+00
   0.47000000E+00           0.15839514E+00
   0.48000000E+00           0.16387157E+00
   0.49000000E+00           0.16926857E+00
   0.50000000E+00           0.17507014E+00
   0.51000000E+00           0.18057214E+00
   0.52000000E+00           0.18603286E+00
   0.53000000E+00           0.19177486E+00
   0.54000000E+00           0.19789086E+00
   0.55000000E+00           0.20300014E+00
   0.56000000E+00           0.20906529E+00
   0.57000000E+00           0.21486486E+00
   0.58000000E+00           0.22030714E+00
   0.59000000E+00           0.22652243E+00
   0.60000000E+00           0.23197171E+00
   0.61000000E+00           0.23773643E+00
   0.62000000E+00           0.24334343E+00
   0.63000000E+00           0.24901171E+00
   0.64000000E+00           0.25460643E+00
   0.65000000E+00           0.26098929E+00
   0.66000000E+00           0.26654086E+00
   0.67000000E+00           0.27257214E+00
   0.68000000E+00           0.27766514E+00
   0.69000000E+00           0.28386971E+00
   0.70000000E+00           0.28895971E+00
   0.71000000E+00           0.29507329E+00
   0.72000000E+00           0.30083029E+00
   0.73000000E+00           0.30598214E+00
   0.74000000E+00           0.31212529E+00
   0.75000000E+00           0.31761143E+00
   0.76000000E+00           0.32314514E+00
   0.77000000E+00           0.32851686E+00
   0.78000000E+00           0.33374500E+00
   0.79000000E+00           0.33946871E+00
   0.80000000E+00           0.34445814E+00
   0.81000000E+00           0.35024514E+00
   0.82000000E+00           0.35645886E+00
   0.83000000E+00           0.36101543E+00
   0.84000000E+00           0.36670171E+00
   0.85000000E+00           0.37130100E+00
   0.86000000E+00           0.37683300E+00
   0.87000000E+00           0.38177229E+00
   0.88000000E+00           0.38701086E+00
   0.89000000E+00           0.39217686E+00
   0.90000000E+00           0.39714543E+00
   0.91000000E+00           0.40208643E+00
   0.92000000E+00           0.40708443E+00
   0.93000000E+00           0.41188500E+00
   0.94000000E+00           0.41671557E+00
   0.95000000E+00           0.42087814E+00
   0.96000000E+00           0.42574186E+00
   0.97000000E+00           0.43029586E+00
   0.98000000E+00           0.43505443E+00
   0.99000000E+00           0.43938543E+00
   0.10000000E+01           0.44386871E+00
   0.10100000E+01           0.44811343E+00
   0.10200000E+01           0.45241329E+00
   0.10300000E+01           0.45615600E+00
   0.10400000E+01           0.45993557E+00
   0.10500000E+01           0.46474586E+00
   0.10600000E+01           0.46796171E+00
   0.10700000E+01           0.47230400E+00
   0.10800000E+01           0.47639771E+00
   0.10900000E+01           0.47991043E+00
   0.11000000E+01           0.48352057E+00
   0.11100000E+01           0.48712614E+00
   0.11200000E+01           0.49039800E+00
   0.11300000E+01           0.49435843E+00
   0.11400000E+01           0.49747686E+00
   0.11500000E+01           0.50011029E+00
   0.11600000E+01           0.50376129E+00
   0.11700000E+01           0.50702643E+00
   0.11800000E+01           0.51024143E+00
   0.11900000E+01           0.51275129E+00
   0.12000000E+01           0.51615143E+00
   0.12100000E+01           0.51882914E+00
   0.12200000E+01           0.52155100E+00
   0.12300000E+01           0.52394414E+00
   0.12400000E+01           0.52593086E+00
   0.12500000E+01           0.52808557E+00
   0.12600000E+01           0.53096914E+00
   0.12700000E+01           0.53361186E+00
   0.12800000E+01           0.53557414E+00
   0.12900000E+01           0.53757143E+00
   0.13000000E+01           0.54020143E+00
   0.13100000E+01           0.54129629E+00
   0.13200000E+01           0.54338486E+00
   0.13300000E+01           0.54480100E+00
   0.13400000E+01           0.54645600E+00
   0.13500000E+01           0.54760986E+00
   0.13600000E+01           0.54997814E+00
   0.13700000E+01           0.55082914E+00
   0.13800000E+01           0.55275529E+00
   0.13900000E+01           0.55373414E+00
   0.14000000E+01           0.55428529E+00
   0.14100000E+01           0.55568186E+00
   0.14200000E+01           0.55621971E+00
   0.14300000E+01           0.55723000E+00
   0.14400000E+01           0.55868571E+00
   0.14500000E+01           0.55859914E+00
   0.14600000E+01           0.55900200E+00
   0.14700000E+01           0.55921929E+00
   0.14800000E+01           0.55908929E+00
   0.14900000E+01           0.55988014E+00
   0.15000000E+01           0.56022900E+00
   0.15100000E+01           0.55998757E+00
   0.15200000E+01           0.55995143E+00
   0.15300000E+01           0.55944214E+00
   0.15400000E+01           0.55991200E+00
   0.15500000E+01           0.55907857E+00
   0.15600000E+01           0.55896800E+00
   0.15700000E+01           0.55838414E+00
   0.15800000E+01           0.55809086E+00
   0.15900000E+01           0.55669629E+00
   0.16000000E+01           0.55629229E+00
   0.16100000E+01           0.55550714E+00
   0.16200000E+01           0.55395529E+00
   0.16300000E+01           0.55360729E+00
   0.16400000E+01           0.55198043E+00
   0.16500000E+01           0.55131429E+00
   0.16600000E+01           0.55000514E+00
   0.16700000E+01           0.54814800E+00
   0.16800000E+01           0.54662086E+00
   0.16900000E+01           0.54534657E+00
   0.17000000E+01           0.54388843E+00
   0.17100000E+01           0.54177414E+00
   0.17200000E+01           0.53965000E+00
   0.17300000E+01           0.53817629E+00
   0.17400000E+01           0.53623514E+00
   0.17500000E+01           0.53384514E+00
   0.17600000E+01           0.53183843E+00
   0.17700000E+01           0.52931114E+00
   0.17800000E+01           0.52682929E+00
   0.17900000E+01           0.52423386E+00
   0.18000000E+01           0.52203357E+00
   0.18100000E+01           0.51888471E+00
   0.18200000E+01           0.51648657E+00
   0.18300000E+01           0.51359371E+00
   0.18400000E+01           0.51073971E+00
   0.18500000E+01           0.50779914E+00
   0.18600000E+01           0.50498129E+00
   0.18700000E+01           0.50165871E+00
   0.18800000E+01           0.49817886E+00
   0.18900000E+01           0.49495571E+00
   0.19000000E+01           0.49117686E+00
   0.19100000E+01           0.48840843E+00
   0.19200000E+01           0.48461757E+00
   0.19300000E+01           0.48076686E+00
   0.19400000E+01           0.47674671E+00
   0.19500000E+01           0.47342114E+00
   0.19600000E+01           0.46890214E+00
   0.19700000E+01           0.46571414E+00
   0.19800000E+01           0.46143814E+00
   0.19900000E+01           0.45694429E+00
   0.20000000E+01           0.45246557E+00
   0.20100000E+01           0.44887243E+00
   0.20200000E+01           0.44420586E+00
   0.20300000E+01           0.44013629E+00
   0.20400000E+01           0.43611100E+00
   0.20500000E+01           0.43136643E+00
   0.20600000E+01           0.42726229E+00
   0.20700000E+01           0.42334386E+00
   0.20800000E+01           0.41847171E+00
   0.20900000E+01           0.41488300E+00
   0.21000000E+01           0.41062414E+00
   0.21100000E+01           0.40612357E+00
   0.21200000E+01           0.40128286E+00
   0.21300000E+01           0.39753657E+00
   0.21400000E+01           0.39330243E+00
   0.21500000E+01           0.38924686E+00
   0.21600000E+01           0.38432671E+00
   0.21700000E+01           0.38115557E+00
   0.21800000E+01           0.37610957E+00
   0.21900000E+01           0.37238200E+00
   0.22000000E+01           0.36768514E+00
   0.22100000E+01           0.36352314E+00
   0.22200000E+01           0.35937043E+00
   0.22300000E+01           0.35506929E+00
   0.22400000E+01           0.35148086E+00
   0.22500000E+01           0.34682457E+00
   0.22600000E+01           0.34309657E+00
   0.22700000E+01           0.33883114E+00
   0.22800000E+01           0.33472271E+00
   0.22900000E+01           0.33059100E+00
   0.23000000E+01           0.32629086E+00
   0.23100000E+01           0.32224029E+00
   0.23200000E+01           0.31835186E+00
   0.23300000E+01           0.31469886E+00
   0.23400000E+01           0.31020714E+00
   0.23500000E+01           0.30654043E+00
   0.23600000E+01           0.30253700E+00
   0.23700000E+01           0.29825657E+00
   0.23800000E+01           0.29426900E+00
   0.23900000E+01           0.29060943E+00
   0.24000000E+01           0.28656300E+00
   0.24100000E+01           0.28300143E+00
   0.24200000E+01           0.27889614E+00
   0.24300000E+01           0.27546871E+00
   0.24400000E+01           0.27159457E+00
   0.24500000E+01           0.26747557E+00
   0.24600000E+01           0.26345586E+00
   0.24700000E+01           0.25968471E+00
   0.24800000E+01           0.25594771E+00
   0.24900000E+01           0.25273600E+00
   0.25000000E+01           0.24902000E+00
   0.25100000E+01           0.24536643E+00
   0.25200000E+01           0.24149071E+00
   0.25300000E+01           0.23762343E+00
   0.25400000E+01           0.23425857E+00
   0.25500000E+01           0.23103071E+00
   0.25600000E+01           0.22701386E+00
   0.25700000E+01           0.22345171E+00
   0.25800000E+01           0.21982586E+00
   0.25900000E+01           0.21634114E+00
   0.26000000E+01           0.21332186E+00
   0.26100000E+01           0.20966914E+00
   0.26200000E+01           0.20605114E+00
   0.26300000E+01           0.20311757E+00
   0.26400000E+01           0.19961143E+00
   0.26500000E+01           0.19576800E+00
   0.26600000E+01           0.19272886E+00
   0.26700000E+01           0.18979900E+00
   0.26800000E+01           0.18616029E+00
   0.26900000E+01           0.18359686E+00
   0.27000000E+01           0.18000400E+00
   0.27100000E+01           0.17731571E+00
   0.27200000E+01           0.17386986E+00
   0.27300000E+01           0.17083971E+00
   0.27400000E+01           0.16779043E+00
   0.27500000E+01           0.16464514E+00
   0.27600000E+01           0.16156057E+00
   0.27700000E+01           0.15862071E+00
   0.27800000E+01           0.15570314E+00
   0.27900000E+01           0.15303186E+00
   0.28000000E+01           0.14995571E+00
   0.28100000E+01           0.14722000E+00
   0.28200000E+01           0.14439886E+00
   0.28300000E+01           0.14154657E+00
   0.28400000E+01           0.13855914E+00
   0.28500000E+01           0.13608757E+00
   0.28600000E+01           0.13335129E+00
   0.28700000E+01           0.13073100E+00
   0.28800000E+01           0.12818071E+00
   0.28900000E+01           0.12540129E+00
   0.29000000E+01           0.12287929E+00
   0.29100000E+01           0.12007900E+00
   0.29200000E+01           0.11783257E+00
   0.29300000E+01           0.11486029E+00
   0.29400000E+01           0.11291314E+00
   0.29500000E+01           0.10997586E+00
   0.29600000E+01           0.10783243E+00
   0.29700000E+01           0.10557843E+00
   0.29800000E+01           0.10325357E+00
   0.29900000E+01           0.10074214E+00
   0.30000000E+01           0.98583000E-01
   0.30100000E+01           0.96306000E-01
   0.30200000E+01           0.94015714E-01
   0.30300000E+01           0.91723714E-01
   0.30400000E+01           0.89642286E-01
   0.30500000E+01           0.87501143E-01
   0.30600000E+01           0.85517143E-01
   0.30700000E+01           0.83106143E-01
   0.30800000E+01           0.81383429E-01
   0.30900000E+01           0.79365857E-01
   0.31000000E+01           0.77357286E-01
   0.31100000E+01           0.75392286E-01
   0.31200000E+01           0.73288714E-01
   0.31300000E+01           0.71540714E-01
   0.31400000E+01           0.69619857E-01
   0.31500000E+01           0.67960571E-01
   0.31600000E+01           0.66080000E-01
   0.31700000E+01           0.64100286E-01
   0.31800000E+01           0.62377286E-01
   0.31900000E+01           0.60703857E-01
   0.32000000E+01           0.58993286E-01
   0.32100000E+01           0.57432429E-01
   0.32200000E+01           0.55603857E-01
   0.32300000E+01           0.54013714E-01
   0.32400000E+01           0.52422857E-01
   0.32500000E+01           0.50872000E-01
   0.32600000E+01           0.49585714E-01
   0.32700000E+01           0.47961286E-01
   0.32800000E+01           0.46441143E-01
   0.32900000E+01           0.44866000E-01
   0.33000000E+01           0.43579000E-01
   0.33100000E+01           0.42184571E-01
   0.33200000E+01           0.40809714E-01
   0.33300000E+01           0.39328857E-01
   0.33400000E+01           0.38235571E-01
   0.33500000E+01           0.36778429E-01
   0.33600000E+01           0.35613429E-01
   0.33700000E+01           0.34344714E-01
   0.33800000E+01           0.33118143E-01
   0.33900000E+01           0.31927000E-01
   0.34000000E+01           0.30748571E-01
   0.34100000E+01           0.29570571E-01
   0.34200000E+01           0.28618714E-01
   0.34300000E+01           0.27432857E-01
   0.34400000E+01           0.26452286E-01
   0.34500000E+01           0.25409286E-01
   0.34600000E+01           0.24255429E-01
   0.34700000E+01           0.23360286E-01
   0.34800000E+01           0.22374714E-01
   0.34900000E+01           0.21373857E-01
   0.35000000E+01           0.20577000E-01
   0.35100000E+01           0.19609571E-01
   0.35200000E+01           0.18825286E-01
   0.35300000E+01           0.17870286E-01
   0.35400000E+01           0.17068286E-01
   0.35500000E+01           0.16301286E-01
   0.35600000E+01           0.15498286E-01
   0.35700000E+01           0.14756000E-01
   0.35800000E+01           0.14033857E-01
   0.35900000E+01           0.13217714E-01
   0.36000000E+01           0.12690143E-01
   0.36100000E+01           0.11926286E-01
   0.36200000E+01           0.11270000E-01
   0.36300000E+01           0.10606000E-01
   0.36400000E+01           0.99780000E-02
   0.36500000E+01           0.95172857E-02
   0.36600000E+01           0.89082857E-02
   0.36700000E+01           0.83348571E-02
   0.36800000E+01           0.77917143E-02
   0.36900000E+01           0.72697143E-02
   0.37000000E+01           0.67692857E-02
   0.37100000E+01           0.63412857E-02
   0.37200000E+01           0.58230000E-02
   0.37300000E+01           0.53892857E-02
   0.37400000E+01           0.50550000E-02
   0.37500000E+01           0.46001429E-02
   0.37600000E+01           0.42161429E-02
   0.37700000E+01           0.38602857E-02
   0.37800000E+01           0.34802857E-02
   0.37900000E+01           0.31631429E-02
   0.38000000E+01           0.28944286E-02
   0.38100000E+01           0.25965714E-02
   0.38200000E+01           0.23087143E-02
   0.38300000E+01           0.20750000E-02
   0.38400000E+01           0.18058571E-02
   0.38500000E+01           0.15890000E-02
   0.38600000E+01           0.13968571E-02
   0.38700000E+01           0.11627143E-02
   0.38800000E+01           0.10002857E-02
   0.38900000E+01           0.84242857E-03
   0.39000000E+01           0.67928571E-03
   0.39100000E+01           0.55900000E-03
   0.39200000E+01           0.45785714E-03
   0.39300000E+01           0.33600000E-03
   0.39400000E+01           0.23628571E-03
   0.39500000E+01           0.16871429E-03
   0.39600000E+01           0.10814286E-03
   0.39700000E+01           0.62714286E-04
   0.39800000E+01           0.28142857E-04
   0.39900000E+01           0.61428571E-05
   0.40000000E+01           0.57142857E-06
