 #written on 26Aug2024 at 14:19:18 
 #----------------------------------------------- MONTECARLO ---------------------------------------------------#
 # Temp      Magnetization     Energy_ave          C_M              Sus              U_E              U_M       #
 #--------------------------------------------------------------------------------------------------------------#
  30.0000   0.71822495E-02  -0.12592727E+03   0.11426245E+01   0.10119602E-02   0.66663579E+00   0.39473569E+00
  31.0000   0.73106449E-02  -0.12477288E+03   0.11596122E+01   0.10075222E-02   0.66663259E+00   0.39641696E+00
  32.0000   0.74446421E-02  -0.12361258E+03   0.11665437E+01   0.10073952E-02   0.66662945E+00   0.39810066E+00
  33.0000   0.75809226E-02  -0.12244340E+03   0.11712746E+01   0.10060821E-02   0.66662617E+00   0.40007513E+00
  34.0000   0.77061862E-02  -0.12126556E+03   0.11834253E+01   0.10006889E-02   0.66662238E+00   0.40225257E+00
  35.0000   0.78329864E-02  -0.12007432E+03   0.11980125E+01   0.10028625E-02   0.66661821E+00   0.40274241E+00
  36.0000   0.79561684E-02  -0.11887596E+03   0.12040352E+01   0.99870464E-03   0.66661410E+00   0.40474727E+00
  37.0000   0.80752783E-02  -0.11766164E+03   0.12199671E+01   0.99439614E-03   0.66660924E+00   0.40690867E+00
  38.0000   0.82111937E-02  -0.11644770E+03   0.12282254E+01   0.99574517E-03   0.66660440E+00   0.40833618E+00
  39.0000   0.83357914E-02  -0.11521436E+03   0.12405687E+01   0.99296282E-03   0.66659900E+00   0.41020591E+00
  40.0000   0.84559204E-02  -0.11396853E+03   0.12518280E+01   0.99454683E-03   0.66659327E+00   0.41056882E+00
  41.0000   0.85774028E-02  -0.11270979E+03   0.12656432E+01   0.98993738E-03   0.66658695E+00   0.41340771E+00
  42.0000   0.87091942E-02  -0.11143670E+03   0.12838134E+01   0.99157363E-03   0.66657987E+00   0.41410781E+00
  43.0000   0.88331497E-02  -0.11014639E+03   0.12998739E+01   0.98850597E-03   0.66657237E+00   0.41699312E+00
  44.0000   0.89494385E-02  -0.10884621E+03   0.13068476E+01   0.98809325E-03   0.66656502E+00   0.41773702E+00
  45.0000   0.90745443E-02  -0.10752527E+03   0.13282810E+01   0.98951442E-03   0.66655594E+00   0.41920025E+00
  46.0000   0.91996188E-02  -0.10618986E+03   0.13463841E+01   0.98941499E-03   0.66654642E+00   0.42070883E+00
  47.0000   0.93188266E-02  -0.10483688E+03   0.13612132E+01   0.98972811E-03   0.66653646E+00   0.42205185E+00
  48.0000   0.94461478E-02  -0.10345891E+03   0.13845557E+01   0.99134125E-03   0.66652484E+00   0.42377744E+00
  49.0000   0.95583142E-02  -0.10206433E+03   0.14013070E+01   0.98843371E-03   0.66651297E+00   0.42488657E+00
  50.0000   0.96924242E-02  -0.10063994E+03   0.14317910E+01   0.99466228E-03   0.66649849E+00   0.42538236E+00
  51.0000   0.98124483E-02  -0.99198312E+02   0.14522505E+01   0.99286285E-03   0.66648400E+00   0.42808047E+00
  52.0000   0.99473464E-02  -0.97736604E+02   0.14814954E+01   0.99628639E-03   0.66646711E+00   0.42900368E+00
  53.0000   0.10066699E-01  -0.96234397E+02   0.15124679E+01   0.99558966E-03   0.66644839E+00   0.43045264E+00
  54.0000   0.10194655E-01  -0.94708665E+02   0.15398346E+01   0.99639544E-03   0.66642851E+00   0.43237030E+00
  55.0000   0.10316917E-01  -0.93148320E+02   0.15696368E+01   0.10023602E-02   0.66640635E+00   0.43218974E+00
  56.0000   0.10457515E-01  -0.91564741E+02   0.16077944E+01   0.10022673E-02   0.66638059E+00   0.43488295E+00
  57.0000   0.10575468E-01  -0.89945256E+02   0.16391616E+01   0.10080743E-02   0.66635352E+00   0.43478561E+00
  58.0000   0.10711561E-01  -0.88283003E+02   0.16787840E+01   0.10108943E-02   0.66632204E+00   0.43604387E+00
  59.0000   0.10834898E-01  -0.86582929E+02   0.17209523E+01   0.10143419E-02   0.66628663E+00   0.43736419E+00
  60.0000   0.10975722E-01  -0.84836914E+02   0.17644670E+01   0.10215965E-02   0.66624696E+00   0.43782163E+00
  61.0000   0.11097612E-01  -0.83047514E+02   0.18128450E+01   0.10261410E-02   0.66620158E+00   0.43833896E+00
  62.0000   0.11234224E-01  -0.81214331E+02   0.18615873E+01   0.10307853E-02   0.66615084E+00   0.43935711E+00
  63.0000   0.11371766E-01  -0.79323405E+02   0.19238840E+01   0.10375995E-02   0.66608985E+00   0.44018467E+00
  64.0000   0.11519372E-01  -0.77380171E+02   0.19771165E+01   0.10457338E-02   0.66602390E+00   0.44086076E+00
  65.0000   0.11659969E-01  -0.75369300E+02   0.20455758E+01   0.10516723E-02   0.66594364E+00   0.44129973E+00
  66.0000   0.11800365E-01  -0.73283773E+02   0.21209652E+01   0.10596731E-02   0.66584925E+00   0.44219606E+00
  67.0000   0.11939386E-01  -0.71133132E+02   0.21948399E+01   0.10707120E-02   0.66574183E+00   0.44178148E+00
  68.0000   0.12098741E-01  -0.68887424E+02   0.22842545E+01   0.10770092E-02   0.66560964E+00   0.44290384E+00
  69.0000   0.12243230E-01  -0.66547744E+02   0.23769922E+01   0.10852534E-02   0.66545338E+00   0.44349834E+00
  70.0000   0.12396049E-01  -0.64140422E+02   0.24531351E+01   0.10990023E-02   0.66527892E+00   0.44300774E+00
  71.0000   0.12556983E-01  -0.61705725E+02   0.23799472E+01   0.11087246E-02   0.66516773E+00   0.44417233E+00
  72.0000   0.12701077E-01  -0.59430160E+02   0.21401544E+01   0.11182419E-02   0.66516832E+00   0.44392468E+00
  73.0000   0.12828989E-01  -0.57444977E+02   0.18340789E+01   0.11248549E-02   0.66525183E+00   0.44408125E+00
  74.0000   0.12955027E-01  -0.55759611E+02   0.15503693E+01   0.11318197E-02   0.66536259E+00   0.44391700E+00
  75.0000   0.13050160E-01  -0.54313133E+02   0.13582560E+01   0.11332616E-02   0.66543057E+00   0.44394418E+00
  76.0000   0.13152410E-01  -0.53034271E+02   0.12060650E+01   0.11367770E-02   0.66548529E+00   0.44393379E+00
  77.0000   0.13240917E-01  -0.51882382E+02   0.11025660E+01   0.11362439E-02   0.66550888E+00   0.44372930E+00
  78.0000   0.13318653E-01  -0.50825977E+02   0.10149569E+01   0.11359803E-02   0.66552756E+00   0.44404393E+00
  79.0000   0.13402499E-01  -0.49841427E+02   0.95044933E+00   0.11336263E-02   0.66552911E+00   0.44434704E+00
  80.0000   0.13472449E-01  -0.48921253E+02   0.89015762E+00   0.11343295E-02   0.66553302E+00   0.44367492E+00
  81.0000   0.13551230E-01  -0.48055314E+02   0.84388256E+00   0.11334630E-02   0.66552480E+00   0.44367679E+00
  82.0000   0.13620931E-01  -0.47233711E+02   0.79945007E+00   0.11289640E-02   0.66551913E+00   0.44423354E+00
  83.0000   0.13692665E-01  -0.46449634E+02   0.76127239E+00   0.11272162E-02   0.66550940E+00   0.44423629E+00
  84.0000   0.13759607E-01  -0.45706219E+02   0.72592941E+00   0.11232635E-02   0.66549947E+00   0.44456778E+00
  85.0000   0.13820994E-01  -0.44992208E+02   0.69653816E+00   0.11229026E-02   0.66548303E+00   0.44387628E+00
  86.0000   0.13889265E-01  -0.44311451E+02   0.66763311E+00   0.11190219E-02   0.66546940E+00   0.44403076E+00
  87.0000   0.13930073E-01  -0.43653890E+02   0.64498260E+00   0.11101220E-02   0.66544731E+00   0.44501288E+00
  88.0000   0.14001014E-01  -0.43024066E+02   0.61878786E+00   0.11100616E-02   0.66543445E+00   0.44462843E+00
  89.0000   0.14042783E-01  -0.42415747E+02   0.59611135E+00   0.11049316E-02   0.66541743E+00   0.44467835E+00
  90.0000   0.14101982E-01  -0.41829398E+02   0.57628647E+00   0.11044524E-02   0.66539698E+00   0.44381553E+00
  91.0000   0.14164938E-01  -0.41265118E+02   0.55618051E+00   0.10945921E-02   0.66537959E+00   0.44597744E+00
  92.0000   0.14202568E-01  -0.40711839E+02   0.53994203E+00   0.10911316E-02   0.66535461E+00   0.44477904E+00
  93.0000   0.14265742E-01  -0.40181731E+02   0.52326485E+00   0.10892837E-02   0.66533284E+00   0.44485295E+00
  94.0000   0.14298674E-01  -0.39670589E+02   0.50589142E+00   0.10850372E-02   0.66531514E+00   0.44440685E+00
  95.0000   0.14343284E-01  -0.39168607E+02   0.49076472E+00   0.10784464E-02   0.66529294E+00   0.44463488E+00
  96.0000   0.14388370E-01  -0.38687429E+02   0.47689700E+00   0.10771143E-02   0.66526943E+00   0.44424778E+00
  97.0000   0.14428812E-01  -0.38215260E+02   0.46383647E+00   0.10738434E-02   0.66524493E+00   0.44341203E+00
  98.0000   0.14478616E-01  -0.37757546E+02   0.45132838E+00   0.10673221E-02   0.66522021E+00   0.44447389E+00
  99.0000   0.14519941E-01  -0.37309526E+02   0.43794326E+00   0.10597812E-02   0.66519994E+00   0.44490477E+00
 100.0000   0.14552911E-01  -0.36879325E+02   0.42861657E+00   0.10565765E-02   0.66516751E+00   0.44442469E+00
 101.0000   0.14596262E-01  -0.36455619E+02   0.41508684E+00   0.10548497E-02   0.66515104E+00   0.44378064E+00
 102.0000   0.14650402E-01  -0.36045983E+02   0.40597774E+00   0.10491864E-02   0.66512050E+00   0.44442251E+00
 103.0000   0.14683405E-01  -0.35644499E+02   0.39595928E+00   0.10422273E-02   0.66509431E+00   0.44463564E+00
 104.0000   0.14728373E-01  -0.35256179E+02   0.38603513E+00   0.10403660E-02   0.66506915E+00   0.44459731E+00
 105.0000   0.14751102E-01  -0.34875286E+02   0.37596923E+00   0.10335308E-02   0.66504591E+00   0.44422303E+00
 106.0000   0.14792950E-01  -0.34503258E+02   0.36807398E+00   0.10283651E-02   0.66501456E+00   0.44412492E+00
 107.0000   0.14814212E-01  -0.34139343E+02   0.35818879E+00   0.10228109E-02   0.66499342E+00   0.44465152E+00
 108.0000   0.14843673E-01  -0.33785912E+02   0.35100023E+00   0.10168445E-02   0.66496120E+00   0.44481041E+00
 109.0000   0.14894396E-01  -0.33438781E+02   0.34273116E+00   0.10137959E-02   0.66493480E+00   0.44465999E+00
