 #written on 21Nov2024 at 12:09:15 
 #----------------- MONTECARLO -------------------#
 #        M                      P(M)             #
 #------------------------------------------------#
 #T=   350.0000
  -0.40000000E+01           0.00000000E+00
  -0.39900000E+01           0.00000000E+00
  -0.39800000E+01           0.00000000E+00
  -0.39700000E+01           0.00000000E+00
  -0.39600000E+01           0.00000000E+00
  -0.39500000E+01           0.00000000E+00
  -0.39400000E+01           0.00000000E+00
  -0.39300000E+01           0.00000000E+00
  -0.39200000E+01           0.00000000E+00
  -0.39100000E+01           0.00000000E+00
  -0.39000000E+01           0.00000000E+00
  -0.38900000E+01           0.00000000E+00
  -0.38800000E+01           0.00000000E+00
  -0.38700000E+01           0.00000000E+00
  -0.38600000E+01           0.00000000E+00
  -0.38500000E+01           0.00000000E+00
  -0.38400000E+01           0.00000000E+00
  -0.38300000E+01           0.00000000E+00
  -0.38200000E+01           0.00000000E+00
  -0.38100000E+01           0.00000000E+00
  -0.38000000E+01           0.00000000E+00
  -0.37900000E+01           0.00000000E+00
  -0.37800000E+01           0.00000000E+00
  -0.37700000E+01           0.00000000E+00
  -0.37600000E+01           0.00000000E+00
  -0.37500000E+01           0.00000000E+00
  -0.37400000E+01           0.00000000E+00
  -0.37300000E+01           0.00000000E+00
  -0.37200000E+01           0.00000000E+00
  -0.37100000E+01           0.00000000E+00
  -0.37000000E+01           0.00000000E+00
  -0.36900000E+01           0.00000000E+00
  -0.36800000E+01           0.00000000E+00
  -0.36700000E+01           0.00000000E+00
  -0.36600000E+01           0.00000000E+00
  -0.36500000E+01           0.00000000E+00
  -0.36400000E+01           0.00000000E+00
  -0.36300000E+01           0.00000000E+00
  -0.36200000E+01           0.00000000E+00
  -0.36100000E+01           0.00000000E+00
  -0.36000000E+01           0.00000000E+00
  -0.35900000E+01           0.00000000E+00
  -0.35800000E+01           0.00000000E+00
  -0.35700000E+01           0.00000000E+00
  -0.35600000E+01           0.00000000E+00
  -0.35500000E+01           0.00000000E+00
  -0.35400000E+01           0.00000000E+00
  -0.35300000E+01           0.00000000E+00
  -0.35200000E+01           0.00000000E+00
  -0.35100000E+01           0.00000000E+00
  -0.35000000E+01           0.00000000E+00
  -0.34900000E+01           0.00000000E+00
  -0.34800000E+01           0.00000000E+00
  -0.34700000E+01           0.00000000E+00
  -0.34600000E+01           0.00000000E+00
  -0.34500000E+01           0.00000000E+00
  -0.34400000E+01           0.00000000E+00
  -0.34300000E+01           0.00000000E+00
  -0.34200000E+01           0.00000000E+00
  -0.34100000E+01           0.00000000E+00
  -0.34000000E+01           0.00000000E+00
  -0.33900000E+01           0.00000000E+00
  -0.33800000E+01           0.00000000E+00
  -0.33700000E+01           0.00000000E+00
  -0.33600000E+01           0.00000000E+00
  -0.33500000E+01           0.00000000E+00
  -0.33400000E+01           0.00000000E+00
  -0.33300000E+01           0.00000000E+00
  -0.33200000E+01           0.00000000E+00
  -0.33100000E+01           0.00000000E+00
  -0.33000000E+01           0.00000000E+00
  -0.32900000E+01           0.00000000E+00
  -0.32800000E+01           0.00000000E+00
  -0.32700000E+01           0.00000000E+00
  -0.32600000E+01           0.00000000E+00
  -0.32500000E+01           0.00000000E+00
  -0.32400000E+01           0.00000000E+00
  -0.32300000E+01           0.00000000E+00
  -0.32200000E+01           0.00000000E+00
  -0.32100000E+01           0.00000000E+00
  -0.32000000E+01           0.00000000E+00
  -0.31900000E+01           0.00000000E+00
  -0.31800000E+01           0.00000000E+00
  -0.31700000E+01           0.00000000E+00
  -0.31600000E+01           0.00000000E+00
  -0.31500000E+01           0.00000000E+00
  -0.31400000E+01           0.00000000E+00
  -0.31300000E+01           0.00000000E+00
  -0.31200000E+01           0.00000000E+00
  -0.31100000E+01           0.00000000E+00
  -0.31000000E+01           0.00000000E+00
  -0.30900000E+01           0.00000000E+00
  -0.30800000E+01           0.00000000E+00
  -0.30700000E+01           0.00000000E+00
  -0.30600000E+01           0.00000000E+00
  -0.30500000E+01           0.00000000E+00
  -0.30400000E+01           0.00000000E+00
  -0.30300000E+01           0.00000000E+00
  -0.30200000E+01           0.00000000E+00
  -0.30100000E+01           0.00000000E+00
  -0.30000000E+01           0.00000000E+00
  -0.29900000E+01           0.00000000E+00
  -0.29800000E+01           0.00000000E+00
  -0.29700000E+01           0.00000000E+00
  -0.29600000E+01           0.00000000E+00
  -0.29500000E+01           0.00000000E+00
  -0.29400000E+01           0.00000000E+00
  -0.29300000E+01           0.00000000E+00
  -0.29200000E+01           0.00000000E+00
  -0.29100000E+01           0.00000000E+00
  -0.29000000E+01           0.00000000E+00
  -0.28900000E+01           0.00000000E+00
  -0.28800000E+01           0.00000000E+00
  -0.28700000E+01           0.00000000E+00
  -0.28600000E+01           0.00000000E+00
  -0.28500000E+01           0.00000000E+00
  -0.28400000E+01           0.00000000E+00
  -0.28300000E+01           0.00000000E+00
  -0.28200000E+01           0.00000000E+00
  -0.28100000E+01           0.00000000E+00
  -0.28000000E+01           0.00000000E+00
  -0.27900000E+01           0.00000000E+00
  -0.27800000E+01           0.00000000E+00
  -0.27700000E+01           0.00000000E+00
  -0.27600000E+01           0.00000000E+00
  -0.27500000E+01           0.00000000E+00
  -0.27400000E+01           0.00000000E+00
  -0.27300000E+01           0.00000000E+00
  -0.27200000E+01           0.00000000E+00
  -0.27100000E+01           0.00000000E+00
  -0.27000000E+01           0.00000000E+00
  -0.26900000E+01           0.00000000E+00
  -0.26800000E+01           0.00000000E+00
  -0.26700000E+01           0.00000000E+00
  -0.26600000E+01           0.00000000E+00
  -0.26500000E+01           0.00000000E+00
  -0.26400000E+01           0.00000000E+00
  -0.26300000E+01           0.00000000E+00
  -0.26200000E+01           0.00000000E+00
  -0.26100000E+01           0.00000000E+00
  -0.26000000E+01           0.00000000E+00
  -0.25900000E+01           0.00000000E+00
  -0.25800000E+01           0.00000000E+00
  -0.25700000E+01           0.00000000E+00
  -0.25600000E+01           0.00000000E+00
  -0.25500000E+01           0.00000000E+00
  -0.25400000E+01           0.00000000E+00
  -0.25300000E+01           0.00000000E+00
  -0.25200000E+01           0.00000000E+00
  -0.25100000E+01           0.00000000E+00
  -0.25000000E+01           0.00000000E+00
  -0.24900000E+01           0.00000000E+00
  -0.24800000E+01           0.00000000E+00
  -0.24700000E+01           0.00000000E+00
  -0.24600000E+01           0.00000000E+00
  -0.24500000E+01           0.00000000E+00
  -0.24400000E+01           0.00000000E+00
  -0.24300000E+01           0.00000000E+00
  -0.24200000E+01           0.00000000E+00
  -0.24100000E+01           0.00000000E+00
  -0.24000000E+01           0.00000000E+00
  -0.23900000E+01           0.00000000E+00
  -0.23800000E+01           0.00000000E+00
  -0.23700000E+01           0.00000000E+00
  -0.23600000E+01           0.00000000E+00
  -0.23500000E+01           0.00000000E+00
  -0.23400000E+01           0.00000000E+00
  -0.23300000E+01           0.00000000E+00
  -0.23200000E+01           0.00000000E+00
  -0.23100000E+01           0.00000000E+00
  -0.23000000E+01           0.00000000E+00
  -0.22900000E+01           0.00000000E+00
  -0.22800000E+01           0.00000000E+00
  -0.22700000E+01           0.00000000E+00
  -0.22600000E+01           0.00000000E+00
  -0.22500000E+01           0.00000000E+00
  -0.22400000E+01           0.00000000E+00
  -0.22300000E+01           0.00000000E+00
  -0.22200000E+01           0.00000000E+00
  -0.22100000E+01           0.00000000E+00
  -0.22000000E+01           0.00000000E+00
  -0.21900000E+01           0.00000000E+00
  -0.21800000E+01           0.00000000E+00
  -0.21700000E+01           0.00000000E+00
  -0.21600000E+01           0.00000000E+00
  -0.21500000E+01           0.00000000E+00
  -0.21400000E+01           0.00000000E+00
  -0.21300000E+01           0.00000000E+00
  -0.21200000E+01           0.00000000E+00
  -0.21100000E+01           0.00000000E+00
  -0.21000000E+01           0.00000000E+00
  -0.20900000E+01           0.00000000E+00
  -0.20800000E+01           0.00000000E+00
  -0.20700000E+01           0.00000000E+00
  -0.20600000E+01           0.00000000E+00
  -0.20500000E+01           0.00000000E+00
  -0.20400000E+01           0.00000000E+00
  -0.20300000E+01           0.00000000E+00
  -0.20200000E+01           0.00000000E+00
  -0.20100000E+01           0.00000000E+00
  -0.20000000E+01           0.00000000E+00
  -0.19900000E+01           0.00000000E+00
  -0.19800000E+01           0.00000000E+00
  -0.19700000E+01           0.00000000E+00
  -0.19600000E+01           0.00000000E+00
  -0.19500000E+01           0.00000000E+00
  -0.19400000E+01           0.00000000E+00
  -0.19300000E+01           0.00000000E+00
  -0.19200000E+01           0.00000000E+00
  -0.19100000E+01           0.00000000E+00
  -0.19000000E+01           0.00000000E+00
  -0.18900000E+01           0.00000000E+00
  -0.18800000E+01           0.00000000E+00
  -0.18700000E+01           0.00000000E+00
  -0.18600000E+01           0.00000000E+00
  -0.18500000E+01           0.00000000E+00
  -0.18400000E+01           0.00000000E+00
  -0.18300000E+01           0.00000000E+00
  -0.18200000E+01           0.00000000E+00
  -0.18100000E+01           0.00000000E+00
  -0.18000000E+01           0.00000000E+00
  -0.17900000E+01           0.00000000E+00
  -0.17800000E+01           0.00000000E+00
  -0.17700000E+01           0.00000000E+00
  -0.17600000E+01           0.00000000E+00
  -0.17500000E+01           0.00000000E+00
  -0.17400000E+01           0.00000000E+00
  -0.17300000E+01           0.00000000E+00
  -0.17200000E+01           0.00000000E+00
  -0.17100000E+01           0.00000000E+00
  -0.17000000E+01           0.00000000E+00
  -0.16900000E+01           0.00000000E+00
  -0.16800000E+01           0.00000000E+00
  -0.16700000E+01           0.00000000E+00
  -0.16600000E+01           0.00000000E+00
  -0.16500000E+01           0.00000000E+00
  -0.16400000E+01           0.00000000E+00
  -0.16300000E+01           0.00000000E+00
  -0.16200000E+01           0.00000000E+00
  -0.16100000E+01           0.00000000E+00
  -0.16000000E+01           0.00000000E+00
  -0.15900000E+01           0.00000000E+00
  -0.15800000E+01           0.00000000E+00
  -0.15700000E+01           0.00000000E+00
  -0.15600000E+01           0.00000000E+00
  -0.15500000E+01           0.00000000E+00
  -0.15400000E+01           0.00000000E+00
  -0.15300000E+01           0.00000000E+00
  -0.15200000E+01           0.00000000E+00
  -0.15100000E+01           0.00000000E+00
  -0.15000000E+01           0.00000000E+00
  -0.14900000E+01           0.00000000E+00
  -0.14800000E+01           0.00000000E+00
  -0.14700000E+01           0.00000000E+00
  -0.14600000E+01           0.00000000E+00
  -0.14500000E+01           0.00000000E+00
  -0.14400000E+01           0.00000000E+00
  -0.14300000E+01           0.00000000E+00
  -0.14200000E+01           0.00000000E+00
  -0.14100000E+01           0.00000000E+00
  -0.14000000E+01           0.00000000E+00
  -0.13900000E+01           0.00000000E+00
  -0.13800000E+01           0.00000000E+00
  -0.13700000E+01           0.00000000E+00
  -0.13600000E+01           0.00000000E+00
  -0.13500000E+01           0.00000000E+00
  -0.13400000E+01           0.00000000E+00
  -0.13300000E+01           0.00000000E+00
  -0.13200000E+01           0.00000000E+00
  -0.13100000E+01           0.00000000E+00
  -0.13000000E+01           0.00000000E+00
  -0.12900000E+01           0.00000000E+00
  -0.12800000E+01           0.00000000E+00
  -0.12700000E+01           0.00000000E+00
  -0.12600000E+01           0.00000000E+00
  -0.12500000E+01           0.00000000E+00
  -0.12400000E+01           0.00000000E+00
  -0.12300000E+01           0.00000000E+00
  -0.12200000E+01           0.00000000E+00
  -0.12100000E+01           0.00000000E+00
  -0.12000000E+01           0.00000000E+00
  -0.11900000E+01           0.00000000E+00
  -0.11800000E+01           0.00000000E+00
  -0.11700000E+01           0.00000000E+00
  -0.11600000E+01           0.00000000E+00
  -0.11500000E+01           0.00000000E+00
  -0.11400000E+01           0.00000000E+00
  -0.11300000E+01           0.00000000E+00
  -0.11200000E+01           0.00000000E+00
  -0.11100000E+01           0.00000000E+00
  -0.11000000E+01           0.00000000E+00
  -0.10900000E+01           0.00000000E+00
  -0.10800000E+01           0.00000000E+00
  -0.10700000E+01           0.00000000E+00
  -0.10600000E+01           0.00000000E+00
  -0.10500000E+01           0.00000000E+00
  -0.10400000E+01           0.00000000E+00
  -0.10300000E+01           0.00000000E+00
  -0.10200000E+01           0.00000000E+00
  -0.10100000E+01           0.00000000E+00
  -0.10000000E+01           0.00000000E+00
  -0.99000000E+00           0.00000000E+00
  -0.98000000E+00           0.00000000E+00
  -0.97000000E+00           0.00000000E+00
  -0.96000000E+00           0.00000000E+00
  -0.95000000E+00           0.00000000E+00
  -0.94000000E+00           0.00000000E+00
  -0.93000000E+00           0.00000000E+00
  -0.92000000E+00           0.00000000E+00
  -0.91000000E+00           0.00000000E+00
  -0.90000000E+00           0.00000000E+00
  -0.89000000E+00           0.00000000E+00
  -0.88000000E+00           0.00000000E+00
  -0.87000000E+00           0.00000000E+00
  -0.86000000E+00           0.00000000E+00
  -0.85000000E+00           0.00000000E+00
  -0.84000000E+00           0.00000000E+00
  -0.83000000E+00           0.00000000E+00
  -0.82000000E+00           0.00000000E+00
  -0.81000000E+00           0.00000000E+00
  -0.80000000E+00           0.00000000E+00
  -0.79000000E+00           0.00000000E+00
  -0.78000000E+00           0.00000000E+00
  -0.77000000E+00           0.00000000E+00
  -0.76000000E+00           0.00000000E+00
  -0.75000000E+00           0.00000000E+00
  -0.74000000E+00           0.00000000E+00
  -0.73000000E+00           0.00000000E+00
  -0.72000000E+00           0.00000000E+00
  -0.71000000E+00           0.00000000E+00
  -0.70000000E+00           0.00000000E+00
  -0.69000000E+00           0.00000000E+00
  -0.68000000E+00           0.00000000E+00
  -0.67000000E+00           0.00000000E+00
  -0.66000000E+00           0.00000000E+00
  -0.65000000E+00           0.00000000E+00
  -0.64000000E+00           0.00000000E+00
  -0.63000000E+00           0.00000000E+00
  -0.62000000E+00           0.00000000E+00
  -0.61000000E+00           0.00000000E+00
  -0.60000000E+00           0.00000000E+00
  -0.59000000E+00           0.00000000E+00
  -0.58000000E+00           0.00000000E+00
  -0.57000000E+00           0.00000000E+00
  -0.56000000E+00           0.00000000E+00
  -0.55000000E+00           0.00000000E+00
  -0.54000000E+00           0.00000000E+00
  -0.53000000E+00           0.00000000E+00
  -0.52000000E+00           0.00000000E+00
  -0.51000000E+00           0.00000000E+00
  -0.50000000E+00           0.00000000E+00
  -0.49000000E+00           0.00000000E+00
  -0.48000000E+00           0.00000000E+00
  -0.47000000E+00           0.00000000E+00
  -0.46000000E+00           0.00000000E+00
  -0.45000000E+00           0.00000000E+00
  -0.44000000E+00           0.00000000E+00
  -0.43000000E+00           0.00000000E+00
  -0.42000000E+00           0.00000000E+00
  -0.41000000E+00           0.00000000E+00
  -0.40000000E+00           0.00000000E+00
  -0.39000000E+00           0.00000000E+00
  -0.38000000E+00           0.00000000E+00
  -0.37000000E+00           0.00000000E+00
  -0.36000000E+00           0.00000000E+00
  -0.35000000E+00           0.00000000E+00
  -0.34000000E+00           0.00000000E+00
  -0.33000000E+00           0.00000000E+00
  -0.32000000E+00           0.00000000E+00
  -0.31000000E+00           0.00000000E+00
  -0.30000000E+00           0.00000000E+00
  -0.29000000E+00           0.00000000E+00
  -0.28000000E+00           0.00000000E+00
  -0.27000000E+00           0.00000000E+00
  -0.26000000E+00           0.00000000E+00
  -0.25000000E+00           0.00000000E+00
  -0.24000000E+00           0.00000000E+00
  -0.23000000E+00           0.00000000E+00
  -0.22000000E+00           0.00000000E+00
  -0.21000000E+00           0.00000000E+00
  -0.20000000E+00           0.00000000E+00
  -0.19000000E+00           0.00000000E+00
  -0.18000000E+00           0.00000000E+00
  -0.17000000E+00           0.00000000E+00
  -0.16000000E+00           0.00000000E+00
  -0.15000000E+00           0.00000000E+00
  -0.14000000E+00           0.00000000E+00
  -0.13000000E+00           0.00000000E+00
  -0.12000000E+00           0.00000000E+00
  -0.11000000E+00           0.00000000E+00
  -0.10000000E+00           0.00000000E+00
  -0.90000000E-01           0.00000000E+00
  -0.80000000E-01           0.00000000E+00
  -0.70000000E-01           0.00000000E+00
  -0.60000000E-01           0.00000000E+00
  -0.50000000E-01           0.00000000E+00
  -0.40000000E-01           0.00000000E+00
  -0.30000000E-01           0.00000000E+00
  -0.20000000E-01           0.00000000E+00
  -0.10000000E-01           0.00000000E+00
   0.00000000E+00           0.27951389E-04
   0.10000000E-01           0.76979167E-03
   0.20000000E-01           0.28631944E-02
   0.30000000E-01           0.61619792E-02
   0.40000000E-01           0.10866493E-01
   0.50000000E-01           0.16612500E-01
   0.60000000E-01           0.23416319E-01
   0.70000000E-01           0.31351389E-01
   0.80000000E-01           0.40356597E-01
   0.90000000E-01           0.50031250E-01
   0.10000000E+00           0.60767361E-01
   0.11000000E+00           0.72272569E-01
   0.12000000E+00           0.84352257E-01
   0.13000000E+00           0.97482292E-01
   0.14000000E+00           0.11096806E+00
   0.15000000E+00           0.12514809E+00
   0.16000000E+00           0.13967396E+00
   0.17000000E+00           0.15510399E+00
   0.18000000E+00           0.17084705E+00
   0.19000000E+00           0.18712170E+00
   0.20000000E+00           0.20364687E+00
   0.21000000E+00           0.22020799E+00
   0.22000000E+00           0.23747257E+00
   0.23000000E+00           0.25487500E+00
   0.24000000E+00           0.27207361E+00
   0.25000000E+00           0.29007292E+00
   0.26000000E+00           0.30796736E+00
   0.27000000E+00           0.32590521E+00
   0.28000000E+00           0.34432969E+00
   0.29000000E+00           0.36207465E+00
   0.30000000E+00           0.38022031E+00
   0.31000000E+00           0.39828229E+00
   0.32000000E+00           0.41651146E+00
   0.33000000E+00           0.43436476E+00
   0.34000000E+00           0.45209392E+00
   0.35000000E+00           0.47084705E+00
   0.36000000E+00           0.48776024E+00
   0.37000000E+00           0.50545139E+00
   0.38000000E+00           0.52216024E+00
   0.39000000E+00           0.53927917E+00
   0.40000000E+00           0.55621076E+00
   0.41000000E+00           0.57282604E+00
   0.42000000E+00           0.58942882E+00
   0.43000000E+00           0.60505451E+00
   0.44000000E+00           0.62060608E+00
   0.45000000E+00           0.63673854E+00
   0.46000000E+00           0.64991441E+00
   0.47000000E+00           0.66594306E+00
   0.48000000E+00           0.67984375E+00
   0.49000000E+00           0.69312969E+00
   0.50000000E+00           0.70690729E+00
   0.51000000E+00           0.72036840E+00
   0.52000000E+00           0.73288681E+00
   0.53000000E+00           0.74412552E+00
   0.54000000E+00           0.75611771E+00
   0.55000000E+00           0.76739323E+00
   0.56000000E+00           0.77896545E+00
   0.57000000E+00           0.78929792E+00
   0.58000000E+00           0.79896233E+00
   0.59000000E+00           0.80914375E+00
   0.60000000E+00           0.81742170E+00
   0.61000000E+00           0.82600226E+00
   0.62000000E+00           0.83422535E+00
   0.63000000E+00           0.84198003E+00
   0.64000000E+00           0.84939601E+00
   0.65000000E+00           0.85560590E+00
   0.66000000E+00           0.86221753E+00
   0.67000000E+00           0.86802274E+00
   0.68000000E+00           0.87295590E+00
   0.69000000E+00           0.87774479E+00
   0.70000000E+00           0.88242465E+00
   0.71000000E+00           0.88644566E+00
   0.72000000E+00           0.88882847E+00
   0.73000000E+00           0.89312257E+00
   0.74000000E+00           0.89449601E+00
   0.75000000E+00           0.89722795E+00
   0.76000000E+00           0.89909080E+00
   0.77000000E+00           0.89926354E+00
   0.78000000E+00           0.90003455E+00
   0.79000000E+00           0.89999236E+00
   0.80000000E+00           0.90187726E+00
   0.81000000E+00           0.90065938E+00
   0.82000000E+00           0.89947205E+00
   0.83000000E+00           0.89753524E+00
   0.84000000E+00           0.89639340E+00
   0.85000000E+00           0.89340764E+00
   0.86000000E+00           0.89139427E+00
   0.87000000E+00           0.88857639E+00
   0.88000000E+00           0.88499514E+00
   0.89000000E+00           0.88195017E+00
   0.90000000E+00           0.87816753E+00
   0.91000000E+00           0.87410243E+00
   0.92000000E+00           0.86993281E+00
   0.93000000E+00           0.86441163E+00
   0.94000000E+00           0.85933229E+00
   0.95000000E+00           0.85369878E+00
   0.96000000E+00           0.84760122E+00
   0.97000000E+00           0.84237812E+00
   0.98000000E+00           0.83608299E+00
   0.99000000E+00           0.82884497E+00
   0.10000000E+01           0.82244913E+00
   0.10100000E+01           0.81486493E+00
   0.10200000E+01           0.80878819E+00
   0.10300000E+01           0.80091250E+00
   0.10400000E+01           0.79260608E+00
   0.10500000E+01           0.78476458E+00
   0.10600000E+01           0.77677552E+00
   0.10700000E+01           0.76861771E+00
   0.10800000E+01           0.76057951E+00
   0.10900000E+01           0.75236580E+00
   0.11000000E+01           0.74243733E+00
   0.11100000E+01           0.73428663E+00
   0.11200000E+01           0.72578889E+00
   0.11300000E+01           0.71569531E+00
   0.11400000E+01           0.70729549E+00
   0.11500000E+01           0.69801389E+00
   0.11600000E+01           0.68777500E+00
   0.11700000E+01           0.67895694E+00
   0.11800000E+01           0.66934896E+00
   0.11900000E+01           0.65961701E+00
   0.12000000E+01           0.65016944E+00
   0.12100000E+01           0.64046806E+00
   0.12200000E+01           0.63071059E+00
   0.12300000E+01           0.62016649E+00
   0.12400000E+01           0.61069045E+00
   0.12500000E+01           0.60101406E+00
   0.12600000E+01           0.59122743E+00
   0.12700000E+01           0.58124757E+00
   0.12800000E+01           0.57178403E+00
   0.12900000E+01           0.56151806E+00
   0.13000000E+01           0.55104479E+00
   0.13100000E+01           0.54182656E+00
   0.13200000E+01           0.53285885E+00
   0.13300000E+01           0.52214253E+00
   0.13400000E+01           0.51286354E+00
   0.13500000E+01           0.50254566E+00
   0.13600000E+01           0.49275035E+00
   0.13700000E+01           0.48361111E+00
   0.13800000E+01           0.47379878E+00
   0.13900000E+01           0.46454219E+00
   0.14000000E+01           0.45525851E+00
   0.14100000E+01           0.44521042E+00
   0.14200000E+01           0.43631302E+00
   0.14300000E+01           0.42712639E+00
   0.14400000E+01           0.41812118E+00
   0.14500000E+01           0.40942639E+00
   0.14600000E+01           0.40006667E+00
   0.14700000E+01           0.39107500E+00
   0.14800000E+01           0.38201163E+00
   0.14900000E+01           0.37418247E+00
   0.15000000E+01           0.36469306E+00
   0.15100000E+01           0.35645469E+00
   0.15200000E+01           0.34848802E+00
   0.15300000E+01           0.34024635E+00
   0.15400000E+01           0.33226545E+00
   0.15500000E+01           0.32426684E+00
   0.15600000E+01           0.31667066E+00
   0.15700000E+01           0.30843316E+00
   0.15800000E+01           0.30095052E+00
   0.15900000E+01           0.29339913E+00
   0.16000000E+01           0.28570365E+00
   0.16100000E+01           0.27838368E+00
   0.16200000E+01           0.27104444E+00
   0.16300000E+01           0.26415226E+00
   0.16400000E+01           0.25639566E+00
   0.16500000E+01           0.25000469E+00
   0.16600000E+01           0.24365608E+00
   0.16700000E+01           0.23642118E+00
   0.16800000E+01           0.23016372E+00
   0.16900000E+01           0.22368559E+00
   0.17000000E+01           0.21758142E+00
   0.17100000E+01           0.21153958E+00
   0.17200000E+01           0.20556684E+00
   0.17300000E+01           0.19941684E+00
   0.17400000E+01           0.19388177E+00
   0.17500000E+01           0.18822674E+00
   0.17600000E+01           0.18231823E+00
   0.17700000E+01           0.17724462E+00
   0.17800000E+01           0.17251875E+00
   0.17900000E+01           0.16693559E+00
   0.18000000E+01           0.16185694E+00
   0.18100000E+01           0.15684601E+00
   0.18200000E+01           0.15182101E+00
   0.18300000E+01           0.14733542E+00
   0.18400000E+01           0.14270816E+00
   0.18500000E+01           0.13801701E+00
   0.18600000E+01           0.13396719E+00
   0.18700000E+01           0.12955729E+00
   0.18800000E+01           0.12552257E+00
   0.18900000E+01           0.12112899E+00
   0.19000000E+01           0.11734427E+00
   0.19100000E+01           0.11328767E+00
   0.19200000E+01           0.10968420E+00
   0.19300000E+01           0.10590521E+00
   0.19400000E+01           0.10202726E+00
   0.19500000E+01           0.98853819E-01
   0.19600000E+01           0.95446007E-01
   0.19700000E+01           0.92119444E-01
   0.19800000E+01           0.88932986E-01
   0.19900000E+01           0.86019271E-01
   0.20000000E+01           0.82755903E-01
   0.20100000E+01           0.79892187E-01
   0.20200000E+01           0.77130035E-01
   0.20300000E+01           0.74413368E-01
   0.20400000E+01           0.71592882E-01
   0.20500000E+01           0.69003646E-01
   0.20600000E+01           0.66657639E-01
   0.20700000E+01           0.64121007E-01
   0.20800000E+01           0.61671354E-01
   0.20900000E+01           0.59182639E-01
   0.21000000E+01           0.57251736E-01
   0.21100000E+01           0.54957639E-01
   0.21200000E+01           0.52880903E-01
   0.21300000E+01           0.50720660E-01
   0.21400000E+01           0.49035590E-01
   0.21500000E+01           0.46990104E-01
   0.21600000E+01           0.45181250E-01
   0.21700000E+01           0.43461285E-01
   0.21800000E+01           0.41619618E-01
   0.21900000E+01           0.40083854E-01
   0.22000000E+01           0.38399132E-01
   0.22100000E+01           0.36902778E-01
   0.22200000E+01           0.35415451E-01
   0.22300000E+01           0.33969618E-01
   0.22400000E+01           0.32545312E-01
   0.22500000E+01           0.31111111E-01
   0.22600000E+01           0.29967014E-01
   0.22700000E+01           0.28678299E-01
   0.22800000E+01           0.27627778E-01
   0.22900000E+01           0.26393229E-01
   0.23000000E+01           0.25263889E-01
   0.23100000E+01           0.24226736E-01
   0.23200000E+01           0.23059722E-01
   0.23300000E+01           0.22279861E-01
   0.23400000E+01           0.21139410E-01
   0.23500000E+01           0.20289062E-01
   0.23600000E+01           0.19302778E-01
   0.23700000E+01           0.18619792E-01
   0.23800000E+01           0.17737326E-01
   0.23900000E+01           0.16935069E-01
   0.24000000E+01           0.16119444E-01
   0.24100000E+01           0.15374132E-01
   0.24200000E+01           0.14717708E-01
   0.24300000E+01           0.14026215E-01
   0.24400000E+01           0.13501910E-01
   0.24500000E+01           0.12772222E-01
   0.24600000E+01           0.12141840E-01
   0.24700000E+01           0.11513021E-01
   0.24800000E+01           0.11000521E-01
   0.24900000E+01           0.10571181E-01
   0.25000000E+01           0.10001736E-01
   0.25100000E+01           0.95526042E-02
   0.25200000E+01           0.90868056E-02
   0.25300000E+01           0.86463542E-02
   0.25400000E+01           0.82131944E-02
   0.25500000E+01           0.78628472E-02
   0.25600000E+01           0.73914931E-02
   0.25700000E+01           0.70784722E-02
   0.25800000E+01           0.66619792E-02
   0.25900000E+01           0.63852431E-02
   0.26000000E+01           0.61130208E-02
   0.26100000E+01           0.57248264E-02
   0.26200000E+01           0.54795139E-02
   0.26300000E+01           0.51663194E-02
   0.26400000E+01           0.49364583E-02
   0.26500000E+01           0.46333333E-02
   0.26600000E+01           0.44265625E-02
   0.26700000E+01           0.41732639E-02
   0.26800000E+01           0.39727431E-02
   0.26900000E+01           0.37741319E-02
   0.27000000E+01           0.35036458E-02
   0.27100000E+01           0.33527778E-02
   0.27200000E+01           0.31911458E-02
   0.27300000E+01           0.30017361E-02
   0.27400000E+01           0.28482639E-02
   0.27500000E+01           0.27027778E-02
   0.27600000E+01           0.25373264E-02
   0.27700000E+01           0.24619792E-02
   0.27800000E+01           0.22508681E-02
   0.27900000E+01           0.21385417E-02
   0.28000000E+01           0.20444444E-02
   0.28100000E+01           0.19024306E-02
   0.28200000E+01           0.17717014E-02
   0.28300000E+01           0.16522569E-02
   0.28400000E+01           0.15944444E-02
   0.28500000E+01           0.15442708E-02
   0.28600000E+01           0.14250000E-02
   0.28700000E+01           0.13482639E-02
   0.28800000E+01           0.12576389E-02
   0.28900000E+01           0.11828125E-02
   0.29000000E+01           0.11114583E-02
   0.29100000E+01           0.10324653E-02
   0.29200000E+01           0.98871528E-03
   0.29300000E+01           0.89565972E-03
   0.29400000E+01           0.86510417E-03
   0.29500000E+01           0.81857639E-03
   0.29600000E+01           0.75312500E-03
   0.29700000E+01           0.69496528E-03
   0.29800000E+01           0.68802083E-03
   0.29900000E+01           0.65104167E-03
   0.30000000E+01           0.59253472E-03
   0.30100000E+01           0.56163194E-03
   0.30200000E+01           0.51250000E-03
   0.30300000E+01           0.48072917E-03
   0.30400000E+01           0.46319444E-03
   0.30500000E+01           0.40763889E-03
   0.30600000E+01           0.42048611E-03
   0.30700000E+01           0.37204861E-03
   0.30800000E+01           0.33802083E-03
   0.30900000E+01           0.33020833E-03
   0.31000000E+01           0.29878472E-03
   0.31100000E+01           0.28125000E-03
   0.31200000E+01           0.25711806E-03
   0.31300000E+01           0.23697917E-03
   0.31400000E+01           0.21736111E-03
   0.31500000E+01           0.21579861E-03
   0.31600000E+01           0.19843750E-03
   0.31700000E+01           0.19184028E-03
   0.31800000E+01           0.16302083E-03
   0.31900000E+01           0.15850694E-03
   0.32000000E+01           0.14340278E-03
   0.32100000E+01           0.13211806E-03
   0.32200000E+01           0.12760417E-03
   0.32300000E+01           0.11111111E-03
   0.32400000E+01           0.10694444E-03
   0.32500000E+01           0.10381944E-03
   0.32600000E+01           0.94097222E-04
   0.32700000E+01           0.87847222E-04
   0.32800000E+01           0.79166667E-04
   0.32900000E+01           0.77256944E-04
   0.33000000E+01           0.59548611E-04
   0.33100000E+01           0.72048611E-04
   0.33200000E+01           0.57812500E-04
   0.33300000E+01           0.49826389E-04
   0.33400000E+01           0.47916667E-04
   0.33500000E+01           0.44444444E-04
   0.33600000E+01           0.37673611E-04
   0.33700000E+01           0.35069444E-04
   0.33800000E+01           0.33159722E-04
   0.33900000E+01           0.31250000E-04
   0.34000000E+01           0.28819444E-04
   0.34100000E+01           0.30729167E-04
   0.34200000E+01           0.21701389E-04
   0.34300000E+01           0.18923611E-04
   0.34400000E+01           0.18750000E-04
   0.34500000E+01           0.18229167E-04
   0.34600000E+01           0.15798611E-04
   0.34700000E+01           0.15104167E-04
   0.34800000E+01           0.13715278E-04
   0.34900000E+01           0.11805556E-04
   0.35000000E+01           0.98958333E-05
   0.35100000E+01           0.11284722E-04
   0.35200000E+01           0.11458333E-04
   0.35300000E+01           0.95486111E-05
   0.35400000E+01           0.85069444E-05
   0.35500000E+01           0.59027778E-05
   0.35600000E+01           0.64236111E-05
   0.35700000E+01           0.65972222E-05
   0.35800000E+01           0.38194444E-05
   0.35900000E+01           0.43402778E-05
   0.36000000E+01           0.41666667E-05
   0.36100000E+01           0.26041667E-05
   0.36200000E+01           0.41666667E-05
   0.36300000E+01           0.27777778E-05
   0.36400000E+01           0.13888889E-05
   0.36500000E+01           0.31250000E-05
   0.36600000E+01           0.24305556E-05
   0.36700000E+01           0.13888889E-05
   0.36800000E+01           0.17361111E-05
   0.36900000E+01           0.86805556E-06
   0.37000000E+01           0.17361111E-06
   0.37100000E+01           0.13888889E-05
   0.37200000E+01           0.34722222E-06
   0.37300000E+01           0.12152778E-05
   0.37400000E+01           0.52083333E-06
   0.37500000E+01           0.69444444E-06
   0.37600000E+01           0.00000000E+00
   0.37700000E+01           0.34722222E-06
   0.37800000E+01           0.52083333E-06
   0.37900000E+01           0.17361111E-06
   0.38000000E+01           0.00000000E+00
   0.38100000E+01           0.17361111E-06
   0.38200000E+01           0.34722222E-06
   0.38300000E+01           0.00000000E+00
   0.38400000E+01           0.00000000E+00
   0.38500000E+01           0.17361111E-06
   0.38600000E+01           0.17361111E-06
   0.38700000E+01           0.34722222E-06
   0.38800000E+01           0.00000000E+00
   0.38900000E+01           0.17361111E-06
   0.39000000E+01           0.00000000E+00
   0.39100000E+01           0.00000000E+00
   0.39200000E+01           0.17361111E-06
   0.39300000E+01           0.00000000E+00
   0.39400000E+01           0.00000000E+00
   0.39500000E+01           0.00000000E+00
   0.39600000E+01           0.00000000E+00
   0.39700000E+01           0.00000000E+00
   0.39800000E+01           0.00000000E+00
   0.39900000E+01           0.00000000E+00
   0.40000000E+01           0.00000000E+00
 #T=   352.0202
  -0.40000000E+01           0.00000000E+00
  -0.39900000E+01           0.00000000E+00
  -0.39800000E+01           0.00000000E+00
  -0.39700000E+01           0.00000000E+00
  -0.39600000E+01           0.00000000E+00
  -0.39500000E+01           0.00000000E+00
  -0.39400000E+01           0.00000000E+00
  -0.39300000E+01           0.00000000E+00
  -0.39200000E+01           0.00000000E+00
  -0.39100000E+01           0.00000000E+00
  -0.39000000E+01           0.00000000E+00
  -0.38900000E+01           0.00000000E+00
  -0.38800000E+01           0.00000000E+00
  -0.38700000E+01           0.00000000E+00
  -0.38600000E+01           0.00000000E+00
  -0.38500000E+01           0.00000000E+00
  -0.38400000E+01           0.00000000E+00
  -0.38300000E+01           0.00000000E+00
  -0.38200000E+01           0.00000000E+00
  -0.38100000E+01           0.00000000E+00
  -0.38000000E+01           0.00000000E+00
  -0.37900000E+01           0.00000000E+00
  -0.37800000E+01           0.00000000E+00
  -0.37700000E+01           0.00000000E+00
  -0.37600000E+01           0.00000000E+00
  -0.37500000E+01           0.00000000E+00
  -0.37400000E+01           0.00000000E+00
  -0.37300000E+01           0.00000000E+00
  -0.37200000E+01           0.00000000E+00
  -0.37100000E+01           0.00000000E+00
  -0.37000000E+01           0.00000000E+00
  -0.36900000E+01           0.00000000E+00
  -0.36800000E+01           0.00000000E+00
  -0.36700000E+01           0.00000000E+00
  -0.36600000E+01           0.00000000E+00
  -0.36500000E+01           0.00000000E+00
  -0.36400000E+01           0.00000000E+00
  -0.36300000E+01           0.00000000E+00
  -0.36200000E+01           0.00000000E+00
  -0.36100000E+01           0.00000000E+00
  -0.36000000E+01           0.00000000E+00
  -0.35900000E+01           0.00000000E+00
  -0.35800000E+01           0.00000000E+00
  -0.35700000E+01           0.00000000E+00
  -0.35600000E+01           0.00000000E+00
  -0.35500000E+01           0.00000000E+00
  -0.35400000E+01           0.00000000E+00
  -0.35300000E+01           0.00000000E+00
  -0.35200000E+01           0.00000000E+00
  -0.35100000E+01           0.00000000E+00
  -0.35000000E+01           0.00000000E+00
  -0.34900000E+01           0.00000000E+00
  -0.34800000E+01           0.00000000E+00
  -0.34700000E+01           0.00000000E+00
  -0.34600000E+01           0.00000000E+00
  -0.34500000E+01           0.00000000E+00
  -0.34400000E+01           0.00000000E+00
  -0.34300000E+01           0.00000000E+00
  -0.34200000E+01           0.00000000E+00
  -0.34100000E+01           0.00000000E+00
  -0.34000000E+01           0.00000000E+00
  -0.33900000E+01           0.00000000E+00
  -0.33800000E+01           0.00000000E+00
  -0.33700000E+01           0.00000000E+00
  -0.33600000E+01           0.00000000E+00
  -0.33500000E+01           0.00000000E+00
  -0.33400000E+01           0.00000000E+00
  -0.33300000E+01           0.00000000E+00
  -0.33200000E+01           0.00000000E+00
  -0.33100000E+01           0.00000000E+00
  -0.33000000E+01           0.00000000E+00
  -0.32900000E+01           0.00000000E+00
  -0.32800000E+01           0.00000000E+00
  -0.32700000E+01           0.00000000E+00
  -0.32600000E+01           0.00000000E+00
  -0.32500000E+01           0.00000000E+00
  -0.32400000E+01           0.00000000E+00
  -0.32300000E+01           0.00000000E+00
  -0.32200000E+01           0.00000000E+00
  -0.32100000E+01           0.00000000E+00
  -0.32000000E+01           0.00000000E+00
  -0.31900000E+01           0.00000000E+00
  -0.31800000E+01           0.00000000E+00
  -0.31700000E+01           0.00000000E+00
  -0.31600000E+01           0.00000000E+00
  -0.31500000E+01           0.00000000E+00
  -0.31400000E+01           0.00000000E+00
  -0.31300000E+01           0.00000000E+00
  -0.31200000E+01           0.00000000E+00
  -0.31100000E+01           0.00000000E+00
  -0.31000000E+01           0.00000000E+00
  -0.30900000E+01           0.00000000E+00
  -0.30800000E+01           0.00000000E+00
  -0.30700000E+01           0.00000000E+00
  -0.30600000E+01           0.00000000E+00
  -0.30500000E+01           0.00000000E+00
  -0.30400000E+01           0.00000000E+00
  -0.30300000E+01           0.00000000E+00
  -0.30200000E+01           0.00000000E+00
  -0.30100000E+01           0.00000000E+00
  -0.30000000E+01           0.00000000E+00
  -0.29900000E+01           0.00000000E+00
  -0.29800000E+01           0.00000000E+00
  -0.29700000E+01           0.00000000E+00
  -0.29600000E+01           0.00000000E+00
  -0.29500000E+01           0.00000000E+00
  -0.29400000E+01           0.00000000E+00
  -0.29300000E+01           0.00000000E+00
  -0.29200000E+01           0.00000000E+00
  -0.29100000E+01           0.00000000E+00
  -0.29000000E+01           0.00000000E+00
  -0.28900000E+01           0.00000000E+00
  -0.28800000E+01           0.00000000E+00
  -0.28700000E+01           0.00000000E+00
  -0.28600000E+01           0.00000000E+00
  -0.28500000E+01           0.00000000E+00
  -0.28400000E+01           0.00000000E+00
  -0.28300000E+01           0.00000000E+00
  -0.28200000E+01           0.00000000E+00
  -0.28100000E+01           0.00000000E+00
  -0.28000000E+01           0.00000000E+00
  -0.27900000E+01           0.00000000E+00
  -0.27800000E+01           0.00000000E+00
  -0.27700000E+01           0.00000000E+00
  -0.27600000E+01           0.00000000E+00
  -0.27500000E+01           0.00000000E+00
  -0.27400000E+01           0.00000000E+00
  -0.27300000E+01           0.00000000E+00
  -0.27200000E+01           0.00000000E+00
  -0.27100000E+01           0.00000000E+00
  -0.27000000E+01           0.00000000E+00
  -0.26900000E+01           0.00000000E+00
  -0.26800000E+01           0.00000000E+00
  -0.26700000E+01           0.00000000E+00
  -0.26600000E+01           0.00000000E+00
  -0.26500000E+01           0.00000000E+00
  -0.26400000E+01           0.00000000E+00
  -0.26300000E+01           0.00000000E+00
  -0.26200000E+01           0.00000000E+00
  -0.26100000E+01           0.00000000E+00
  -0.26000000E+01           0.00000000E+00
  -0.25900000E+01           0.00000000E+00
  -0.25800000E+01           0.00000000E+00
  -0.25700000E+01           0.00000000E+00
  -0.25600000E+01           0.00000000E+00
  -0.25500000E+01           0.00000000E+00
  -0.25400000E+01           0.00000000E+00
  -0.25300000E+01           0.00000000E+00
  -0.25200000E+01           0.00000000E+00
  -0.25100000E+01           0.00000000E+00
  -0.25000000E+01           0.00000000E+00
  -0.24900000E+01           0.00000000E+00
  -0.24800000E+01           0.00000000E+00
  -0.24700000E+01           0.00000000E+00
  -0.24600000E+01           0.00000000E+00
  -0.24500000E+01           0.00000000E+00
  -0.24400000E+01           0.00000000E+00
  -0.24300000E+01           0.00000000E+00
  -0.24200000E+01           0.00000000E+00
  -0.24100000E+01           0.00000000E+00
  -0.24000000E+01           0.00000000E+00
  -0.23900000E+01           0.00000000E+00
  -0.23800000E+01           0.00000000E+00
  -0.23700000E+01           0.00000000E+00
  -0.23600000E+01           0.00000000E+00
  -0.23500000E+01           0.00000000E+00
  -0.23400000E+01           0.00000000E+00
  -0.23300000E+01           0.00000000E+00
  -0.23200000E+01           0.00000000E+00
  -0.23100000E+01           0.00000000E+00
  -0.23000000E+01           0.00000000E+00
  -0.22900000E+01           0.00000000E+00
  -0.22800000E+01           0.00000000E+00
  -0.22700000E+01           0.00000000E+00
  -0.22600000E+01           0.00000000E+00
  -0.22500000E+01           0.00000000E+00
  -0.22400000E+01           0.00000000E+00
  -0.22300000E+01           0.00000000E+00
  -0.22200000E+01           0.00000000E+00
  -0.22100000E+01           0.00000000E+00
  -0.22000000E+01           0.00000000E+00
  -0.21900000E+01           0.00000000E+00
  -0.21800000E+01           0.00000000E+00
  -0.21700000E+01           0.00000000E+00
  -0.21600000E+01           0.00000000E+00
  -0.21500000E+01           0.00000000E+00
  -0.21400000E+01           0.00000000E+00
  -0.21300000E+01           0.00000000E+00
  -0.21200000E+01           0.00000000E+00
  -0.21100000E+01           0.00000000E+00
  -0.21000000E+01           0.00000000E+00
  -0.20900000E+01           0.00000000E+00
  -0.20800000E+01           0.00000000E+00
  -0.20700000E+01           0.00000000E+00
  -0.20600000E+01           0.00000000E+00
  -0.20500000E+01           0.00000000E+00
  -0.20400000E+01           0.00000000E+00
  -0.20300000E+01           0.00000000E+00
  -0.20200000E+01           0.00000000E+00
  -0.20100000E+01           0.00000000E+00
  -0.20000000E+01           0.00000000E+00
  -0.19900000E+01           0.00000000E+00
  -0.19800000E+01           0.00000000E+00
  -0.19700000E+01           0.00000000E+00
  -0.19600000E+01           0.00000000E+00
  -0.19500000E+01           0.00000000E+00
  -0.19400000E+01           0.00000000E+00
  -0.19300000E+01           0.00000000E+00
  -0.19200000E+01           0.00000000E+00
  -0.19100000E+01           0.00000000E+00
  -0.19000000E+01           0.00000000E+00
  -0.18900000E+01           0.00000000E+00
  -0.18800000E+01           0.00000000E+00
  -0.18700000E+01           0.00000000E+00
  -0.18600000E+01           0.00000000E+00
  -0.18500000E+01           0.00000000E+00
  -0.18400000E+01           0.00000000E+00
  -0.18300000E+01           0.00000000E+00
  -0.18200000E+01           0.00000000E+00
  -0.18100000E+01           0.00000000E+00
  -0.18000000E+01           0.00000000E+00
  -0.17900000E+01           0.00000000E+00
  -0.17800000E+01           0.00000000E+00
  -0.17700000E+01           0.00000000E+00
  -0.17600000E+01           0.00000000E+00
  -0.17500000E+01           0.00000000E+00
  -0.17400000E+01           0.00000000E+00
  -0.17300000E+01           0.00000000E+00
  -0.17200000E+01           0.00000000E+00
  -0.17100000E+01           0.00000000E+00
  -0.17000000E+01           0.00000000E+00
  -0.16900000E+01           0.00000000E+00
  -0.16800000E+01           0.00000000E+00
  -0.16700000E+01           0.00000000E+00
  -0.16600000E+01           0.00000000E+00
  -0.16500000E+01           0.00000000E+00
  -0.16400000E+01           0.00000000E+00
  -0.16300000E+01           0.00000000E+00
  -0.16200000E+01           0.00000000E+00
  -0.16100000E+01           0.00000000E+00
  -0.16000000E+01           0.00000000E+00
  -0.15900000E+01           0.00000000E+00
  -0.15800000E+01           0.00000000E+00
  -0.15700000E+01           0.00000000E+00
  -0.15600000E+01           0.00000000E+00
  -0.15500000E+01           0.00000000E+00
  -0.15400000E+01           0.00000000E+00
  -0.15300000E+01           0.00000000E+00
  -0.15200000E+01           0.00000000E+00
  -0.15100000E+01           0.00000000E+00
  -0.15000000E+01           0.00000000E+00
  -0.14900000E+01           0.00000000E+00
  -0.14800000E+01           0.00000000E+00
  -0.14700000E+01           0.00000000E+00
  -0.14600000E+01           0.00000000E+00
  -0.14500000E+01           0.00000000E+00
  -0.14400000E+01           0.00000000E+00
  -0.14300000E+01           0.00000000E+00
  -0.14200000E+01           0.00000000E+00
  -0.14100000E+01           0.00000000E+00
  -0.14000000E+01           0.00000000E+00
  -0.13900000E+01           0.00000000E+00
  -0.13800000E+01           0.00000000E+00
  -0.13700000E+01           0.00000000E+00
  -0.13600000E+01           0.00000000E+00
  -0.13500000E+01           0.00000000E+00
  -0.13400000E+01           0.00000000E+00
  -0.13300000E+01           0.00000000E+00
  -0.13200000E+01           0.00000000E+00
  -0.13100000E+01           0.00000000E+00
  -0.13000000E+01           0.00000000E+00
  -0.12900000E+01           0.00000000E+00
  -0.12800000E+01           0.00000000E+00
  -0.12700000E+01           0.00000000E+00
  -0.12600000E+01           0.00000000E+00
  -0.12500000E+01           0.00000000E+00
  -0.12400000E+01           0.00000000E+00
  -0.12300000E+01           0.00000000E+00
  -0.12200000E+01           0.00000000E+00
  -0.12100000E+01           0.00000000E+00
  -0.12000000E+01           0.00000000E+00
  -0.11900000E+01           0.00000000E+00
  -0.11800000E+01           0.00000000E+00
  -0.11700000E+01           0.00000000E+00
  -0.11600000E+01           0.00000000E+00
  -0.11500000E+01           0.00000000E+00
  -0.11400000E+01           0.00000000E+00
  -0.11300000E+01           0.00000000E+00
  -0.11200000E+01           0.00000000E+00
  -0.11100000E+01           0.00000000E+00
  -0.11000000E+01           0.00000000E+00
  -0.10900000E+01           0.00000000E+00
  -0.10800000E+01           0.00000000E+00
  -0.10700000E+01           0.00000000E+00
  -0.10600000E+01           0.00000000E+00
  -0.10500000E+01           0.00000000E+00
  -0.10400000E+01           0.00000000E+00
  -0.10300000E+01           0.00000000E+00
  -0.10200000E+01           0.00000000E+00
  -0.10100000E+01           0.00000000E+00
  -0.10000000E+01           0.00000000E+00
  -0.99000000E+00           0.00000000E+00
  -0.98000000E+00           0.00000000E+00
  -0.97000000E+00           0.00000000E+00
  -0.96000000E+00           0.00000000E+00
  -0.95000000E+00           0.00000000E+00
  -0.94000000E+00           0.00000000E+00
  -0.93000000E+00           0.00000000E+00
  -0.92000000E+00           0.00000000E+00
  -0.91000000E+00           0.00000000E+00
  -0.90000000E+00           0.00000000E+00
  -0.89000000E+00           0.00000000E+00
  -0.88000000E+00           0.00000000E+00
  -0.87000000E+00           0.00000000E+00
  -0.86000000E+00           0.00000000E+00
  -0.85000000E+00           0.00000000E+00
  -0.84000000E+00           0.00000000E+00
  -0.83000000E+00           0.00000000E+00
  -0.82000000E+00           0.00000000E+00
  -0.81000000E+00           0.00000000E+00
  -0.80000000E+00           0.00000000E+00
  -0.79000000E+00           0.00000000E+00
  -0.78000000E+00           0.00000000E+00
  -0.77000000E+00           0.00000000E+00
  -0.76000000E+00           0.00000000E+00
  -0.75000000E+00           0.00000000E+00
  -0.74000000E+00           0.00000000E+00
  -0.73000000E+00           0.00000000E+00
  -0.72000000E+00           0.00000000E+00
  -0.71000000E+00           0.00000000E+00
  -0.70000000E+00           0.00000000E+00
  -0.69000000E+00           0.00000000E+00
  -0.68000000E+00           0.00000000E+00
  -0.67000000E+00           0.00000000E+00
  -0.66000000E+00           0.00000000E+00
  -0.65000000E+00           0.00000000E+00
  -0.64000000E+00           0.00000000E+00
  -0.63000000E+00           0.00000000E+00
  -0.62000000E+00           0.00000000E+00
  -0.61000000E+00           0.00000000E+00
  -0.60000000E+00           0.00000000E+00
  -0.59000000E+00           0.00000000E+00
  -0.58000000E+00           0.00000000E+00
  -0.57000000E+00           0.00000000E+00
  -0.56000000E+00           0.00000000E+00
  -0.55000000E+00           0.00000000E+00
  -0.54000000E+00           0.00000000E+00
  -0.53000000E+00           0.00000000E+00
  -0.52000000E+00           0.00000000E+00
  -0.51000000E+00           0.00000000E+00
  -0.50000000E+00           0.00000000E+00
  -0.49000000E+00           0.00000000E+00
  -0.48000000E+00           0.00000000E+00
  -0.47000000E+00           0.00000000E+00
  -0.46000000E+00           0.00000000E+00
  -0.45000000E+00           0.00000000E+00
  -0.44000000E+00           0.00000000E+00
  -0.43000000E+00           0.00000000E+00
  -0.42000000E+00           0.00000000E+00
  -0.41000000E+00           0.00000000E+00
  -0.40000000E+00           0.00000000E+00
  -0.39000000E+00           0.00000000E+00
  -0.38000000E+00           0.00000000E+00
  -0.37000000E+00           0.00000000E+00
  -0.36000000E+00           0.00000000E+00
  -0.35000000E+00           0.00000000E+00
  -0.34000000E+00           0.00000000E+00
  -0.33000000E+00           0.00000000E+00
  -0.32000000E+00           0.00000000E+00
  -0.31000000E+00           0.00000000E+00
  -0.30000000E+00           0.00000000E+00
  -0.29000000E+00           0.00000000E+00
  -0.28000000E+00           0.00000000E+00
  -0.27000000E+00           0.00000000E+00
  -0.26000000E+00           0.00000000E+00
  -0.25000000E+00           0.00000000E+00
  -0.24000000E+00           0.00000000E+00
  -0.23000000E+00           0.00000000E+00
  -0.22000000E+00           0.00000000E+00
  -0.21000000E+00           0.00000000E+00
  -0.20000000E+00           0.00000000E+00
  -0.19000000E+00           0.00000000E+00
  -0.18000000E+00           0.00000000E+00
  -0.17000000E+00           0.00000000E+00
  -0.16000000E+00           0.00000000E+00
  -0.15000000E+00           0.00000000E+00
  -0.14000000E+00           0.00000000E+00
  -0.13000000E+00           0.00000000E+00
  -0.12000000E+00           0.00000000E+00
  -0.11000000E+00           0.00000000E+00
  -0.10000000E+00           0.00000000E+00
  -0.90000000E-01           0.00000000E+00
  -0.80000000E-01           0.00000000E+00
  -0.70000000E-01           0.00000000E+00
  -0.60000000E-01           0.00000000E+00
  -0.50000000E-01           0.00000000E+00
  -0.40000000E-01           0.00000000E+00
  -0.30000000E-01           0.00000000E+00
  -0.20000000E-01           0.00000000E+00
  -0.10000000E-01           0.00000000E+00
   0.00000000E+00           0.27256944E-04
   0.10000000E-01           0.77326389E-03
   0.20000000E-01           0.28288194E-02
   0.30000000E-01           0.61241319E-02
   0.40000000E-01           0.10763715E-01
   0.50000000E-01           0.16339062E-01
   0.60000000E-01           0.23161806E-01
   0.70000000E-01           0.30844271E-01
   0.80000000E-01           0.39609375E-01
   0.90000000E-01           0.49611111E-01
   0.10000000E+00           0.59850174E-01
   0.11000000E+00           0.71289757E-01
   0.12000000E+00           0.83244618E-01
   0.13000000E+00           0.96223785E-01
   0.14000000E+00           0.10972795E+00
   0.15000000E+00           0.12354774E+00
   0.16000000E+00           0.13823194E+00
   0.17000000E+00           0.15304132E+00
   0.18000000E+00           0.16921875E+00
   0.19000000E+00           0.18487604E+00
   0.20000000E+00           0.20124253E+00
   0.21000000E+00           0.21829479E+00
   0.22000000E+00           0.23455816E+00
   0.23000000E+00           0.25201840E+00
   0.24000000E+00           0.26955851E+00
   0.25000000E+00           0.28729497E+00
   0.26000000E+00           0.30523142E+00
   0.27000000E+00           0.32304722E+00
   0.28000000E+00           0.34063854E+00
   0.29000000E+00           0.35801476E+00
   0.30000000E+00           0.37717187E+00
   0.31000000E+00           0.39507066E+00
   0.32000000E+00           0.41239358E+00
   0.33000000E+00           0.43006181E+00
   0.34000000E+00           0.44854514E+00
   0.35000000E+00           0.46595920E+00
   0.36000000E+00           0.48418229E+00
   0.37000000E+00           0.50126493E+00
   0.38000000E+00           0.51802726E+00
   0.39000000E+00           0.53482274E+00
   0.40000000E+00           0.55233733E+00
   0.41000000E+00           0.56791059E+00
   0.42000000E+00           0.58475260E+00
   0.43000000E+00           0.60072743E+00
   0.44000000E+00           0.61530347E+00
   0.45000000E+00           0.63088333E+00
   0.46000000E+00           0.64605903E+00
   0.47000000E+00           0.66012344E+00
   0.48000000E+00           0.67413316E+00
   0.49000000E+00           0.68870312E+00
   0.50000000E+00           0.70105764E+00
   0.51000000E+00           0.71498455E+00
   0.52000000E+00           0.72712934E+00
   0.53000000E+00           0.73941059E+00
   0.54000000E+00           0.75133906E+00
   0.55000000E+00           0.76292257E+00
   0.56000000E+00           0.77409705E+00
   0.57000000E+00           0.78427274E+00
   0.58000000E+00           0.79378646E+00
   0.59000000E+00           0.80374722E+00
   0.60000000E+00           0.81308299E+00
   0.61000000E+00           0.82130104E+00
   0.62000000E+00           0.83014774E+00
   0.63000000E+00           0.83761094E+00
   0.64000000E+00           0.84445035E+00
   0.65000000E+00           0.85070712E+00
   0.66000000E+00           0.85727396E+00
   0.67000000E+00           0.86330694E+00
   0.68000000E+00           0.86867049E+00
   0.69000000E+00           0.87466181E+00
   0.70000000E+00           0.87883316E+00
   0.71000000E+00           0.88217535E+00
   0.72000000E+00           0.88612899E+00
   0.73000000E+00           0.88852969E+00
   0.74000000E+00           0.89093108E+00
   0.75000000E+00           0.89350816E+00
   0.76000000E+00           0.89619323E+00
   0.77000000E+00           0.89692917E+00
   0.78000000E+00           0.89670451E+00
   0.79000000E+00           0.89736250E+00
   0.80000000E+00           0.89887361E+00
   0.81000000E+00           0.89723142E+00
   0.82000000E+00           0.89647083E+00
   0.83000000E+00           0.89611892E+00
   0.84000000E+00           0.89429427E+00
   0.85000000E+00           0.89159844E+00
   0.86000000E+00           0.88929792E+00
   0.87000000E+00           0.88626372E+00
   0.88000000E+00           0.88374583E+00
   0.89000000E+00           0.88044635E+00
   0.90000000E+00           0.87690903E+00
   0.91000000E+00           0.87248924E+00
   0.92000000E+00           0.86874531E+00
   0.93000000E+00           0.86305868E+00
   0.94000000E+00           0.85832604E+00
   0.95000000E+00           0.85327726E+00
   0.96000000E+00           0.84643594E+00
   0.97000000E+00           0.84169479E+00
   0.98000000E+00           0.83561823E+00
   0.99000000E+00           0.82927187E+00
   0.10000000E+01           0.82202830E+00
   0.10100000E+01           0.81583976E+00
   0.10200000E+01           0.80819167E+00
   0.10300000E+01           0.80054757E+00
   0.10400000E+01           0.79370035E+00
   0.10500000E+01           0.78586875E+00
   0.10600000E+01           0.77801597E+00
   0.10700000E+01           0.76997344E+00
   0.10800000E+01           0.76096441E+00
   0.10900000E+01           0.75289045E+00
   0.11000000E+01           0.74444913E+00
   0.11100000E+01           0.73616111E+00
   0.11200000E+01           0.72664462E+00
   0.11300000E+01           0.71775295E+00
   0.11400000E+01           0.70877170E+00
   0.11500000E+01           0.70026372E+00
   0.11600000E+01           0.69026788E+00
   0.11700000E+01           0.68111510E+00
   0.11800000E+01           0.67042465E+00
   0.11900000E+01           0.66197118E+00
   0.12000000E+01           0.65212951E+00
   0.12100000E+01           0.64266198E+00
   0.12200000E+01           0.63298177E+00
   0.12300000E+01           0.62349497E+00
   0.12400000E+01           0.61335174E+00
   0.12500000E+01           0.60365434E+00
   0.12600000E+01           0.59384757E+00
   0.12700000E+01           0.58352847E+00
   0.12800000E+01           0.57409583E+00
   0.12900000E+01           0.56425868E+00
   0.13000000E+01           0.55440399E+00
   0.13100000E+01           0.54482049E+00
   0.13200000E+01           0.53521076E+00
   0.13300000E+01           0.52496858E+00
   0.13400000E+01           0.51576788E+00
   0.13500000E+01           0.50520990E+00
   0.13600000E+01           0.49630920E+00
   0.13700000E+01           0.48644774E+00
   0.13800000E+01           0.47663090E+00
   0.13900000E+01           0.46773576E+00
   0.14000000E+01           0.45835052E+00
   0.14100000E+01           0.44853281E+00
   0.14200000E+01           0.43978819E+00
   0.14300000E+01           0.42985972E+00
   0.14400000E+01           0.42093733E+00
   0.14500000E+01           0.41176528E+00
   0.14600000E+01           0.40380330E+00
   0.14700000E+01           0.39413750E+00
   0.14800000E+01           0.38586719E+00
   0.14900000E+01           0.37661441E+00
   0.15000000E+01           0.36824844E+00
   0.15100000E+01           0.36003750E+00
   0.15200000E+01           0.35219323E+00
   0.15300000E+01           0.34355469E+00
   0.15400000E+01           0.33554462E+00
   0.15500000E+01           0.32738837E+00
   0.15600000E+01           0.31947778E+00
   0.15700000E+01           0.31141788E+00
   0.15800000E+01           0.30355642E+00
   0.15900000E+01           0.29633524E+00
   0.16000000E+01           0.28865851E+00
   0.16100000E+01           0.28150243E+00
   0.16200000E+01           0.27395017E+00
   0.16300000E+01           0.26671389E+00
   0.16400000E+01           0.25990885E+00
   0.16500000E+01           0.25286927E+00
   0.16600000E+01           0.24614410E+00
   0.16700000E+01           0.23938819E+00
   0.16800000E+01           0.23302153E+00
   0.16900000E+01           0.22649705E+00
   0.17000000E+01           0.22028646E+00
   0.17100000E+01           0.21422344E+00
   0.17200000E+01           0.20821736E+00
   0.17300000E+01           0.20236979E+00
   0.17400000E+01           0.19666198E+00
   0.17500000E+01           0.19072708E+00
   0.17600000E+01           0.18544687E+00
   0.17700000E+01           0.17980226E+00
   0.17800000E+01           0.17434514E+00
   0.17900000E+01           0.16948906E+00
   0.18000000E+01           0.16453160E+00
   0.18100000E+01           0.15893455E+00
   0.18200000E+01           0.15421927E+00
   0.18300000E+01           0.14958142E+00
   0.18400000E+01           0.14500035E+00
   0.18500000E+01           0.14085851E+00
   0.18600000E+01           0.13614323E+00
   0.18700000E+01           0.13163177E+00
   0.18800000E+01           0.12739358E+00
   0.18900000E+01           0.12366181E+00
   0.19000000E+01           0.11951233E+00
   0.19100000E+01           0.11536076E+00
   0.19200000E+01           0.11161632E+00
   0.19300000E+01           0.10793108E+00
   0.19400000E+01           0.10465747E+00
   0.19500000E+01           0.10085885E+00
   0.19600000E+01           0.97303993E-01
   0.19700000E+01           0.94153299E-01
   0.19800000E+01           0.90712674E-01
   0.19900000E+01           0.87625521E-01
   0.20000000E+01           0.84718403E-01
   0.20100000E+01           0.81923958E-01
   0.20200000E+01           0.78717535E-01
   0.20300000E+01           0.75660937E-01
   0.20400000E+01           0.72867014E-01
   0.20500000E+01           0.70345833E-01
   0.20600000E+01           0.67965451E-01
   0.20700000E+01           0.65543924E-01
   0.20800000E+01           0.63053819E-01
   0.20900000E+01           0.60800868E-01
   0.21000000E+01           0.58381424E-01
   0.21100000E+01           0.56256944E-01
   0.21200000E+01           0.54182812E-01
   0.21300000E+01           0.52236111E-01
   0.21400000E+01           0.50015799E-01
   0.21500000E+01           0.48190451E-01
   0.21600000E+01           0.46356597E-01
   0.21700000E+01           0.44354167E-01
   0.21800000E+01           0.42790799E-01
   0.21900000E+01           0.41148090E-01
   0.22000000E+01           0.39562847E-01
   0.22100000E+01           0.37893403E-01
   0.22200000E+01           0.36394271E-01
   0.22300000E+01           0.34855035E-01
   0.22400000E+01           0.33517361E-01
   0.22500000E+01           0.32118576E-01
   0.22600000E+01           0.30769965E-01
   0.22700000E+01           0.29509896E-01
   0.22800000E+01           0.28249306E-01
   0.22900000E+01           0.27035764E-01
   0.23000000E+01           0.25968229E-01
   0.23100000E+01           0.24868924E-01
   0.23200000E+01           0.23783681E-01
   0.23300000E+01           0.22739236E-01
   0.23400000E+01           0.21738542E-01
   0.23500000E+01           0.20711458E-01
   0.23600000E+01           0.19942882E-01
   0.23700000E+01           0.19115625E-01
   0.23800000E+01           0.18200694E-01
   0.23900000E+01           0.17420312E-01
   0.24000000E+01           0.16589236E-01
   0.24100000E+01           0.15874479E-01
   0.24200000E+01           0.15140451E-01
   0.24300000E+01           0.14507986E-01
   0.24400000E+01           0.13753646E-01
   0.24500000E+01           0.13251562E-01
   0.24600000E+01           0.12593576E-01
   0.24700000E+01           0.11956771E-01
   0.24800000E+01           0.11452083E-01
   0.24900000E+01           0.10822049E-01
   0.25000000E+01           0.10435937E-01
   0.25100000E+01           0.99248264E-02
   0.25200000E+01           0.94737847E-02
   0.25300000E+01           0.90314236E-02
   0.25400000E+01           0.85843750E-02
   0.25500000E+01           0.80598958E-02
   0.25600000E+01           0.77309028E-02
   0.25700000E+01           0.73072917E-02
   0.25800000E+01           0.69418403E-02
   0.25900000E+01           0.66147569E-02
   0.26000000E+01           0.63338542E-02
   0.26100000E+01           0.59552083E-02
   0.26200000E+01           0.57199653E-02
   0.26300000E+01           0.54284722E-02
   0.26400000E+01           0.51125000E-02
   0.26500000E+01           0.48630208E-02
   0.26600000E+01           0.46185764E-02
   0.26700000E+01           0.44048611E-02
   0.26800000E+01           0.40706597E-02
   0.26900000E+01           0.39097222E-02
   0.27000000E+01           0.36901042E-02
   0.27100000E+01           0.35475694E-02
   0.27200000E+01           0.33197917E-02
   0.27300000E+01           0.31493056E-02
   0.27400000E+01           0.29776042E-02
   0.27500000E+01           0.28769097E-02
   0.27600000E+01           0.26559028E-02
   0.27700000E+01           0.25244792E-02
   0.27800000E+01           0.23760417E-02
   0.27900000E+01           0.22343750E-02
   0.28000000E+01           0.21309028E-02
   0.28100000E+01           0.20130208E-02
   0.28200000E+01           0.18928819E-02
   0.28300000E+01           0.18067708E-02
   0.28400000E+01           0.16873264E-02
   0.28500000E+01           0.15866319E-02
   0.28600000E+01           0.14720486E-02
   0.28700000E+01           0.13923611E-02
   0.28800000E+01           0.13387153E-02
   0.28900000E+01           0.12347222E-02
   0.29000000E+01           0.11741319E-02
   0.29100000E+01           0.11024306E-02
   0.29200000E+01           0.10210069E-02
   0.29300000E+01           0.98454861E-03
   0.29400000E+01           0.91753472E-03
   0.29500000E+01           0.84635417E-03
   0.29600000E+01           0.81753472E-03
   0.29700000E+01           0.74513889E-03
   0.29800000E+01           0.68576389E-03
   0.29900000E+01           0.65069444E-03
   0.30000000E+01           0.62934028E-03
   0.30100000E+01           0.59496528E-03
   0.30200000E+01           0.54913194E-03
   0.30300000E+01           0.51597222E-03
   0.30400000E+01           0.48003472E-03
   0.30500000E+01           0.44270833E-03
   0.30600000E+01           0.42170139E-03
   0.30700000E+01           0.38298611E-03
   0.30800000E+01           0.36788194E-03
   0.30900000E+01           0.32552083E-03
   0.31000000E+01           0.32048611E-03
   0.31100000E+01           0.28819444E-03
   0.31200000E+01           0.28194444E-03
   0.31300000E+01           0.24878472E-03
   0.31400000E+01           0.24079861E-03
   0.31500000E+01           0.21614583E-03
   0.31600000E+01           0.22378472E-03
   0.31700000E+01           0.18732639E-03
   0.31800000E+01           0.17604167E-03
   0.31900000E+01           0.16944444E-03
   0.32000000E+01           0.14652778E-03
   0.32100000E+01           0.14965278E-03
   0.32200000E+01           0.12951389E-03
   0.32300000E+01           0.11545139E-03
   0.32400000E+01           0.11128472E-03
   0.32500000E+01           0.11163194E-03
   0.32600000E+01           0.95659722E-04
   0.32700000E+01           0.88715278E-04
   0.32800000E+01           0.89583333E-04
   0.32900000E+01           0.76909722E-04
   0.33000000E+01           0.71875000E-04
   0.33100000E+01           0.63194444E-04
   0.33200000E+01           0.55902778E-04
   0.33300000E+01           0.61805556E-04
   0.33400000E+01           0.47569444E-04
   0.33500000E+01           0.49305556E-04
   0.33600000E+01           0.42013889E-04
   0.33700000E+01           0.40451389E-04
   0.33800000E+01           0.40104167E-04
   0.33900000E+01           0.33159722E-04
   0.34000000E+01           0.30034722E-04
   0.34100000E+01           0.24305556E-04
   0.34200000E+01           0.26736111E-04
   0.34300000E+01           0.23958333E-04
   0.34400000E+01           0.20138889E-04
   0.34500000E+01           0.20486111E-04
   0.34600000E+01           0.15798611E-04
   0.34700000E+01           0.18229167E-04
   0.34800000E+01           0.14062500E-04
   0.34900000E+01           0.13194444E-04
   0.35000000E+01           0.14236111E-04
   0.35100000E+01           0.10069444E-04
   0.35200000E+01           0.90277778E-05
   0.35300000E+01           0.10243056E-04
   0.35400000E+01           0.10590278E-04
   0.35500000E+01           0.67708333E-05
   0.35600000E+01           0.57291667E-05
   0.35700000E+01           0.43402778E-05
   0.35800000E+01           0.65972222E-05
   0.35900000E+01           0.32986111E-05
   0.36000000E+01           0.50347222E-05
   0.36100000E+01           0.27777778E-05
   0.36200000E+01           0.34722222E-05
   0.36300000E+01           0.31250000E-05
   0.36400000E+01           0.39930556E-05
   0.36500000E+01           0.34722222E-05
   0.36600000E+01           0.24305556E-05
   0.36700000E+01           0.15625000E-05
   0.36800000E+01           0.19097222E-05
   0.36900000E+01           0.19097222E-05
   0.37000000E+01           0.15625000E-05
   0.37100000E+01           0.19097222E-05
   0.37200000E+01           0.12152778E-05
   0.37300000E+01           0.52083333E-06
   0.37400000E+01           0.69444444E-06
   0.37500000E+01           0.34722222E-06
   0.37600000E+01           0.34722222E-06
   0.37700000E+01           0.86805556E-06
   0.37800000E+01           0.17361111E-06
   0.37900000E+01           0.17361111E-06
   0.38000000E+01           0.00000000E+00
   0.38100000E+01           0.17361111E-06
   0.38200000E+01           0.00000000E+00
   0.38300000E+01           0.34722222E-06
   0.38400000E+01           0.17361111E-06
   0.38500000E+01           0.34722222E-06
   0.38600000E+01           0.00000000E+00
   0.38700000E+01           0.34722222E-06
   0.38800000E+01           0.00000000E+00
   0.38900000E+01           0.00000000E+00
   0.39000000E+01           0.00000000E+00
   0.39100000E+01           0.00000000E+00
   0.39200000E+01           0.17361111E-06
   0.39300000E+01           0.00000000E+00
   0.39400000E+01           0.00000000E+00
   0.39500000E+01           0.00000000E+00
   0.39600000E+01           0.00000000E+00
   0.39700000E+01           0.00000000E+00
   0.39800000E+01           0.00000000E+00
   0.39900000E+01           0.00000000E+00
   0.40000000E+01           0.00000000E+00
 #T=   354.0404
  -0.40000000E+01           0.00000000E+00
  -0.39900000E+01           0.00000000E+00
  -0.39800000E+01           0.00000000E+00
  -0.39700000E+01           0.00000000E+00
  -0.39600000E+01           0.00000000E+00
  -0.39500000E+01           0.00000000E+00
  -0.39400000E+01           0.00000000E+00
  -0.39300000E+01           0.00000000E+00
  -0.39200000E+01           0.00000000E+00
  -0.39100000E+01           0.00000000E+00
  -0.39000000E+01           0.00000000E+00
  -0.38900000E+01           0.00000000E+00
  -0.38800000E+01           0.00000000E+00
  -0.38700000E+01           0.00000000E+00
  -0.38600000E+01           0.00000000E+00
  -0.38500000E+01           0.00000000E+00
  -0.38400000E+01           0.00000000E+00
  -0.38300000E+01           0.00000000E+00
  -0.38200000E+01           0.00000000E+00
  -0.38100000E+01           0.00000000E+00
  -0.38000000E+01           0.00000000E+00
  -0.37900000E+01           0.00000000E+00
  -0.37800000E+01           0.00000000E+00
  -0.37700000E+01           0.00000000E+00
  -0.37600000E+01           0.00000000E+00
  -0.37500000E+01           0.00000000E+00
  -0.37400000E+01           0.00000000E+00
  -0.37300000E+01           0.00000000E+00
  -0.37200000E+01           0.00000000E+00
  -0.37100000E+01           0.00000000E+00
  -0.37000000E+01           0.00000000E+00
  -0.36900000E+01           0.00000000E+00
  -0.36800000E+01           0.00000000E+00
  -0.36700000E+01           0.00000000E+00
  -0.36600000E+01           0.00000000E+00
  -0.36500000E+01           0.00000000E+00
  -0.36400000E+01           0.00000000E+00
  -0.36300000E+01           0.00000000E+00
  -0.36200000E+01           0.00000000E+00
  -0.36100000E+01           0.00000000E+00
  -0.36000000E+01           0.00000000E+00
  -0.35900000E+01           0.00000000E+00
  -0.35800000E+01           0.00000000E+00
  -0.35700000E+01           0.00000000E+00
  -0.35600000E+01           0.00000000E+00
  -0.35500000E+01           0.00000000E+00
  -0.35400000E+01           0.00000000E+00
  -0.35300000E+01           0.00000000E+00
  -0.35200000E+01           0.00000000E+00
  -0.35100000E+01           0.00000000E+00
  -0.35000000E+01           0.00000000E+00
  -0.34900000E+01           0.00000000E+00
  -0.34800000E+01           0.00000000E+00
  -0.34700000E+01           0.00000000E+00
  -0.34600000E+01           0.00000000E+00
  -0.34500000E+01           0.00000000E+00
  -0.34400000E+01           0.00000000E+00
  -0.34300000E+01           0.00000000E+00
  -0.34200000E+01           0.00000000E+00
  -0.34100000E+01           0.00000000E+00
  -0.34000000E+01           0.00000000E+00
  -0.33900000E+01           0.00000000E+00
  -0.33800000E+01           0.00000000E+00
  -0.33700000E+01           0.00000000E+00
  -0.33600000E+01           0.00000000E+00
  -0.33500000E+01           0.00000000E+00
  -0.33400000E+01           0.00000000E+00
  -0.33300000E+01           0.00000000E+00
  -0.33200000E+01           0.00000000E+00
  -0.33100000E+01           0.00000000E+00
  -0.33000000E+01           0.00000000E+00
  -0.32900000E+01           0.00000000E+00
  -0.32800000E+01           0.00000000E+00
  -0.32700000E+01           0.00000000E+00
  -0.32600000E+01           0.00000000E+00
  -0.32500000E+01           0.00000000E+00
  -0.32400000E+01           0.00000000E+00
  -0.32300000E+01           0.00000000E+00
  -0.32200000E+01           0.00000000E+00
  -0.32100000E+01           0.00000000E+00
  -0.32000000E+01           0.00000000E+00
  -0.31900000E+01           0.00000000E+00
  -0.31800000E+01           0.00000000E+00
  -0.31700000E+01           0.00000000E+00
  -0.31600000E+01           0.00000000E+00
  -0.31500000E+01           0.00000000E+00
  -0.31400000E+01           0.00000000E+00
  -0.31300000E+01           0.00000000E+00
  -0.31200000E+01           0.00000000E+00
  -0.31100000E+01           0.00000000E+00
  -0.31000000E+01           0.00000000E+00
  -0.30900000E+01           0.00000000E+00
  -0.30800000E+01           0.00000000E+00
  -0.30700000E+01           0.00000000E+00
  -0.30600000E+01           0.00000000E+00
  -0.30500000E+01           0.00000000E+00
  -0.30400000E+01           0.00000000E+00
  -0.30300000E+01           0.00000000E+00
  -0.30200000E+01           0.00000000E+00
  -0.30100000E+01           0.00000000E+00
  -0.30000000E+01           0.00000000E+00
  -0.29900000E+01           0.00000000E+00
  -0.29800000E+01           0.00000000E+00
  -0.29700000E+01           0.00000000E+00
  -0.29600000E+01           0.00000000E+00
  -0.29500000E+01           0.00000000E+00
  -0.29400000E+01           0.00000000E+00
  -0.29300000E+01           0.00000000E+00
  -0.29200000E+01           0.00000000E+00
  -0.29100000E+01           0.00000000E+00
  -0.29000000E+01           0.00000000E+00
  -0.28900000E+01           0.00000000E+00
  -0.28800000E+01           0.00000000E+00
  -0.28700000E+01           0.00000000E+00
  -0.28600000E+01           0.00000000E+00
  -0.28500000E+01           0.00000000E+00
  -0.28400000E+01           0.00000000E+00
  -0.28300000E+01           0.00000000E+00
  -0.28200000E+01           0.00000000E+00
  -0.28100000E+01           0.00000000E+00
  -0.28000000E+01           0.00000000E+00
  -0.27900000E+01           0.00000000E+00
  -0.27800000E+01           0.00000000E+00
  -0.27700000E+01           0.00000000E+00
  -0.27600000E+01           0.00000000E+00
  -0.27500000E+01           0.00000000E+00
  -0.27400000E+01           0.00000000E+00
  -0.27300000E+01           0.00000000E+00
  -0.27200000E+01           0.00000000E+00
  -0.27100000E+01           0.00000000E+00
  -0.27000000E+01           0.00000000E+00
  -0.26900000E+01           0.00000000E+00
  -0.26800000E+01           0.00000000E+00
  -0.26700000E+01           0.00000000E+00
  -0.26600000E+01           0.00000000E+00
  -0.26500000E+01           0.00000000E+00
  -0.26400000E+01           0.00000000E+00
  -0.26300000E+01           0.00000000E+00
  -0.26200000E+01           0.00000000E+00
  -0.26100000E+01           0.00000000E+00
  -0.26000000E+01           0.00000000E+00
  -0.25900000E+01           0.00000000E+00
  -0.25800000E+01           0.00000000E+00
  -0.25700000E+01           0.00000000E+00
  -0.25600000E+01           0.00000000E+00
  -0.25500000E+01           0.00000000E+00
  -0.25400000E+01           0.00000000E+00
  -0.25300000E+01           0.00000000E+00
  -0.25200000E+01           0.00000000E+00
  -0.25100000E+01           0.00000000E+00
  -0.25000000E+01           0.00000000E+00
  -0.24900000E+01           0.00000000E+00
  -0.24800000E+01           0.00000000E+00
  -0.24700000E+01           0.00000000E+00
  -0.24600000E+01           0.00000000E+00
  -0.24500000E+01           0.00000000E+00
  -0.24400000E+01           0.00000000E+00
  -0.24300000E+01           0.00000000E+00
  -0.24200000E+01           0.00000000E+00
  -0.24100000E+01           0.00000000E+00
  -0.24000000E+01           0.00000000E+00
  -0.23900000E+01           0.00000000E+00
  -0.23800000E+01           0.00000000E+00
  -0.23700000E+01           0.00000000E+00
  -0.23600000E+01           0.00000000E+00
  -0.23500000E+01           0.00000000E+00
  -0.23400000E+01           0.00000000E+00
  -0.23300000E+01           0.00000000E+00
  -0.23200000E+01           0.00000000E+00
  -0.23100000E+01           0.00000000E+00
  -0.23000000E+01           0.00000000E+00
  -0.22900000E+01           0.00000000E+00
  -0.22800000E+01           0.00000000E+00
  -0.22700000E+01           0.00000000E+00
  -0.22600000E+01           0.00000000E+00
  -0.22500000E+01           0.00000000E+00
  -0.22400000E+01           0.00000000E+00
  -0.22300000E+01           0.00000000E+00
  -0.22200000E+01           0.00000000E+00
  -0.22100000E+01           0.00000000E+00
  -0.22000000E+01           0.00000000E+00
  -0.21900000E+01           0.00000000E+00
  -0.21800000E+01           0.00000000E+00
  -0.21700000E+01           0.00000000E+00
  -0.21600000E+01           0.00000000E+00
  -0.21500000E+01           0.00000000E+00
  -0.21400000E+01           0.00000000E+00
  -0.21300000E+01           0.00000000E+00
  -0.21200000E+01           0.00000000E+00
  -0.21100000E+01           0.00000000E+00
  -0.21000000E+01           0.00000000E+00
  -0.20900000E+01           0.00000000E+00
  -0.20800000E+01           0.00000000E+00
  -0.20700000E+01           0.00000000E+00
  -0.20600000E+01           0.00000000E+00
  -0.20500000E+01           0.00000000E+00
  -0.20400000E+01           0.00000000E+00
  -0.20300000E+01           0.00000000E+00
  -0.20200000E+01           0.00000000E+00
  -0.20100000E+01           0.00000000E+00
  -0.20000000E+01           0.00000000E+00
  -0.19900000E+01           0.00000000E+00
  -0.19800000E+01           0.00000000E+00
  -0.19700000E+01           0.00000000E+00
  -0.19600000E+01           0.00000000E+00
  -0.19500000E+01           0.00000000E+00
  -0.19400000E+01           0.00000000E+00
  -0.19300000E+01           0.00000000E+00
  -0.19200000E+01           0.00000000E+00
  -0.19100000E+01           0.00000000E+00
  -0.19000000E+01           0.00000000E+00
  -0.18900000E+01           0.00000000E+00
  -0.18800000E+01           0.00000000E+00
  -0.18700000E+01           0.00000000E+00
  -0.18600000E+01           0.00000000E+00
  -0.18500000E+01           0.00000000E+00
  -0.18400000E+01           0.00000000E+00
  -0.18300000E+01           0.00000000E+00
  -0.18200000E+01           0.00000000E+00
  -0.18100000E+01           0.00000000E+00
  -0.18000000E+01           0.00000000E+00
  -0.17900000E+01           0.00000000E+00
  -0.17800000E+01           0.00000000E+00
  -0.17700000E+01           0.00000000E+00
  -0.17600000E+01           0.00000000E+00
  -0.17500000E+01           0.00000000E+00
  -0.17400000E+01           0.00000000E+00
  -0.17300000E+01           0.00000000E+00
  -0.17200000E+01           0.00000000E+00
  -0.17100000E+01           0.00000000E+00
  -0.17000000E+01           0.00000000E+00
  -0.16900000E+01           0.00000000E+00
  -0.16800000E+01           0.00000000E+00
  -0.16700000E+01           0.00000000E+00
  -0.16600000E+01           0.00000000E+00
  -0.16500000E+01           0.00000000E+00
  -0.16400000E+01           0.00000000E+00
  -0.16300000E+01           0.00000000E+00
  -0.16200000E+01           0.00000000E+00
  -0.16100000E+01           0.00000000E+00
  -0.16000000E+01           0.00000000E+00
  -0.15900000E+01           0.00000000E+00
  -0.15800000E+01           0.00000000E+00
  -0.15700000E+01           0.00000000E+00
  -0.15600000E+01           0.00000000E+00
  -0.15500000E+01           0.00000000E+00
  -0.15400000E+01           0.00000000E+00
  -0.15300000E+01           0.00000000E+00
  -0.15200000E+01           0.00000000E+00
  -0.15100000E+01           0.00000000E+00
  -0.15000000E+01           0.00000000E+00
  -0.14900000E+01           0.00000000E+00
[...]
  -0.64000000E+00           0.00000000E+00
  -0.63000000E+00           0.00000000E+00
  -0.62000000E+00           0.00000000E+00
  -0.61000000E+00           0.00000000E+00
  -0.60000000E+00           0.00000000E+00
  -0.59000000E+00           0.00000000E+00
  -0.58000000E+00           0.00000000E+00
  -0.57000000E+00           0.00000000E+00
  -0.56000000E+00           0.00000000E+00
  -0.55000000E+00           0.00000000E+00
  -0.54000000E+00           0.00000000E+00
  -0.53000000E+00           0.00000000E+00
  -0.52000000E+00           0.00000000E+00
  -0.51000000E+00           0.00000000E+00
  -0.50000000E+00           0.00000000E+00
  -0.49000000E+00           0.00000000E+00
  -0.48000000E+00           0.00000000E+00
  -0.47000000E+00           0.00000000E+00
  -0.46000000E+00           0.00000000E+00
  -0.45000000E+00           0.00000000E+00
  -0.44000000E+00           0.00000000E+00
  -0.43000000E+00           0.00000000E+00
  -0.42000000E+00           0.00000000E+00
  -0.41000000E+00           0.00000000E+00
  -0.40000000E+00           0.00000000E+00
  -0.39000000E+00           0.00000000E+00
  -0.38000000E+00           0.00000000E+00
  -0.37000000E+00           0.00000000E+00
  -0.36000000E+00           0.00000000E+00
  -0.35000000E+00           0.00000000E+00
  -0.34000000E+00           0.00000000E+00
  -0.33000000E+00           0.00000000E+00
  -0.32000000E+00           0.00000000E+00
  -0.31000000E+00           0.00000000E+00
  -0.30000000E+00           0.00000000E+00
  -0.29000000E+00           0.00000000E+00
  -0.28000000E+00           0.00000000E+00
  -0.27000000E+00           0.00000000E+00
  -0.26000000E+00           0.00000000E+00
  -0.25000000E+00           0.00000000E+00
  -0.24000000E+00           0.00000000E+00
  -0.23000000E+00           0.00000000E+00
  -0.22000000E+00           0.00000000E+00
  -0.21000000E+00           0.00000000E+00
  -0.20000000E+00           0.00000000E+00
  -0.19000000E+00           0.00000000E+00
  -0.18000000E+00           0.00000000E+00
  -0.17000000E+00           0.00000000E+00
  -0.16000000E+00           0.00000000E+00
  -0.15000000E+00           0.00000000E+00
  -0.14000000E+00           0.00000000E+00
  -0.13000000E+00           0.00000000E+00
  -0.12000000E+00           0.00000000E+00
  -0.11000000E+00           0.00000000E+00
  -0.10000000E+00           0.00000000E+00
  -0.90000000E-01           0.00000000E+00
  -0.80000000E-01           0.00000000E+00
  -0.70000000E-01           0.00000000E+00
  -0.60000000E-01           0.00000000E+00
  -0.50000000E-01           0.00000000E+00
  -0.40000000E-01           0.00000000E+00
  -0.30000000E-01           0.00000000E+00
  -0.20000000E-01           0.00000000E+00
  -0.10000000E-01           0.00000000E+00
   0.00000000E+00           0.95486111E-05
   0.10000000E-01           0.24427083E-03
   0.20000000E-01           0.88871528E-03
   0.30000000E-01           0.19199653E-02
   0.40000000E-01           0.33881944E-02
   0.50000000E-01           0.51934028E-02
   0.60000000E-01           0.74145833E-02
   0.70000000E-01           0.10085937E-01
   0.80000000E-01           0.13083854E-01
   0.90000000E-01           0.16495312E-01
   0.10000000E+00           0.19950694E-01
   0.11000000E+00           0.24045833E-01
   0.12000000E+00           0.28360590E-01
   0.13000000E+00           0.33084028E-01
   0.14000000E+00           0.37993924E-01
   0.15000000E+00           0.43302083E-01
   0.16000000E+00           0.48624132E-01
   0.17000000E+00           0.54749653E-01
   0.18000000E+00           0.60636111E-01
   0.19000000E+00           0.66942014E-01
   0.20000000E+00           0.73611111E-01
   0.21000000E+00           0.80471875E-01
   0.22000000E+00           0.87130208E-01
   0.23000000E+00           0.94749479E-01
   0.24000000E+00           0.10190833E+00
   0.25000000E+00           0.10954705E+00
   0.26000000E+00           0.11756667E+00
   0.27000000E+00           0.12556146E+00
   0.28000000E+00           0.13353003E+00
   0.29000000E+00           0.14199740E+00
   0.30000000E+00           0.15025573E+00
   0.31000000E+00           0.15882517E+00
   0.32000000E+00           0.16738802E+00
   0.33000000E+00           0.17682483E+00
   0.34000000E+00           0.18529062E+00
   0.35000000E+00           0.19444757E+00
   0.36000000E+00           0.20347535E+00
   0.37000000E+00           0.21316146E+00
   0.38000000E+00           0.22220781E+00
   0.39000000E+00           0.23126024E+00
   0.40000000E+00           0.24040955E+00
   0.41000000E+00           0.25004896E+00
   0.42000000E+00           0.25946476E+00
   0.43000000E+00           0.26901215E+00
   0.44000000E+00           0.27884132E+00
   0.45000000E+00           0.28832622E+00
   0.46000000E+00           0.29746962E+00
   0.47000000E+00           0.30687743E+00
   0.48000000E+00           0.31651215E+00
   0.49000000E+00           0.32619757E+00
   0.50000000E+00           0.33581337E+00
   0.51000000E+00           0.34522865E+00
   0.52000000E+00           0.35477535E+00
   0.53000000E+00           0.36393281E+00
   0.54000000E+00           0.37325312E+00
   0.55000000E+00           0.38223351E+00
   0.56000000E+00           0.39207934E+00
   0.57000000E+00           0.40083194E+00
   0.58000000E+00           0.41001597E+00
   0.59000000E+00           0.41917135E+00
   0.60000000E+00           0.42724115E+00
   0.61000000E+00           0.43661285E+00
   0.62000000E+00           0.44472760E+00
   0.63000000E+00           0.45355920E+00
   0.64000000E+00           0.46242344E+00
   0.65000000E+00           0.47055330E+00
   0.66000000E+00           0.47862743E+00
   0.67000000E+00           0.48689774E+00
   0.68000000E+00           0.49444844E+00
   0.69000000E+00           0.50301042E+00
   0.70000000E+00           0.51051649E+00
   0.71000000E+00           0.51783715E+00
   0.72000000E+00           0.52493437E+00
   0.73000000E+00           0.53265503E+00
   0.74000000E+00           0.53921285E+00
   0.75000000E+00           0.54676753E+00
   0.76000000E+00           0.55389392E+00
   0.77000000E+00           0.56026979E+00
   0.78000000E+00           0.56649896E+00
   0.79000000E+00           0.57257049E+00
   0.80000000E+00           0.57923437E+00
   0.81000000E+00           0.58484340E+00
   0.82000000E+00           0.59057517E+00
   0.83000000E+00           0.59721580E+00
   0.84000000E+00           0.60128958E+00
   0.85000000E+00           0.60681944E+00
   0.86000000E+00           0.61195226E+00
   0.87000000E+00           0.61735955E+00
   0.88000000E+00           0.62141319E+00
   0.89000000E+00           0.62672483E+00
   0.90000000E+00           0.63033056E+00
   0.91000000E+00           0.63510243E+00
   0.92000000E+00           0.63887691E+00
   0.93000000E+00           0.64315573E+00
   0.94000000E+00           0.64632309E+00
   0.95000000E+00           0.64927361E+00
   0.96000000E+00           0.65286024E+00
   0.97000000E+00           0.65567118E+00
   0.98000000E+00           0.65889965E+00
   0.99000000E+00           0.66161910E+00
   0.10000000E+01           0.66429462E+00
   0.10100000E+01           0.66700521E+00
   0.10200000E+01           0.66827049E+00
   0.10300000E+01           0.67023194E+00
   0.10400000E+01           0.67181302E+00
   0.10500000E+01           0.67323038E+00
   0.10600000E+01           0.67464375E+00
   0.10700000E+01           0.67608837E+00
   0.10800000E+01           0.67718559E+00
   0.10900000E+01           0.67766962E+00
   0.11000000E+01           0.67857517E+00
   0.11100000E+01           0.67913385E+00
   0.11200000E+01           0.67880243E+00
   0.11300000E+01           0.67918941E+00
   0.11400000E+01           0.67971476E+00
   0.11500000E+01           0.67962326E+00
   0.11600000E+01           0.67900486E+00
   0.11700000E+01           0.67865226E+00
   0.11800000E+01           0.67731545E+00
   0.11900000E+01           0.67641632E+00
   0.12000000E+01           0.67553924E+00
   0.12100000E+01           0.67455573E+00
   0.12200000E+01           0.67378264E+00
   0.12300000E+01           0.67123906E+00
   0.12400000E+01           0.67047795E+00
   0.12500000E+01           0.66811719E+00
   0.12600000E+01           0.66672604E+00
   0.12700000E+01           0.66403142E+00
   0.12800000E+01           0.66180382E+00
   0.12900000E+01           0.65951146E+00
   0.13000000E+01           0.65696146E+00
   0.13100000E+01           0.65372917E+00
   0.13200000E+01           0.65198021E+00
   0.13300000E+01           0.64816198E+00
   0.13400000E+01           0.64548785E+00
   0.13500000E+01           0.64186285E+00
   0.13600000E+01           0.63911250E+00
   0.13700000E+01           0.63554080E+00
   0.13800000E+01           0.63226250E+00
   0.13900000E+01           0.62883507E+00
   0.14000000E+01           0.62501701E+00
   0.14100000E+01           0.62105087E+00
   0.14200000E+01           0.61712326E+00
   0.14300000E+01           0.61334844E+00
   0.14400000E+01           0.60826788E+00
   0.14500000E+01           0.60448733E+00
   0.14600000E+01           0.60034635E+00
   0.14700000E+01           0.59632448E+00
   0.14800000E+01           0.59152517E+00
   0.14900000E+01           0.58683698E+00
   0.15000000E+01           0.58202569E+00
   0.15100000E+01           0.57773247E+00
   0.15200000E+01           0.57282448E+00
   0.15300000E+01           0.56762986E+00
   0.15400000E+01           0.56217847E+00
   0.15500000E+01           0.55764062E+00
   0.15600000E+01           0.55207448E+00
   0.15700000E+01           0.54738090E+00
   0.15800000E+01           0.54261545E+00
   0.15900000E+01           0.53680382E+00
   0.16000000E+01           0.53117257E+00
   0.16100000E+01           0.52586597E+00
   0.16200000E+01           0.52007396E+00
   0.16300000E+01           0.51580642E+00
   0.16400000E+01           0.50937622E+00
   0.16500000E+01           0.50473073E+00
   0.16600000E+01           0.49890851E+00
   0.16700000E+01           0.49286319E+00
   0.16800000E+01           0.48717049E+00
   0.16900000E+01           0.48133160E+00
   0.17000000E+01           0.47554306E+00
   0.17100000E+01           0.46968993E+00
   0.17200000E+01           0.46419427E+00
   0.17300000E+01           0.45832170E+00
   0.17400000E+01           0.45235781E+00
   0.17500000E+01           0.44679687E+00
   0.17600000E+01           0.44045990E+00
   0.17700000E+01           0.43435243E+00
   0.17800000E+01           0.42868542E+00
   0.17900000E+01           0.42289844E+00
   0.18000000E+01           0.41677951E+00
   0.18100000E+01           0.41091840E+00
   0.18200000E+01           0.40546111E+00
   0.18300000E+01           0.39917083E+00
   0.18400000E+01           0.39329149E+00
   0.18500000E+01           0.38677431E+00
   0.18600000E+01           0.38146545E+00
   0.18700000E+01           0.37541493E+00
   0.18800000E+01           0.36943472E+00
   0.18900000E+01           0.36332118E+00
   0.19000000E+01           0.35755382E+00
   0.19100000E+01           0.35185972E+00
   0.19200000E+01           0.34612865E+00
   0.19300000E+01           0.33956024E+00
   0.19400000E+01           0.33384809E+00
   0.19500000E+01           0.32805747E+00
   0.19600000E+01           0.32213212E+00
   0.19700000E+01           0.31662187E+00
   0.19800000E+01           0.31094288E+00
   0.19900000E+01           0.30531806E+00
   0.20000000E+01           0.29954410E+00
   0.20100000E+01           0.29359844E+00
   0.20200000E+01           0.28768003E+00
   0.20300000E+01           0.28236510E+00
   0.20400000E+01           0.27739306E+00
   0.20500000E+01           0.27179410E+00
   0.20600000E+01           0.26637674E+00
   0.20700000E+01           0.26070399E+00
   0.20800000E+01           0.25567309E+00
   0.20900000E+01           0.25014427E+00
   0.21000000E+01           0.24532153E+00
   0.21100000E+01           0.24026094E+00
   0.21200000E+01           0.23518698E+00
   0.21300000E+01           0.23077222E+00
   0.21400000E+01           0.22594236E+00
   0.21500000E+01           0.22104497E+00
   0.21600000E+01           0.21631771E+00
   0.21700000E+01           0.21175538E+00
   0.21800000E+01           0.20713889E+00
   0.21900000E+01           0.20287014E+00
   0.22000000E+01           0.19828698E+00
   0.22100000E+01           0.19396979E+00
   0.22200000E+01           0.18981597E+00
   0.22300000E+01           0.18594965E+00
   0.22400000E+01           0.18162674E+00
   0.22500000E+01           0.17730052E+00
   0.22600000E+01           0.17348785E+00
   0.22700000E+01           0.16964826E+00
   0.22800000E+01           0.16547674E+00
   0.22900000E+01           0.16173542E+00
   0.23000000E+01           0.15781250E+00
   0.23100000E+01           0.15445052E+00
   0.23200000E+01           0.15091354E+00
   0.23300000E+01           0.14671753E+00
   0.23400000E+01           0.14356250E+00
   0.23500000E+01           0.14022101E+00
   0.23600000E+01           0.13676806E+00
   0.23700000E+01           0.13356163E+00
   0.23800000E+01           0.13016163E+00
   0.23900000E+01           0.12689184E+00
   0.24000000E+01           0.12405156E+00
   0.24100000E+01           0.12077205E+00
   0.24200000E+01           0.11784497E+00
   0.24300000E+01           0.11445990E+00
   0.24400000E+01           0.11177622E+00
   0.24500000E+01           0.10892205E+00
   0.24600000E+01           0.10654184E+00
   0.24700000E+01           0.10326059E+00
   0.24800000E+01           0.10057378E+00
   0.24900000E+01           0.98080556E-01
   0.25000000E+01           0.95507118E-01
   0.25100000E+01           0.93085417E-01
   0.25200000E+01           0.90319792E-01
   0.25300000E+01           0.88072743E-01
   0.25400000E+01           0.85658854E-01
   0.25500000E+01           0.83250347E-01
   0.25600000E+01           0.80996007E-01
   0.25700000E+01           0.78769444E-01
   0.25800000E+01           0.76684549E-01
   0.25900000E+01           0.74426389E-01
   0.26000000E+01           0.72419271E-01
   0.26100000E+01           0.70473611E-01
   0.26200000E+01           0.68022049E-01
   0.26300000E+01           0.66397049E-01
   0.26400000E+01           0.64534375E-01
   0.26500000E+01           0.62588021E-01
   0.26600000E+01           0.60842187E-01
   0.26700000E+01           0.59043924E-01
   0.26800000E+01           0.56960243E-01
   0.26900000E+01           0.55505035E-01
   0.27000000E+01           0.53833854E-01
   0.27100000E+01           0.52125347E-01
   0.27200000E+01           0.50690625E-01
   0.27300000E+01           0.49134722E-01
   0.27400000E+01           0.47541493E-01
   0.27500000E+01           0.46156076E-01
   0.27600000E+01           0.44641319E-01
   0.27700000E+01           0.43381771E-01
   0.27800000E+01           0.41906944E-01
   0.27900000E+01           0.40585764E-01
   0.28000000E+01           0.39213368E-01
   0.28100000E+01           0.38094444E-01
   0.28200000E+01           0.36840972E-01
   0.28300000E+01           0.35632292E-01
   0.28400000E+01           0.34607813E-01
   0.28500000E+01           0.33300868E-01
   0.28600000E+01           0.32265451E-01
   0.28700000E+01           0.31120486E-01
   0.28800000E+01           0.30077951E-01
   0.28900000E+01           0.29103472E-01
   0.29000000E+01           0.28163542E-01
   0.29100000E+01           0.27041840E-01
   0.29200000E+01           0.26150174E-01
   0.29300000E+01           0.25312674E-01
   0.29400000E+01           0.24428299E-01
   0.29500000E+01           0.23513542E-01
   0.29600000E+01           0.22764063E-01
   0.29700000E+01           0.21936458E-01
   0.29800000E+01           0.21075694E-01
   0.29900000E+01           0.20428125E-01
   0.30000000E+01           0.19645833E-01
   0.30100000E+01           0.18892014E-01
   0.30200000E+01           0.18207813E-01
   0.30300000E+01           0.17443056E-01
   0.30400000E+01           0.16844965E-01
   0.30500000E+01           0.16129167E-01
   0.30600000E+01           0.15628299E-01
   0.30700000E+01           0.14984375E-01
   0.30800000E+01           0.14297222E-01
   0.30900000E+01           0.13801910E-01
   0.31000000E+01           0.13281424E-01
   0.31100000E+01           0.12711285E-01
   0.31200000E+01           0.12211285E-01
   0.31300000E+01           0.11689757E-01
   0.31400000E+01           0.11348958E-01
   0.31500000E+01           0.10802604E-01
   0.31600000E+01           0.10310243E-01
   0.31700000E+01           0.98638889E-02
   0.31800000E+01           0.94831597E-02
   0.31900000E+01           0.91218750E-02
   0.32000000E+01           0.87637153E-02
   0.32100000E+01           0.83942708E-02
   0.32200000E+01           0.79809028E-02
   0.32300000E+01           0.76699653E-02
   0.32400000E+01           0.73269097E-02
   0.32500000E+01           0.69986111E-02
   0.32600000E+01           0.67248264E-02
   0.32700000E+01           0.63491319E-02
   0.32800000E+01           0.60750000E-02
   0.32900000E+01           0.57786458E-02
   0.33000000E+01           0.55420139E-02
   0.33100000E+01           0.52711806E-02
   0.33200000E+01           0.50369792E-02
   0.33300000E+01           0.47418403E-02
   0.33400000E+01           0.45616319E-02
   0.33500000E+01           0.43635417E-02
   0.33600000E+01           0.41043403E-02
   0.33700000E+01           0.38756944E-02
   0.33800000E+01           0.37317708E-02
   0.33900000E+01           0.35029514E-02
   0.34000000E+01           0.33500000E-02
   0.34100000E+01           0.31706597E-02
   0.34200000E+01           0.29822917E-02
   0.34300000E+01           0.28369792E-02
   0.34400000E+01           0.26543403E-02
   0.34500000E+01           0.25147569E-02
   0.34600000E+01           0.24005208E-02
   0.34700000E+01           0.22576389E-02
   0.34800000E+01           0.21484375E-02
   0.34900000E+01           0.19895833E-02
   0.35000000E+01           0.18873264E-02
   0.35100000E+01           0.17786458E-02
   0.35200000E+01           0.16732639E-02
   0.35300000E+01           0.15500000E-02
   0.35400000E+01           0.14809028E-02
   0.35500000E+01           0.13690972E-02
   0.35600000E+01           0.12824653E-02
   0.35700000E+01           0.12305556E-02
   0.35800000E+01           0.11147569E-02
   0.35900000E+01           0.10588542E-02
   0.36000000E+01           0.98437500E-03
   0.36100000E+01           0.90052083E-03
   0.36200000E+01           0.85069444E-03
   0.36300000E+01           0.77586806E-03
   0.36400000E+01           0.72881944E-03
   0.36500000E+01           0.68263889E-03
   0.36600000E+01           0.63767361E-03
   0.36700000E+01           0.58437500E-03
   0.36800000E+01           0.54652778E-03
   0.36900000E+01           0.50034722E-03
   0.37000000E+01           0.45138889E-03
   0.37100000E+01           0.41059028E-03
   0.37200000E+01           0.37465278E-03
   0.37300000E+01           0.33263889E-03
   0.37400000E+01           0.30416667E-03
   0.37500000E+01           0.26406250E-03
   0.37600000E+01           0.26059028E-03
   0.37700000E+01           0.22187500E-03
   0.37800000E+01           0.19947917E-03
   0.37900000E+01           0.18420139E-03
   0.38000000E+01           0.15729167E-03
   0.38100000E+01           0.14027778E-03
   0.38200000E+01           0.12812500E-03
   0.38300000E+01           0.10312500E-03
   0.38400000E+01           0.10052083E-03
   0.38500000E+01           0.76388889E-04
   0.38600000E+01           0.61458333E-04
   0.38700000E+01           0.59548611E-04
   0.38800000E+01           0.52083333E-04
   0.38900000E+01           0.42361111E-04
   0.39000000E+01           0.32638889E-04
   0.39100000E+01           0.23437500E-04
   0.39200000E+01           0.22916667E-04
   0.39300000E+01           0.18229167E-04
   0.39400000E+01           0.92013889E-05
   0.39500000E+01           0.74652778E-05
   0.39600000E+01           0.41666667E-05
   0.39700000E+01           0.31250000E-05
   0.39800000E+01           0.10416667E-05
   0.39900000E+01           0.17361111E-06
   0.40000000E+01           0.00000000E+00
